# vtk DataFile Version 3.0

ASCII
DATASET UNSTRUCTURED_GRID

POINTS 522 double
	 1.00000000E+00	 1.00000000E+00	-5.96046000E-08
	 1.00000000E+00	 5.00000000E-01	-5.96046000E-08
	 1.00000000E+00	 5.00000000E-01	 1.00000000E+00
	 1.00000000E+00	 1.00000000E+00	 1.00000000E+00
	 5.00000000E-01	 1.00000000E+00	-5.96046000E-08
	 5.00000000E-01	 5.00000000E-01	-5.96046000E-08
	 5.00000000E-01	 5.00000000E-01	 1.00000000E+00
	 5.00000000E-01	 1.00000000E+00	 1.00000000E+00
	 1.00000000E+00	 7.50000000E-01	-5.96046000E-08
	 1.00000000E+00	 5.00000000E-01	 5.00000000E-01
	 1.00000000E+00	 7.50000000E-01	 1.00000000E+00
	 1.00000000E+00	 1.00000000E+00	 5.00000000E-01
	 7.50000000E-01	 1.00000000E+00	-5.96046000E-08
	 7.50000000E-01	 5.00000000E-01	-5.96046000E-08
	 7.50000000E-01	 5.00000000E-01	 1.00000000E+00
	 7.50000000E-01	 1.00000000E+00	 1.00000000E+00
	 5.00000000E-01	 7.50000000E-01	-5.96046000E-08
	 5.00000000E-01	 5.00000000E-01	 5.00000000E-01
	 5.00000000E-01	 7.50000000E-01	 1.00000000E+00
	 5.00000000E-01	 1.00000000E+00	 5.00000000E-01
	 1.00000000E+00	-1.49012000E-08	-5.96046000E-08
	 1.00000000E+00	-1.49012000E-08	 1.00000000E+00
	 5.00000000E-01	-1.49012000E-08	-5.96046000E-08
	 5.00000000E-01	-1.49012000E-08	 1.00000000E+00
	 1.00000000E+00	 2.50000000E-01	-5.96046000E-08
	 1.00000000E+00	-1.49012000E-08	 5.00000000E-01
	 1.00000000E+00	 2.50000000E-01	 1.00000000E+00
	 7.50000000E-01	-1.49012000E-08	-5.96046000E-08
	 7.50000000E-01	-1.49012000E-08	 1.00000000E+00
	 5.00000000E-01	 2.50000000E-01	-5.96046000E-08
	 5.00000000E-01	-1.49012000E-08	 5.00000000E-01
	 5.00000000E-01	 2.50000000E-01	 1.00000000E+00
	-7.45058000E-09	 1.00000000E+00	-5.96046000E-08
	-7.45058000E-09	 5.00000000E-01	-5.96046000E-08
	-7.45058000E-09	 5.00000000E-01	 1.00000000E+00
	-7.45058000E-09	 1.00000000E+00	 1.00000000E+00
	 2.50000000E-01	 1.00000000E+00	-5.96046000E-08
	 2.50000000E-01	 5.00000000E-01	-5.96046000E-08
	 2.50000000E-01	 5.00000000E-01	 1.00000000E+00
	 2.50000000E-01	 1.00000000E+00	 1.00000000E+00
	-7.45058000E-09	 7.50000000E-01	-5.96046000E-08
	-7.45058000E-09	 5.00000000E-01	 5.00000000E-01
	-7.45058000E-09	 7.50000000E-01	 1.00000000E+00
	-7.45058000E-09	 1.00000000E+00	 5.00000000E-01
	-7.45058000E-09	-1.49012000E-08	-5.96046000E-08
	-7.45058000E-09	-1.49012000E-08	 1.00000000E+00
	 2.50000000E-01	-1.49012000E-08	-5.96046000E-08
	 2.50000000E-01	-1.49012000E-08	 1.00000000E+00
	-7.45058000E-09	 2.50000000E-01	-5.96046000E-08
	-7.45058000E-09	-1.49012000E-08	 5.00000000E-01
	-7.45058000E-09	 2.50000000E-01	 1.00000000E+00
	 1.00000000E+00	 5.00000000E-01	 2.00000000E+00
	 1.00000000E+00	 1.00000000E+00	 2.00000000E+00
	 5.00000000E-01	 5.00000000E-01	 2.00000000E+00
	 5.00000000E-01	 1.00000000E+00	 2.00000000E+00
	 1.00000000E+00	 5.00000000E-01	 1.50000000E+00
	 1.00000000E+00	 7.50000000E-01	 2.00000000E+00
	 1.00000000E+00	 1.00000000E+00	 1.50000000E+00
	 7.50000000E-01	 5.00000000E-01	 2.00000000E+00
	 7.50000000E-01	 1.00000000E+00	 2.00000000E+00
	 5.00000000E-01	 5.00000000E-01	 1.50000000E+00
	 5.00000000E-01	 7.50000000E-01	 2.00000000E+00
	 5.00000000E-01	 1.00000000E+00	 1.50000000E+00
	 1.00000000E+00	-1.49012000E-08	 2.00000000E+00
	 5.00000000E-01	-1.49012000E-08	 2.00000000E+00
	 1.00000000E+00	-1.49012000E-08	 1.50000000E+00
	 1.00000000E+00	 2.50000000E-01	 2.00000000E+00
	 7.50000000E-01	-1.49012000E-08	 2.00000000E+00
	 5.00000000E-01	-1.49012000E-08	 1.50000000E+00
	 5.00000000E-01	 2.50000000E-01	 2.00000000E+00
	-7.45058000E-09	 5.00000000E-01	 2.00000000E+00
	-7.45058000E-09	 1.00000000E+00	 2.00000000E+00
	 2.50000000E-01	 5.00000000E-01	 2.00000000E+00
	 2.50000000E-01	 1.00000000E+00	 2.00000000E+00
	-7.45058000E-09	 5.00000000E-01	 1.50000000E+00
	-7.45058000E-09	 7.50000000E-01	 2.00000000E+00
	-7.45058000E-09	 1.00000000E+00	 1.50000000E+00
	-7.45058000E-09	-1.49012000E-08	 2.00000000E+00
	 2.50000000E-01	-1.49012000E-08	 2.00000000E+00
	-7.45058000E-09	-1.49012000E-08	 1.50000000E+00
	-7.45058000E-09	 2.50000000E-01	 2.00000000E+00
	 1.00000000E+00	 5.00000000E-01	 3.00000000E+00
	 1.00000000E+00	 1.00000000E+00	 3.00000000E+00
	 5.00000000E-01	 5.00000000E-01	 3.00000000E+00
	 5.00000000E-01	 1.00000000E+00	 3.00000000E+00
	 1.00000000E+00	 5.00000000E-01	 2.50000000E+00
	 1.00000000E+00	 7.50000000E-01	 3.00000000E+00
	 1.00000000E+00	 1.00000000E+00	 2.50000000E+00
	 7.50000000E-01	 5.00000000E-01	 3.00000000E+00
	 7.50000000E-01	 1.00000000E+00	 3.00000000E+00
	 5.00000000E-01	 5.00000000E-01	 2.50000000E+00
	 5.00000000E-01	 7.50000000E-01	 3.00000000E+00
	 5.00000000E-01	 1.00000000E+00	 2.50000000E+00
	 1.00000000E+00	-1.49012000E-08	 3.00000000E+00
	 5.00000000E-01	-1.49012000E-08	 3.00000000E+00
	 1.00000000E+00	-1.49012000E-08	 2.50000000E+00
	 1.00000000E+00	 2.50000000E-01	 3.00000000E+00
	 7.50000000E-01	-1.49012000E-08	 3.00000000E+00
	 5.00000000E-01	-1.49012000E-08	 2.50000000E+00
	 5.00000000E-01	 2.50000000E-01	 3.00000000E+00
	-7.45058000E-09	 5.00000000E-01	 3.00000000E+00
	-7.45058000E-09	 1.00000000E+00	 3.00000000E+00
	 2.50000000E-01	 5.00000000E-01	 3.00000000E+00
	 2.50000000E-01	 1.00000000E+00	 3.00000000E+00
	-7.45058000E-09	 5.00000000E-01	 2.50000000E+00
	-7.45058000E-09	 7.50000000E-01	 3.00000000E+00
	-7.45058000E-09	 1.00000000E+00	 2.50000000E+00
	-7.45058000E-09	-1.49012000E-08	 3.00000000E+00
	 2.50000000E-01	-1.49012000E-08	 3.00000000E+00
	-7.45058000E-09	-1.49012000E-08	 2.50000000E+00
	-7.45058000E-09	 2.50000000E-01	 3.00000000E+00
	 1.00000000E+00	 5.00000000E-01	 4.00000000E+00
	 1.00000000E+00	 1.00000000E+00	 4.00000000E+00
	 5.00000000E-01	 5.00000000E-01	 4.00000000E+00
	 5.00000000E-01	 1.00000000E+00	 4.00000000E+00
	 1.00000000E+00	 5.00000000E-01	 3.50000000E+00
	 1.00000000E+00	 7.50000000E-01	 4.00000000E+00
	 1.00000000E+00	 1.00000000E+00	 3.50000000E+00
	 7.50000000E-01	 5.00000000E-01	 4.00000000E+00
	 7.50000000E-01	 1.00000000E+00	 4.00000000E+00
	 5.00000000E-01	 5.00000000E-01	 3.50000000E+00
	 5.00000000E-01	 7.50000000E-01	 4.00000000E+00
	 5.00000000E-01	 1.00000000E+00	 3.50000000E+00
	 1.00000000E+00	-1.49012000E-08	 4.00000000E+00
	 5.00000000E-01	-1.49012000E-08	 4.00000000E+00
	 1.00000000E+00	-1.49012000E-08	 3.50000000E+00
	 1.00000000E+00	 2.50000000E-01	 4.00000000E+00
	 7.50000000E-01	-1.49012000E-08	 4.00000000E+00
	 5.00000000E-01	-1.49012000E-08	 3.50000000E+00
	 5.00000000E-01	 2.50000000E-01	 4.00000000E+00
	-7.45058000E-09	 5.00000000E-01	 4.00000000E+00
	-7.45058000E-09	 1.00000000E+00	 4.00000000E+00
	 2.50000000E-01	 5.00000000E-01	 4.00000000E+00
	 2.50000000E-01	 1.00000000E+00	 4.00000000E+00
	-7.45058000E-09	 5.00000000E-01	 3.50000000E+00
	-7.45058000E-09	 7.50000000E-01	 4.00000000E+00
	-7.45058000E-09	 1.00000000E+00	 3.50000000E+00
	-7.45058000E-09	-1.49012000E-08	 4.00000000E+00
	 2.50000000E-01	-1.49012000E-08	 4.00000000E+00
	-7.45058000E-09	-1.49012000E-08	 3.50000000E+00
	-7.45058000E-09	 2.50000000E-01	 4.00000000E+00
	 1.00000000E+00	 5.00000000E-01	 5.00000000E+00
	 1.00000000E+00	 1.00000000E+00	 5.00000000E+00
	 5.00000000E-01	 5.00000000E-01	 5.00000000E+00
	 5.00000000E-01	 1.00000000E+00	 5.00000000E+00
	 1.00000000E+00	 5.00000000E-01	 4.50000000E+00
	 1.00000000E+00	 7.50000000E-01	 5.00000000E+00
	 1.00000000E+00	 1.00000000E+00	 4.50000000E+00
	 7.50000000E-01	 5.00000000E-01	 5.00000000E+00
	 7.50000000E-01	 1.00000000E+00	 5.00000000E+00
	 5.00000000E-01	 5.00000000E-01	 4.50000000E+00
	 5.00000000E-01	 7.50000000E-01	 5.00000000E+00
	 5.00000000E-01	 1.00000000E+00	 4.50000000E+00
	 1.00000000E+00	-1.49012000E-08	 5.00000000E+00
	 5.00000000E-01	-1.49012000E-08	 5.00000000E+00
	 1.00000000E+00	-1.49012000E-08	 4.50000000E+00
	 1.00000000E+00	 2.50000000E-01	 5.00000000E+00
	 7.50000000E-01	-1.49012000E-08	 5.00000000E+00
	 5.00000000E-01	-1.49012000E-08	 4.50000000E+00
	 5.00000000E-01	 2.50000000E-01	 5.00000000E+00
	-7.45058000E-09	 5.00000000E-01	 5.00000000E+00
	-7.45058000E-09	 1.00000000E+00	 5.00000000E+00
	 2.50000000E-01	 5.00000000E-01	 5.00000000E+00
	 2.50000000E-01	 1.00000000E+00	 5.00000000E+00
	-7.45058000E-09	 5.00000000E-01	 4.50000000E+00
	-7.45058000E-09	 7.50000000E-01	 5.00000000E+00
	-7.45058000E-09	 1.00000000E+00	 4.50000000E+00
	-7.45058000E-09	-1.49012000E-08	 5.00000000E+00
	 2.50000000E-01	-1.49012000E-08	 5.00000000E+00
	-7.45058000E-09	-1.49012000E-08	 4.50000000E+00
	-7.45058000E-09	 2.50000000E-01	 5.00000000E+00
	 1.00000000E+00	 5.00000000E-01	 6.00000000E+00
	 1.00000000E+00	 1.00000000E+00	 6.00000000E+00
	 5.00000000E-01	 5.00000000E-01	 6.00000000E+00
	 5.00000000E-01	 1.00000000E+00	 6.00000000E+00
	 1.00000000E+00	 5.00000000E-01	 5.50000000E+00
	 1.00000000E+00	 7.50000000E-01	 6.00000000E+00
	 1.00000000E+00	 1.00000000E+00	 5.50000000E+00
	 7.50000000E-01	 5.00000000E-01	 6.00000000E+00
	 7.50000000E-01	 1.00000000E+00	 6.00000000E+00
	 5.00000000E-01	 5.00000000E-01	 5.50000000E+00
	 5.00000000E-01	 7.50000000E-01	 6.00000000E+00
	 5.00000000E-01	 1.00000000E+00	 5.50000000E+00
	 1.00000000E+00	-1.49012000E-08	 6.00000000E+00
	 5.00000000E-01	-1.49012000E-08	 6.00000000E+00
	 1.00000000E+00	-1.49012000E-08	 5.50000000E+00
	 1.00000000E+00	 2.50000000E-01	 6.00000000E+00
	 7.50000000E-01	-1.49012000E-08	 6.00000000E+00
	 5.00000000E-01	-1.49012000E-08	 5.50000000E+00
	 5.00000000E-01	 2.50000000E-01	 6.00000000E+00
	-7.45058000E-09	 5.00000000E-01	 6.00000000E+00
	-7.45058000E-09	 1.00000000E+00	 6.00000000E+00
	 2.50000000E-01	 5.00000000E-01	 6.00000000E+00
	 2.50000000E-01	 1.00000000E+00	 6.00000000E+00
	-7.45058000E-09	 5.00000000E-01	 5.50000000E+00
	-7.45058000E-09	 7.50000000E-01	 6.00000000E+00
	-7.45058000E-09	 1.00000000E+00	 5.50000000E+00
	-7.45058000E-09	-1.49012000E-08	 6.00000000E+00
	 2.50000000E-01	-1.49012000E-08	 6.00000000E+00
	-7.45058000E-09	-1.49012000E-08	 5.50000000E+00
	-7.45058000E-09	 2.50000000E-01	 6.00000000E+00
	 1.00000000E+00	 5.00000000E-01	 7.00000000E+00
[...]
POINT_DATA 522
FIELD U 1
	U 3 522 double
		 0.00000000E+00	 0.00000000E+00	 0.00000000E+00
		 0.00000000E+00	 0.00000000E+00	 0.00000000E+00
		 1.68157000E-05	-2.56588000E-03	-1.48041000E-05
		 9.18561000E-05	-2.51696000E-03	 8.39553000E-04
		 0.00000000E+00	 0.00000000E+00	 0.00000000E+00
		 0.00000000E+00	 0.00000000E+00	 0.00000000E+00
		 1.63503000E-05	-2.53798000E-03	-1.42610000E-05
		 2.65833000E-05	-2.48680000E-03	 8.72562000E-04
		 0.00000000E+00	 0.00000000E+00	 0.00000000E+00
		 1.20254000E-05	-1.11141000E-03	-1.01949000E-05
		 5.37152000E-05	-2.54039000E-03	 3.22916000E-04
		-1.37116000E-04	-1.17469000E-03	 6.98752000E-04
		 0.00000000E+00	 0.00000000E+00	 0.00000000E+00
		 0.00000000E+00	 0.00000000E+00	 0.00000000E+00
		 1.67372000E-05	-2.55218000E-03	-1.43972000E-05
		 5.98949000E-05	-2.50245000E-03	 8.76884000E-04
		 0.00000000E+00	 0.00000000E+00	 0.00000000E+00
		 1.00297000E-05	-1.17351000E-03	-6.52499000E-06
		 2.07319000E-05	-2.51182000E-03	 3.55566000E-04
		-5.40267000E-06	-1.24394000E-03	 7.12457000E-04
		 0.00000000E+00	 0.00000000E+00	 0.00000000E+00
		-5.62697000E-05	-2.51385000E-03	-8.68329000E-04
		 0.00000000E+00	 0.00000000E+00	 0.00000000E+00
		 8.08781000E-06	-2.48782000E-03	-9.00535000E-04
		 0.00000000E+00	 0.00000000E+00	 0.00000000E+00
		 1.61541000E-04	-1.17679000E-03	-7.19498000E-04
		-1.95857000E-05	-2.53893000E-03	-3.52227000E-04
		 0.00000000E+00	 0.00000000E+00	 0.00000000E+00
		-2.43960000E-05	-2.50135000E-03	-9.04939000E-04
		 0.00000000E+00	 0.00000000E+00	 0.00000000E+00
		 2.60564000E-05	-1.24622000E-03	-7.26560000E-04
		 1.25171000E-05	-2.51254000E-03	-3.83858000E-04
		 0.00000000E+00	 0.00000000E+00	 0.00000000E+00
		 0.00000000E+00	 0.00000000E+00	 0.00000000E+00
		 1.38332000E-05	-2.54741000E-03	-1.34033000E-05
		-4.83245000E-05	-2.50198000E-03	 8.40590000E-04
		 0.00000000E+00	 0.00000000E+00	 0.00000000E+00
		 0.00000000E+00	 0.00000000E+00	 0.00000000E+00
		 1.52428000E-05	-2.54395000E-03	-1.40038000E-05
		-1.17770000E-05	-2.49303000E-03	 8.64756000E-04
		 0.00000000E+00	 0.00000000E+00	 0.00000000E+00
		 8.46713000E-06	-1.14289000E-03	-3.06350000E-06
		-1.51825000E-05	-2.52404000E-03	 3.36530000E-04
		 1.23454000E-04	-1.20915000E-03	 7.05201000E-04
		 0.00000000E+00	 0.00000000E+00	 0.00000000E+00
		 7.81389000E-05	-2.50720000E-03	-8.67282000E-04
		 0.00000000E+00	 0.00000000E+00	 0.00000000E+00
		 4.42624000E-05	-2.49610000E-03	-8.92480000E-04
		 0.00000000E+00	 0.00000000E+00	 0.00000000E+00
		-1.06075000E-04	-1.21148000E-03	-7.12990000E-04
		 4.34964000E-05	-2.52703000E-03	-3.63220000E-04
		 6.32348000E-06	-3.91529000E-03	-2.24031000E-05
		 2.97136000E-04	-3.93165000E-03	 4.67382000E-04
		 4.32657000E-06	-3.61356000E-03	-2.41828000E-05
		 3.23011000E-04	-3.62856000E-03	 4.44195000E-04
		 1.26586000E-05	-3.44565000E-03	-1.61842000E-05
		 1.48497000E-04	-3.92526000E-03	 2.52270000E-04
		 1.88333000E-04	-3.44897000E-03	 5.92682000E-04
		 5.17365000E-06	-3.76489000E-03	-2.33500000E-05
		 3.09143000E-04	-3.77819000E-03	 4.76561000E-04
		 1.14080000E-05	-3.30618000E-03	-1.96449000E-05
		 1.63624000E-04	-3.62380000E-03	 2.65068000E-04
		 1.29881000E-04	-3.30358000E-03	 5.78128000E-04
		-2.85676000E-04	-3.93687000E-03	-5.12604000E-04
		-3.15421000E-04	-3.63107000E-03	-4.92686000E-04
		-1.62034000E-04	-3.44950000E-03	-6.26116000E-04
		-1.36193000E-04	-3.92798000E-03	-2.97088000E-04
		-2.99922000E-04	-3.78207000E-03	-5.23591000E-04
		-1.06243000E-04	-3.30567000E-03	-6.17479000E-04
		-1.55226000E-04	-3.62510000E-03	-3.13475000E-04
		 3.80644000E-06	-3.27687000E-03	-2.65448000E-05
		 3.47780000E-04	-3.29816000E-03	 4.63538000E-04
		 3.94071000E-06	-3.44612000E-03	-2.51942000E-05
		 3.35940000E-04	-3.46074000E-03	 3.98600000E-04
		 9.89595000E-06	-3.20945000E-03	-2.30549000E-05
		 1.80018000E-04	-3.28967000E-03	 3.24401000E-04
		 5.69965000E-05	-3.22543000E-03	 5.86877000E-04
		-3.41456000E-04	-3.29825000E-03	-5.16549000E-04
		-3.29079000E-04	-3.46205000E-03	-4.48862000E-04
		-3.63958000E-05	-3.22917000E-03	-6.32084000E-04
		-1.72874000E-04	-3.28959000E-03	-3.77592000E-04
		 1.41879000E-05	-5.42857000E-03	-4.22139000E-05
		 5.24340000E-04	-5.53734000E-03	 1.37364000E-03
		 1.13891000E-05	-4.80509000E-03	-3.85747000E-05
		 7.42229000E-04	-4.91538000E-03	 1.36531000E-03
		 9.18333000E-06	-4.42733000E-03	-3.25438000E-05
		 2.71108000E-04	-5.45202000E-03	 6.76370000E-04
		 4.25321000E-04	-4.49124000E-03	 7.74636000E-04
		 1.28780000E-05	-5.14707000E-03	-4.04690000E-05
		 6.33942000E-04	-5.25736000E-03	 1.38138000E-03
		 6.69319000E-06	-3.94194000E-03	-2.98619000E-05
		 3.77449000E-04	-4.82812000E-03	 6.87003000E-04
		 5.61561000E-04	-4.00413000E-03	 7.55996000E-04
		-4.96517000E-04	-5.53728000E-03	-1.45903000E-03
		-7.19737000E-04	-4.91422000E-03	-1.44293000E-03
		-4.07848000E-04	-4.49526000E-03	-8.39109000E-04
		-2.42738000E-04	-5.45153000E-03	-7.60623000E-04
		-6.08521000E-04	-5.25661000E-03	-1.46367000E-03
		-5.48983000E-04	-4.00619000E-03	-8.15738000E-04
		-3.54648000E-04	-4.82733000E-03	-7.64145000E-04
		 9.34644000E-06	-3.96668000E-03	-3.46272000E-05
		 9.70077000E-04	-4.06691000E-03	 1.38177000E-03
		 9.95817000E-06	-4.41478000E-03	-3.64204000E-05
		 8.55660000E-04	-4.52409000E-03	 1.34980000E-03
		 5.31263000E-06	-3.31695000E-03	-2.81377000E-05
		 4.85792000E-04	-3.98496000E-03	 7.20515000E-04
		 7.07640000E-04	-3.37392000E-03	 7.78058000E-04
		-9.51840000E-04	-4.06486000E-03	-1.45074000E-03
		-8.36346000E-04	-4.52282000E-03	-1.42233000E-03
		-6.97808000E-04	-3.37436000E-03	-8.35205000E-04
		-4.67006000E-04	-3.98383000E-03	-7.89792000E-04
		 2.00644000E-05	-9.85667000E-03	-7.63378000E-05
		 5.52147000E-04	-9.98910000E-03	 3.03423000E-03
		 1.90130000E-05	-9.19225000E-03	-6.47476000E-05
		 8.04995000E-04	-9.32718000E-03	 3.05186000E-03
		 1.32808000E-05	-7.18416000E-03	-5.63698000E-05
		 2.87312000E-04	-9.88912000E-03	 1.47333000E-03
		 5.56439000E-04	-7.30865000E-03	 2.17942000E-03
		 1.90648000E-05	-9.55734000E-03	-7.06881000E-05
		 6.78026000E-04	-9.69110000E-03	 3.03950000E-03
		 1.03511000E-05	-6.51207000E-03	-5.03739000E-05
		 4.13016000E-04	-9.22606000E-03	 1.48336000E-03
		 8.06128000E-04	-6.63789000E-03	 2.18225000E-03
		-5.16947000E-04	-9.97745000E-03	-3.18625000E-03
		-7.70329000E-04	-9.30992000E-03	-3.18046000E-03
		-5.33499000E-04	-7.30621000E-03	-2.29486000E-03
		-2.48554000E-04	-9.88471000E-03	-1.62722000E-03
		-6.44277000E-04	-9.67632000E-03	-3.17847000E-03
		-7.88483000E-04	-6.63056000E-03	-2.28435000E-03
		-3.75762000E-04	-9.21760000E-03	-1.61275000E-03
		 1.87847000E-05	-8.27910000E-03	-4.83667000E-05
		 1.06833000E-03	-8.40846000E-03	 3.06325000E-03
		 1.91977000E-05	-8.76802000E-03	-5.75744000E-05
		 9.37644000E-04	-8.90266000E-03	 3.06582000E-03
		 8.63752000E-06	-5.58899000E-03	-4.11912000E-05
		 5.41828000E-04	-8.31079000E-03	 1.48785000E-03
		 1.06867000E-03	-5.70733000E-03	 2.19689000E-03
		-1.03122000E-03	-8.38670000E-03	-3.16073000E-03
		-9.00980000E-04	-8.88266000E-03	-3.18188000E-03
		-1.05369000E-03	-5.69427000E-03	-2.27846000E-03
		-5.03959000E-04	-8.29933000E-03	-1.58444000E-03
		 3.91154000E-05	-1.77270000E-02	-1.12594000E-04
		 4.71236000E-04	-1.78351000E-02	 4.41262000E-03
		 3.34780000E-05	-1.72262000E-02	-9.71503000E-05
		 6.09261000E-04	-1.73264000E-02	 4.44017000E-03
		 3.18218000E-05	-1.34396000E-02	-9.54795000E-05
		 2.53583000E-04	-1.77640000E-02	 2.13493000E-03
		 5.42349000E-04	-1.35599000E-02	 3.80461000E-03
		 3.65420000E-05	-1.74954000E-02	-1.04012000E-04
		 5.42395000E-04	-1.75983000E-02	 4.40994000E-03
		 3.25891000E-05	-1.28260000E-02	-7.81760000E-05
		 3.20526000E-04	-1.72568000E-02	 2.14005000E-03
		 7.52977000E-04	-1.29459000E-02	 3.83111000E-03
		-3.79668000E-04	-1.77744000E-02	-4.64710000E-03
		-5.34535000E-04	-1.72826000E-02	-4.64138000E-03
		-4.77312000E-04	-1.35260000E-02	-3.98894000E-03
		-1.70312000E-04	-1.77298000E-02	-2.36030000E-03
		-4.57765000E-04	-1.75470000E-02	-4.62976000E-03
		-6.86801000E-04	-1.29114000E-02	-3.98566000E-03
		-2.50889000E-04	-1.72346000E-02	-2.33616000E-03
		 3.33136000E-05	-1.65820000E-02	-8.35145000E-05
		 7.56821000E-04	-1.66776000E-02	 4.43828000E-03
		 3.22073000E-05	-1.69216000E-02	-9.07034000E-05
		 6.80095000E-04	-1.70200000E-02	 4.47233000E-03
		 3.47231000E-05	-1.20045000E-02	-6.39456000E-05
		 3.94319000E-04	-1.66090000E-02	 2.11570000E-03
		 9.71073000E-04	-1.21163000E-02	 3.82778000E-03
		-6.89507000E-04	-1.66372000E-02	-4.60826000E-03
		-6.11764000E-04	-1.69779000E-02	-4.65673000E-03
		-9.01446000E-04	-1.20839000E-02	-3.95936000E-03
		-3.28037000E-04	-1.65915000E-02	-2.28395000E-03
		 7.07183000E-05	-2.76139000E-02	-1.84774000E-04
		 2.63624000E-04	-2.76485000E-02	 4.99762000E-03
		 7.89726000E-05	-2.73787000E-02	-1.67885000E-04
		 3.36471000E-04	-2.74300000E-02	 5.00637000E-03
		 5.69014000E-05	-2.25543000E-02	-1.40903000E-04
		 1.67406000E-04	-2.76203000E-02	 2.40971000E-03
		 3.79858000E-04	-2.26234000E-02	 4.77287000E-03
		 7.46156000E-05	-2.75043000E-02	-1.78469000E-04
		 2.98571000E-04	-2.75466000E-02	 4.98350000E-03
		 5.29927000E-05	-2.21739000E-02	-1.31903000E-04
		 2.07839000E-04	-2.73974000E-02	 2.39959000E-03
		 4.67185000E-04	-2.22458000E-02	 4.79769000E-03
		-1.64054000E-04	-2.76448000E-02	-5.34876000E-03
		-2.14810000E-04	-2.73808000E-02	-5.32786000E-03
		-2.78545000E-04	-2.25969000E-02	-5.07205000E-03
		-4.22256000E-05	-2.76274000E-02	-2.77687000E-03
		-1.91001000E-04	-2.75192000E-02	-5.31769000E-03
		-3.66363000E-04	-2.22041000E-02	-5.07012000E-03
		-6.45323000E-05	-2.73751000E-02	-2.72991000E-03
		 7.46151000E-05	-2.70791000E-02	-1.51327000E-04
		 3.93642000E-04	-2.71406000E-02	 5.00796000E-03
		 7.87481000E-05	-2.72341000E-02	-1.58029000E-04
		 3.67750000E-04	-2.72916000E-02	 5.03105000E-03
		 4.85016000E-05	-2.17103000E-02	-1.12485000E-04
		 2.34998000E-04	-2.71055000E-02	 2.38230000E-03
		 5.50271000E-04	-2.17849000E-02	 4.81594000E-03
		-2.59804000E-04	-2.70667000E-02	-5.30753000E-03
		-2.35825000E-04	-2.72269000E-02	-5.34240000E-03
		-4.52645000E-04	-2.17387000E-02	-5.03654000E-03
		-9.15471000E-05	-2.70660000E-02	-2.68291000E-03
		 9.17730000E-05	-3.80973000E-02	-2.24013000E-04
		 8.19975000E-05	-3.81770000E-02	 5.13101000E-03
		 7.55480000E-05	-3.81342000E-02	-2.20176000E-04
		 6.70883000E-05	-3.81691000E-02	 5.12795000E-03
		 6.84855000E-05	-3.27946000E-02	-2.19580000E-04
		 8.02400000E-05	-3.81502000E-02	 2.46241000E-03
		 1.51977000E-04	-3.28666000E-02	 5.11040000E-03
		 8.10849000E-05	-3.81165000E-02	-2.20416000E-04
		 7.91447000E-05	-3.81723000E-02	 5.11960000E-03
		 6.38003000E-05	-3.27113000E-02	-1.94752000E-04
		 6.73760000E-05	-3.81521000E-02	 2.44703000E-03
		 1.72803000E-04	-3.27598000E-02	 5.12194000E-03
		 1.63374000E-04	-3.80194000E-02	-5.59461000E-03
		 1.31847000E-04	-3.80976000E-02	-5.59805000E-03
		 3.05902000E-05	-3.27511000E-02	-5.51741000E-03
		 1.17486000E-04	-3.80452000E-02	-2.91772000E-03
		 1.56156000E-04	-3.80646000E-02	-5.58594000E-03
		-2.29320000E-05	-3.26974000E-02	-5.49291000E-03
		 9.93144000E-05	-3.81162000E-02	-2.90056000E-03
		 7.90019000E-05	-3.81483000E-02	-2.00129000E-04
		 4.47832000E-05	-3.81853000E-02	 5.13748000E-03
		 7.56848000E-05	-3.81438000E-02	-2.11961000E-04
		 5.02479000E-05	-3.81700000E-02	 5.14997000E-03
		 6.76109000E-05	-3.25941000E-02	-1.79950000E-04
		 6.52567000E-05	-3.81659000E-02	 2.43659000E-03
		 1.92647000E-04	-3.26434000E-02	 5.10264000E-03
		 9.80409000E-05	-3.81244000E-02	-5.54516000E-03
		 1.05909000E-04	-3.81195000E-02	-5.58166000E-03
		-6.58264000E-05	-3.25800000E-02	-5.46369000E-03
		 8.97045000E-05	-3.81371000E-02	-2.84309000E-03
		 5.07994000E-06	-4.87788000E-02	-2.44405000E-04
		-9.52268000E-05	-4.87172000E-02	 5.06774000E-03
		 1.29594000E-04	-4.88556000E-02	-2.86785000E-04
		-4.24887000E-05	-4.87756000E-02	 4.98939000E-03
		 8.06298000E-05	-4.34181000E-02	-2.16280000E-04
		-5.71794000E-05	-4.87327000E-02	 2.43259000E-03
		-3.03096000E-07	-4.34484000E-02	 5.10110000E-03
		 5.65230000E-05	-4.88262000E-02	-2.81899000E-04
		-7.37982000E-05	-4.87390000E-02	 5.01520000E-03
		 1.07928000E-04	-4.35200000E-02	-2.55648000E-04
		 4.36870000E-05	-4.88020000E-02	 2.36576000E-03
		-5.59631000E-06	-4.35173000E-02	 5.05065000E-03
		 1.46155000E-04	-4.88503000E-02	-5.65509000E-03
		 2.07955000E-04	-4.89267000E-02	-5.68638000E-03
		 2.16758000E-04	-4.33860000E-02	-5.62507000E-03
		 7.86695000E-05	-4.88296000E-02	-2.93672000E-03
		 1.70863000E-04	-4.88947000E-02	-5.68899000E-03
		 1.89819000E-04	-4.35136000E-02	-5.65411000E-03
		 1.74151000E-04	-4.89077000E-02	-2.97346000E-03
		 2.26328000E-04	-4.89476000E-02	-2.11347000E-04
		-3.59289000E-05	-4.89858000E-02	 5.01461000E-03
		 1.95494000E-04	-4.88875000E-02	-2.63968000E-04
		-2.92154000E-05	-4.88537000E-02	 4.99393000E-03
		 1.32758000E-04	-4.36192000E-02	-2.09550000E-04
		 1.14300000E-04	-4.89690000E-02	 2.40559000E-03
		-3.94824000E-05	-4.36755000E-02	 5.08413000E-03
		 2.74003000E-04	-4.89105000E-02	-5.54400000E-03
		 2.49753000E-04	-4.89436000E-02	-5.62954000E-03
		 1.69645000E-04	-4.35613000E-02	-5.55166000E-03
		 2.83287000E-04	-4.89297000E-02	-2.87022000E-03
		 0.00000000E+00	 0.00000000E+00	 0.00000000E+00
		 0.00000000E+00	 0.00000000E+00	 0.00000000E+00
		-4.68296000E-05	-1.55441000E-02	-1.44794000E-05
		-3.31134000E-03	-1.69583000E-02	 1.68098000E-02
		 0.00000000E+00	 0.00000000E+00	 0.00000000E+00
		 0.00000000E+00	 0.00000000E+00	 0.00000000E+00
		-3.64989000E-05	-1.75687000E-02	-9.89243000E-05
		-9.20236000E-04	-1.90712000E-02	 1.68951000E-02
		 0.00000000E+00	 0.00000000E+00	 0.00000000E+00
		-1.62524000E-05	-2.68672000E-03	 5.15193000E-05
		-1.67988000E-03	-1.58502000E-02	 8.35511000E-03
		-2.97333000E-03	-4.26960000E-03	 8.35552000E-03
		 0.00000000E+00	 0.00000000E+00	 0.00000000E+00
		 0.00000000E+00	 0.00000000E+00	 0.00000000E+00
		-3.89496000E-05	-1.69451000E-02	-6.96407000E-05
		-2.09503000E-03	-1.84039000E-02	 1.67465000E-02
		 0.00000000E+00	 0.00000000E+00	 0.00000000E+00
		-1.88199000E-05	-4.23754000E-03	 4.22496000E-06
		-4.78936000E-04	-1.79017000E-02	 8.25332000E-03
		-4.25378000E-04	-5.80937000E-03	 8.05904000E-03
		 0.00000000E+00	 0.00000000E+00	 0.00000000E+00
		 3.16671000E-03	-1.62402000E-02	-1.69422000E-02
		 0.00000000E+00	 0.00000000E+00	 0.00000000E+00
		 8.48806000E-04	-1.83360000E-02	-1.72057000E-02
		 0.00000000E+00	 0.00000000E+00	 0.00000000E+00
		 2.91009000E-03	-3.98570000E-03	-8.26414000E-03
		 1.56748000E-03	-1.54820000E-02	-8.41882000E-03
		 0.00000000E+00	 0.00000000E+00	 0.00000000E+00
		 1.99952000E-03	-1.76696000E-02	-1.69921000E-02
		 0.00000000E+00	 0.00000000E+00	 0.00000000E+00
		 3.94274000E-04	-5.54229000E-03	-8.04624000E-03
		 4.04303000E-04	-1.75263000E-02	-8.48993000E-03
		 0.00000000E+00	 0.00000000E+00	 0.00000000E+00
		 0.00000000E+00	 0.00000000E+00	 0.00000000E+00
		-2.99720000E-05	-1.73101000E-02	-9.78591000E-05
		 1.48262000E-03	-1.87062000E-02	 1.67331000E-02
		 0.00000000E+00	 0.00000000E+00	 0.00000000E+00
		 0.00000000E+00	 0.00000000E+00	 0.00000000E+00
		-3.38204000E-05	-1.78253000E-02	-1.11050000E-04
		 2.63561000E-04	-1.92803000E-02	 1.68799000E-02
		 0.00000000E+00	 0.00000000E+00	 0.00000000E+00
		-2.81247000E-05	-3.50262000E-03	 9.71674000E-06
		 7.22235000E-04	-1.76017000E-02	 8.10071000E-03
		 2.15037000E-03	-5.03822000E-03	 8.31722000E-03
		 0.00000000E+00	 0.00000000E+00	 0.00000000E+00
		-1.49311000E-03	-1.79921000E-02	-1.70223000E-02
		 0.00000000E+00	 0.00000000E+00	 0.00000000E+00
		-3.13864000E-04	-1.85462000E-02	-1.72078000E-02
		 0.00000000E+00	 0.00000000E+00	 0.00000000E+00
		-2.16573000E-03	-4.77716000E-03	-8.30325000E-03
		-7.64461000E-04	-1.72449000E-02	-8.32523000E-03
		-5.53844000E-05	-6.57929000E-02	-1.12299000E-03
		-3.77964000E-03	-6.75607000E-02	 2.95325000E-02
		-1.83627000E-05	-6.86969000E-02	-1.27824000E-03
		-2.14357000E-03	-7.04819000E-02	 2.94775000E-02
		-5.09023000E-05	-3.70142000E-02	-3.88725000E-04
		-1.91430000E-03	-6.64913000E-02	 1.40438000E-02
		-3.59633000E-03	-3.87157000E-02	 2.40502000E-02
		-3.65681000E-05	-6.74216000E-02	-1.21635000E-03
		-2.96119000E-03	-6.91983000E-02	 2.94565000E-02
		-3.97547000E-05	-3.94994000E-02	-5.11517000E-04
		-1.07550000E-03	-6.94041000E-02	 1.38975000E-02
		-1.49797000E-03	-4.12087000E-02	 2.40317000E-02
		 3.65477000E-03	-6.55351000E-02	-3.19034000E-02
		 2.10475000E-03	-6.84555000E-02	-3.21608000E-02
		 3.45222000E-03	-3.73832000E-02	-2.49690000E-02
		 1.79628000E-03	-6.54985000E-02	-1.63186000E-02
		 2.88323000E-03	-6.71790000E-02	-3.20106000E-02
		 1.42073000E-03	-3.98651000E-02	-2.51984000E-02
		 1.04257000E-03	-6.84157000E-02	-1.64794000E-02
		 9.50000000E-06	-7.00379000E-02	-1.32185000E-03
		-4.90759000E-04	-7.17771000E-02	 2.93326000E-02
		-4.19022000E-06	-6.95420000E-02	-1.31389000E-03
		-1.31538000E-03	-7.13510000E-02	 2.95562000E-02
		-3.47178000E-05	-3.99335000E-02	-5.20703000E-04
		-2.51848000E-04	-7.07066000E-02	 1.36463000E-02
		 6.10799000E-04	-4.16081000E-02	 2.39205000E-02
		 5.55428000E-04	-6.97911000E-02	-3.20995000E-02
		 1.32825000E-03	-6.92938000E-02	-3.23144000E-02
		-6.24058000E-04	-4.03000000E-02	-2.50981000E-02
		 2.86233000E-04	-6.97586000E-02	-1.63113000E-02
		 7.82525000E-05	-1.37435000E-01	-3.48517000E-03
		-4.03866000E-03	-1.39220000E-01	 3.44854000E-02
		 1.29425000E-04	-1.41185000E-01	-3.66773000E-03
		-3.30330000E-03	-1.43083000E-01	 3.43861000E-02
		-4.65137000E-06	-9.98269000E-02	-2.17378000E-03
		-1.97784000E-03	-1.38233000E-01	 1.53771000E-02
		-3.93399000E-03	-1.01665000E-01	 3.28556000E-02
		 1.05210000E-04	-1.39398000E-01	-3.57944000E-03
		-3.67384000E-03	-1.41249000E-01	 3.43861000E-02
		 3.81604000E-05	-1.03191000E-01	-2.34929000E-03
		-1.61207000E-03	-1.42041000E-01	 1.51774000E-02
		-2.77951000E-03	-1.05044000E-01	 3.27863000E-02
		 4.15375000E-03	-1.36268000E-01	-4.15038000E-02
		 3.56158000E-03	-1.40023000E-01	-4.18020000E-02
		 3.90607000E-03	-9.90991000E-02	-3.73051000E-02
		 2.12113000E-03	-1.36780000E-01	-2.23542000E-02
		 3.85658000E-03	-1.38226000E-01	-4.16208000E-02
		 2.85810000E-03	-1.02450000E-01	-3.75855000E-02
		 1.84817000E-03	-1.40540000E-01	-2.25487000E-02
		 1.73765000E-04	-1.44280000E-01	-3.80315000E-03
		-2.68238000E-03	-1.46300000E-01	 3.41589000E-02
		 1.52161000E-04	-1.42831000E-01	-3.74306000E-03
		-2.99600000E-03	-1.44666000E-01	 3.44062000E-02
		 8.40580000E-05	-1.05455000E-01	-2.44303000E-03
		-1.21904000E-03	-1.45192000E-01	 1.48615000E-02
		-1.66868000E-03	-1.07335000E-01	 3.25877000E-02
		 2.99136000E-03	-1.43165000E-01	-4.18726000E-02
		 3.27704000E-03	-1.41657000E-01	-4.19744000E-02
		 1.81067000E-03	-1.04734000E-01	-3.75766000E-02
		 1.56870000E-03	-1.43677000E-01	-2.25262000E-02
		 4.08112000E-04	-2.17520000E-01	-6.53456000E-03
		-3.85872000E-03	-2.19038000E-01	 3.33136000E-02
		 4.47856000E-04	-2.21852000E-01	-6.67587000E-03
		-3.95443000E-03	-2.23835000E-01	 3.32167000E-02
		 1.83377000E-04	-1.77100000E-01	-4.96802000E-03
		-1.72653000E-03	-2.18279000E-01	 1.33121000E-02
		-4.03180000E-03	-1.78871000E-01	 3.44432000E-02
		 4.28629000E-04	-2.19646000E-01	-6.60184000E-03
		-3.89836000E-03	-2.21341000E-01	 3.32711000E-02
		 2.24934000E-04	-1.81207000E-01	-5.18053000E-03
		-1.62983000E-03	-2.22832000E-01	 1.31840000E-02
		-3.76432000E-03	-1.82939000E-01	 3.43892000E-02
		 4.49930000E-03	-2.15904000E-01	-4.63837000E-02
		 4.54638000E-03	-2.20068000E-01	-4.65575000E-02
		 4.36409000E-03	-1.75660000E-01	-4.44129000E-02
		 2.45623000E-03	-2.16734000E-01	-2.63795000E-02
		 4.52551000E-03	-2.17975000E-01	-4.64729000E-02
		 4.13579000E-03	-1.79716000E-01	-4.46743000E-02
		 2.48761000E-03	-2.20954000E-01	-2.65382000E-02
		 3.51412000E-04	-2.26211000E-01	-6.82413000E-03
		-3.92587000E-03	-2.28574000E-01	 3.30330000E-02
		 4.01317000E-04	-2.23987000E-01	-6.75309000E-03
		-3.93938000E-03	-2.26683000E-01	 3.31650000E-02
		 2.42097000E-04	-1.85033000E-01	-5.40237000E-03
		-1.90009000E-03	-2.27363000E-01	 1.29734000E-02
		-3.33758000E-03	-1.86667000E-01	 3.41627000E-02
		 4.62875000E-03	-2.24284000E-01	-4.66587000E-02