# vtk DataFile Version 3.0

ASCII
DATASET UNSTRUCTURED_GRID

POINTS 522 double
	 1.00000000E+00	 1.00000000E+00	-5.96046000E-08
	 1.00000000E+00	 5.00000000E-01	-5.96046000E-08
	 1.00000000E+00	 5.00000000E-01	 1.00000000E+00
	 1.00000000E+00	 1.00000000E+00	 1.00000000E+00
	 5.00000000E-01	 1.00000000E+00	-5.96046000E-08
	 5.00000000E-01	 5.00000000E-01	-5.96046000E-08
	 5.00000000E-01	 5.00000000E-01	 1.00000000E+00
	 5.00000000E-01	 1.00000000E+00	 1.00000000E+00
	 1.00000000E+00	 7.50000000E-01	-5.96046000E-08
	 1.00000000E+00	 5.00000000E-01	 5.00000000E-01
	 1.00000000E+00	 7.50000000E-01	 1.00000000E+00
	 1.00000000E+00	 1.00000000E+00	 5.00000000E-01
	 7.50000000E-01	 1.00000000E+00	-5.96046000E-08
	 7.50000000E-01	 5.00000000E-01	-5.96046000E-08
	 7.50000000E-01	 5.00000000E-01	 1.00000000E+00
	 7.50000000E-01	 1.00000000E+00	 1.00000000E+00
	 5.00000000E-01	 7.50000000E-01	-5.96046000E-08
	 5.00000000E-01	 5.00000000E-01	 5.00000000E-01
	 5.00000000E-01	 7.50000000E-01	 1.00000000E+00
	 5.00000000E-01	 1.00000000E+00	 5.00000000E-01
	 1.00000000E+00	-1.49012000E-08	-5.96046000E-08
	 1.00000000E+00	-1.49012000E-08	 1.00000000E+00
	 5.00000000E-01	-1.49012000E-08	-5.96046000E-08
	 5.00000000E-01	-1.49012000E-08	 1.00000000E+00
	 1.00000000E+00	 2.50000000E-01	-5.96046000E-08
	 1.00000000E+00	-1.49012000E-08	 5.00000000E-01
	 1.00000000E+00	 2.50000000E-01	 1.00000000E+00
	 7.50000000E-01	-1.49012000E-08	-5.96046000E-08
	 7.50000000E-01	-1.49012000E-08	 1.00000000E+00
	 5.00000000E-01	 2.50000000E-01	-5.96046000E-08
	 5.00000000E-01	-1.49012000E-08	 5.00000000E-01
	 5.00000000E-01	 2.50000000E-01	 1.00000000E+00
	-7.45058000E-09	 1.00000000E+00	-5.96046000E-08
	-7.45058000E-09	 5.00000000E-01	-5.96046000E-08
	-7.45058000E-09	 5.00000000E-01	 1.00000000E+00
	-7.45058000E-09	 1.00000000E+00	 1.00000000E+00
	 2.50000000E-01	 1.00000000E+00	-5.96046000E-08
	 2.50000000E-01	 5.00000000E-01	-5.96046000E-08
	 2.50000000E-01	 5.00000000E-01	 1.00000000E+00
	 2.50000000E-01	 1.00000000E+00	 1.00000000E+00
	-7.45058000E-09	 7.50000000E-01	-5.96046000E-08
	-7.45058000E-09	 5.00000000E-01	 5.00000000E-01
	-7.45058000E-09	 7.50000000E-01	 1.00000000E+00
	-7.45058000E-09	 1.00000000E+00	 5.00000000E-01
	-7.45058000E-09	-1.49012000E-08	-5.96046000E-08
	-7.45058000E-09	-1.49012000E-08	 1.00000000E+00
	 2.50000000E-01	-1.49012000E-08	-5.96046000E-08
	 2.50000000E-01	-1.49012000E-08	 1.00000000E+00
	-7.45058000E-09	 2.50000000E-01	-5.96046000E-08
	-7.45058000E-09	-1.49012000E-08	 5.00000000E-01
	-7.45058000E-09	 2.50000000E-01	 1.00000000E+00
	 1.00000000E+00	 5.00000000E-01	 2.00000000E+00
	 1.00000000E+00	 1.00000000E+00	 2.00000000E+00
	 5.00000000E-01	 5.00000000E-01	 2.00000000E+00
	 5.00000000E-01	 1.00000000E+00	 2.00000000E+00
	 1.00000000E+00	 5.00000000E-01	 1.50000000E+00
	 1.00000000E+00	 7.50000000E-01	 2.00000000E+00
	 1.00000000E+00	 1.00000000E+00	 1.50000000E+00
	 7.50000000E-01	 5.00000000E-01	 2.00000000E+00
	 7.50000000E-01	 1.00000000E+00	 2.00000000E+00
	 5.00000000E-01	 5.00000000E-01	 1.50000000E+00
	 5.00000000E-01	 7.50000000E-01	 2.00000000E+00
	 5.00000000E-01	 1.00000000E+00	 1.50000000E+00
	 1.00000000E+00	-1.49012000E-08	 2.00000000E+00
	 5.00000000E-01	-1.49012000E-08	 2.00000000E+00
	 1.00000000E+00	-1.49012000E-08	 1.50000000E+00
	 1.00000000E+00	 2.50000000E-01	 2.00000000E+00
	 7.50000000E-01	-1.49012000E-08	 2.00000000E+00
	 5.00000000E-01	-1.49012000E-08	 1.50000000E+00
	 5.00000000E-01	 2.50000000E-01	 2.00000000E+00
	-7.45058000E-09	 5.00000000E-01	 2.00000000E+00
	-7.45058000E-09	 1.00000000E+00	 2.00000000E+00
	 2.50000000E-01	 5.00000000E-01	 2.00000000E+00
	 2.50000000E-01	 1.00000000E+00	 2.00000000E+00
	-7.45058000E-09	 5.00000000E-01	 1.50000000E+00
	-7.45058000E-09	 7.50000000E-01	 2.00000000E+00
	-7.45058000E-09	 1.00000000E+00	 1.50000000E+00
	-7.45058000E-09	-1.49012000E-08	 2.00000000E+00
	 2.50000000E-01	-1.49012000E-08	 2.00000000E+00
	-7.45058000E-09	-1.49012000E-08	 1.50000000E+00
	-7.45058000E-09	 2.50000000E-01	 2.00000000E+00
	 1.00000000E+00	 5.00000000E-01	 3.00000000E+00
	 1.00000000E+00	 1.00000000E+00	 3.00000000E+00
	 5.00000000E-01	 5.00000000E-01	 3.00000000E+00
	 5.00000000E-01	 1.00000000E+00	 3.00000000E+00
	 1.00000000E+00	 5.00000000E-01	 2.50000000E+00
	 1.00000000E+00	 7.50000000E-01	 3.00000000E+00
	 1.00000000E+00	 1.00000000E+00	 2.50000000E+00
	 7.50000000E-01	 5.00000000E-01	 3.00000000E+00
	 7.50000000E-01	 1.00000000E+00	 3.00000000E+00
	 5.00000000E-01	 5.00000000E-01	 2.50000000E+00
	 5.00000000E-01	 7.50000000E-01	 3.00000000E+00
	 5.00000000E-01	 1.00000000E+00	 2.50000000E+00
	 1.00000000E+00	-1.49012000E-08	 3.00000000E+00
	 5.00000000E-01	-1.49012000E-08	 3.00000000E+00
	 1.00000000E+00	-1.49012000E-08	 2.50000000E+00
	 1.00000000E+00	 2.50000000E-01	 3.00000000E+00
	 7.50000000E-01	-1.49012000E-08	 3.00000000E+00
	 5.00000000E-01	-1.49012000E-08	 2.50000000E+00
	 5.00000000E-01	 2.50000000E-01	 3.00000000E+00
	-7.45058000E-09	 5.00000000E-01	 3.00000000E+00
	-7.45058000E-09	 1.00000000E+00	 3.00000000E+00
	 2.50000000E-01	 5.00000000E-01	 3.00000000E+00
	 2.50000000E-01	 1.00000000E+00	 3.00000000E+00
	-7.45058000E-09	 5.00000000E-01	 2.50000000E+00
	-7.45058000E-09	 7.50000000E-01	 3.00000000E+00
	-7.45058000E-09	 1.00000000E+00	 2.50000000E+00
	-7.45058000E-09	-1.49012000E-08	 3.00000000E+00
	 2.50000000E-01	-1.49012000E-08	 3.00000000E+00
	-7.45058000E-09	-1.49012000E-08	 2.50000000E+00
	-7.45058000E-09	 2.50000000E-01	 3.00000000E+00
	 1.00000000E+00	 5.00000000E-01	 4.00000000E+00
	 1.00000000E+00	 1.00000000E+00	 4.00000000E+00
	 5.00000000E-01	 5.00000000E-01	 4.00000000E+00
	 5.00000000E-01	 1.00000000E+00	 4.00000000E+00
	 1.00000000E+00	 5.00000000E-01	 3.50000000E+00
	 1.00000000E+00	 7.50000000E-01	 4.00000000E+00
	 1.00000000E+00	 1.00000000E+00	 3.50000000E+00
	 7.50000000E-01	 5.00000000E-01	 4.00000000E+00
	 7.50000000E-01	 1.00000000E+00	 4.00000000E+00
	 5.00000000E-01	 5.00000000E-01	 3.50000000E+00
	 5.00000000E-01	 7.50000000E-01	 4.00000000E+00
	 5.00000000E-01	 1.00000000E+00	 3.50000000E+00
	 1.00000000E+00	-1.49012000E-08	 4.00000000E+00
	 5.00000000E-01	-1.49012000E-08	 4.00000000E+00
	 1.00000000E+00	-1.49012000E-08	 3.50000000E+00
	 1.00000000E+00	 2.50000000E-01	 4.00000000E+00
	 7.50000000E-01	-1.49012000E-08	 4.00000000E+00
	 5.00000000E-01	-1.49012000E-08	 3.50000000E+00
	 5.00000000E-01	 2.50000000E-01	 4.00000000E+00
	-7.45058000E-09	 5.00000000E-01	 4.00000000E+00
	-7.45058000E-09	 1.00000000E+00	 4.00000000E+00
	 2.50000000E-01	 5.00000000E-01	 4.00000000E+00
	 2.50000000E-01	 1.00000000E+00	 4.00000000E+00
	-7.45058000E-09	 5.00000000E-01	 3.50000000E+00
	-7.45058000E-09	 7.50000000E-01	 4.00000000E+00
	-7.45058000E-09	 1.00000000E+00	 3.50000000E+00
	-7.45058000E-09	-1.49012000E-08	 4.00000000E+00
	 2.50000000E-01	-1.49012000E-08	 4.00000000E+00
	-7.45058000E-09	-1.49012000E-08	 3.50000000E+00
	-7.45058000E-09	 2.50000000E-01	 4.00000000E+00
	 1.00000000E+00	 5.00000000E-01	 5.00000000E+00
	 1.00000000E+00	 1.00000000E+00	 5.00000000E+00
	 5.00000000E-01	 5.00000000E-01	 5.00000000E+00
	 5.00000000E-01	 1.00000000E+00	 5.00000000E+00
	 1.00000000E+00	 5.00000000E-01	 4.50000000E+00
	 1.00000000E+00	 7.50000000E-01	 5.00000000E+00
	 1.00000000E+00	 1.00000000E+00	 4.50000000E+00
	 7.50000000E-01	 5.00000000E-01	 5.00000000E+00
	 7.50000000E-01	 1.00000000E+00	 5.00000000E+00
	 5.00000000E-01	 5.00000000E-01	 4.50000000E+00
	 5.00000000E-01	 7.50000000E-01	 5.00000000E+00
	 5.00000000E-01	 1.00000000E+00	 4.50000000E+00
	 1.00000000E+00	-1.49012000E-08	 5.00000000E+00
	 5.00000000E-01	-1.49012000E-08	 5.00000000E+00
	 1.00000000E+00	-1.49012000E-08	 4.50000000E+00
	 1.00000000E+00	 2.50000000E-01	 5.00000000E+00
	 7.50000000E-01	-1.49012000E-08	 5.00000000E+00
	 5.00000000E-01	-1.49012000E-08	 4.50000000E+00
	 5.00000000E-01	 2.50000000E-01	 5.00000000E+00
	-7.45058000E-09	 5.00000000E-01	 5.00000000E+00
	-7.45058000E-09	 1.00000000E+00	 5.00000000E+00
	 2.50000000E-01	 5.00000000E-01	 5.00000000E+00
	 2.50000000E-01	 1.00000000E+00	 5.00000000E+00
	-7.45058000E-09	 5.00000000E-01	 4.50000000E+00
	-7.45058000E-09	 7.50000000E-01	 5.00000000E+00
	-7.45058000E-09	 1.00000000E+00	 4.50000000E+00
	-7.45058000E-09	-1.49012000E-08	 5.00000000E+00
	 2.50000000E-01	-1.49012000E-08	 5.00000000E+00
	-7.45058000E-09	-1.49012000E-08	 4.50000000E+00
	-7.45058000E-09	 2.50000000E-01	 5.00000000E+00
	 1.00000000E+00	 5.00000000E-01	 6.00000000E+00
	 1.00000000E+00	 1.00000000E+00	 6.00000000E+00
	 5.00000000E-01	 5.00000000E-01	 6.00000000E+00
	 5.00000000E-01	 1.00000000E+00	 6.00000000E+00
	 1.00000000E+00	 5.00000000E-01	 5.50000000E+00
	 1.00000000E+00	 7.50000000E-01	 6.00000000E+00
	 1.00000000E+00	 1.00000000E+00	 5.50000000E+00
	 7.50000000E-01	 5.00000000E-01	 6.00000000E+00
	 7.50000000E-01	 1.00000000E+00	 6.00000000E+00
	 5.00000000E-01	 5.00000000E-01	 5.50000000E+00
	 5.00000000E-01	 7.50000000E-01	 6.00000000E+00
	 5.00000000E-01	 1.00000000E+00	 5.50000000E+00
	 1.00000000E+00	-1.49012000E-08	 6.00000000E+00
	 5.00000000E-01	-1.49012000E-08	 6.00000000E+00
	 1.00000000E+00	-1.49012000E-08	 5.50000000E+00
	 1.00000000E+00	 2.50000000E-01	 6.00000000E+00
	 7.50000000E-01	-1.49012000E-08	 6.00000000E+00
	 5.00000000E-01	-1.49012000E-08	 5.50000000E+00
	 5.00000000E-01	 2.50000000E-01	 6.00000000E+00
	-7.45058000E-09	 5.00000000E-01	 6.00000000E+00
	-7.45058000E-09	 1.00000000E+00	 6.00000000E+00
	 2.50000000E-01	 5.00000000E-01	 6.00000000E+00
	 2.50000000E-01	 1.00000000E+00	 6.00000000E+00
	-7.45058000E-09	 5.00000000E-01	 5.50000000E+00
	-7.45058000E-09	 7.50000000E-01	 6.00000000E+00
	-7.45058000E-09	 1.00000000E+00	 5.50000000E+00
	-7.45058000E-09	-1.49012000E-08	 6.00000000E+00
	 2.50000000E-01	-1.49012000E-08	 6.00000000E+00
	-7.45058000E-09	-1.49012000E-08	 5.50000000E+00
	-7.45058000E-09	 2.50000000E-01	 6.00000000E+00
	 1.00000000E+00	 5.00000000E-01	 7.00000000E+00
[...]
POINT_DATA 522
FIELD U 1
	U 3 522 double
		 0.00000000E+00	 0.00000000E+00	 0.00000000E+00
		 0.00000000E+00	 0.00000000E+00	 0.00000000E+00
		 1.35720000E-05	 4.53552000E-04	-4.54610000E-05
		 1.60280000E-03	 5.37237000E-04	-1.59730000E-03
		 0.00000000E+00	 0.00000000E+00	 0.00000000E+00
		 0.00000000E+00	 0.00000000E+00	 0.00000000E+00
		 9.63258000E-06	 1.96418000E-03	-4.68230000E-05
		 1.43072000E-03	 2.04630000E-03	-1.61677000E-03
		 0.00000000E+00	 0.00000000E+00	 0.00000000E+00
		 1.04732000E-05	-2.10153000E-04	-2.30521000E-05
		 8.12152000E-04	 4.63912000E-04	-9.26302000E-04
		 9.29363000E-04	-4.66104000E-05	-8.52295000E-04
		 0.00000000E+00	 0.00000000E+00	 0.00000000E+00
		 0.00000000E+00	 0.00000000E+00	 0.00000000E+00
		 1.17505000E-05	 1.24129000E-03	-4.58710000E-05
		 1.51492000E-03	 1.31941000E-03	-1.48136000E-03
		 0.00000000E+00	 0.00000000E+00	 0.00000000E+00
		 3.97409000E-06	 6.03627000E-04	-2.08327000E-05
		 7.18813000E-04	 1.97238000E-03	-8.09627000E-04
		 7.14925000E-04	 7.41938000E-04	-8.31680000E-04
		 0.00000000E+00	 0.00000000E+00	 0.00000000E+00
		-1.57604000E-03	 5.37365000E-04	 1.50725000E-03
		 0.00000000E+00	 0.00000000E+00	 0.00000000E+00
		-1.40993000E-03	 2.04446000E-03	 1.52399000E-03
		 0.00000000E+00	 0.00000000E+00	 0.00000000E+00
		-9.08889000E-04	-5.68837000E-05	 8.03906000E-04
		-7.85168000E-04	 4.64607000E-04	 8.35592000E-04
		 0.00000000E+00	 0.00000000E+00	 0.00000000E+00
		-1.49082000E-03	 1.31837000E-03	 1.39089000E-03
		 0.00000000E+00	 0.00000000E+00	 0.00000000E+00
		-7.06476000E-04	 7.31746000E-04	 7.87989000E-04
		-6.98974000E-04	 1.97160000E-03	 7.16452000E-04
		 0.00000000E+00	 0.00000000E+00	 0.00000000E+00
		 0.00000000E+00	 0.00000000E+00	 0.00000000E+00
		 4.51554000E-06	 3.29389000E-03	-4.74146000E-05
		 1.24510000E-03	 3.36779000E-03	-1.59899000E-03
		 0.00000000E+00	 0.00000000E+00	 0.00000000E+00
		 0.00000000E+00	 0.00000000E+00	 0.00000000E+00
		 7.10526000E-06	 2.65866000E-03	-4.73205000E-05
		 1.33852000E-03	 2.73867000E-03	-1.73700000E-03
		 0.00000000E+00	 0.00000000E+00	 0.00000000E+00
		-2.41758000E-06	 1.21128000E-03	-2.04197000E-05
		 6.25482000E-04	 3.29875000E-03	-6.73933000E-04
		 4.46819000E-04	 1.32144000E-03	-8.49354000E-04
		 0.00000000E+00	 0.00000000E+00	 0.00000000E+00
		-1.23295000E-03	 3.36277000E-03	 1.50509000E-03
		 0.00000000E+00	 0.00000000E+00	 0.00000000E+00
		-1.32198000E-03	 2.73632000E-03	 1.64270000E-03
		 0.00000000E+00	 0.00000000E+00	 0.00000000E+00
		-4.50602000E-04	 1.31051000E-03	 8.06469000E-04
		-6.15184000E-04	 3.29520000E-03	 5.80012000E-04
		 1.56002000E-05	 3.48912000E-03	-8.24843000E-05
		 2.85551000E-03	 3.57598000E-03	-2.90711000E-03
		 1.66924000E-05	 6.20278000E-03	-9.59900000E-05
		 2.62013000E-03	 6.30433000E-03	-2.91179000E-03
		 1.54471000E-05	 1.65226000E-03	-6.41865000E-05
		 1.43256000E-03	 3.50534000E-03	-1.58523000E-03
		 2.28530000E-03	 1.74309000E-03	-2.22619000E-03
		 1.67378000E-05	 4.87046000E-03	-8.90604000E-05
		 2.73943000E-03	 4.96961000E-03	-2.84050000E-03
		 1.36798000E-05	 3.81972000E-03	-7.05137000E-05
		 1.31989000E-03	 6.22790000E-03	-1.52784000E-03
		 2.08682000E-03	 3.92076000E-03	-2.22819000E-03
		-2.82338000E-03	 3.60149000E-03	 2.74115000E-03
		-2.58389000E-03	 6.32530000E-03	 2.71839000E-03
		-2.25418000E-03	 1.75419000E-03	 2.09773000E-03
		-1.40136000E-03	 3.51947000E-03	 1.41968000E-03
		-2.70415000E-03	 4.99231000E-03	 2.66158000E-03
		-2.05736000E-03	 3.92939000E-03	 2.08707000E-03
		-1.28583000E-03	 6.23925000E-03	 1.33544000E-03
		 1.50622000E-05	 8.69247000E-03	-1.07949000E-04
		 2.40384000E-03	 8.80651000E-03	-2.93337000E-03
		 1.59600000E-05	 7.47531000E-03	-1.02513000E-04
		 2.51296000E-03	 7.57773000E-03	-2.97745000E-03
		 1.01349000E-05	 5.79572000E-03	-7.66317000E-05
		 1.20568000E-03	 8.72482000E-03	-1.48814000E-03
		 1.91341000E-03	 5.91702000E-03	-2.23860000E-03
		-2.36914000E-03	 8.82104000E-03	 2.71588000E-03
		-2.47719000E-03	 7.59654000E-03	 2.77070000E-03
		-1.88926000E-03	 5.92066000E-03	 2.08532000E-03
		-1.17432000E-03	 8.73201000E-03	 1.27199000E-03
		 1.15753000E-05	 1.01155000E-02	-1.23124000E-04
		 3.50360000E-03	 1.02023000E-02	-4.68251000E-03
		 1.99726000E-05	 1.34643000E-02	-1.60569000E-04
		 3.24515000E-03	 1.35676000E-02	-4.72691000E-03
		 1.55157000E-05	 6.22876000E-03	-1.01248000E-04
		 1.75430000E-03	 1.01236000E-02	-2.40916000E-03
		 3.27596000E-03	 6.31798000E-03	-3.76819000E-03
		 1.64120000E-05	 1.18233000E-02	-1.42269000E-04
		 3.37541000E-03	 1.19213000E-02	-4.68535000E-03
		 2.02369000E-05	 9.34255000E-03	-1.25314000E-04
		 1.63223000E-03	 1.34804000E-02	-2.42916000E-03
		 3.00705000E-03	 9.44836000E-03	-3.78894000E-03
		-3.47520000E-03	 1.02658000E-02	 4.43311000E-03
		-3.20026000E-03	 1.36197000E-02	 4.40250000E-03
		-3.24156000E-03	 6.36183000E-03	 3.56357000E-03
		-1.73007000E-03	 1.01554000E-02	 2.16202000E-03
		-3.33727000E-03	 1.19786000E-02	 4.39765000E-03
		-2.96249000E-03	 9.48368000E-03	 3.53550000E-03
		-1.59121000E-03	 1.35061000E-02	 2.10717000E-03
		 2.29139000E-05	 1.65607000E-02	-1.93676000E-04
		 2.99502000E-03	 1.66719000E-02	-4.75391000E-03
		 2.22965000E-05	 1.50468000E-02	-1.77773000E-04
		 3.12089000E-03	 1.51540000E-02	-4.77071000E-03
		 2.07480000E-05	 1.21979000E-02	-1.45839000E-04
		 1.50907000E-03	 1.65819000E-02	-2.43095000E-03
		 2.75153000E-03	 1.23132000E-02	-3.81432000E-03
		-2.94425000E-03	 1.67141000E-02	 4.36343000E-03
		-3.07165000E-03	 1.52016000E-02	 4.41202000E-03
		-2.70516000E-03	 1.23399000E-02	 3.51922000E-03
		-1.46204000E-03	 1.66021000E-02	 2.04272000E-03
		-1.60196000E-05	 2.08723000E-02	-1.93118000E-04
		 3.49486000E-03	 2.09093000E-02	-6.14327000E-03
		-5.88245000E-06	 2.43007000E-02	-2.47845000E-04
		 3.33850000E-03	 2.43403000E-02	-6.20099000E-03
		 9.06800000E-08	 1.51065000E-02	-1.52906000E-04
		 1.73999000E-03	 2.08731000E-02	-3.14969000E-03
		 3.54974000E-03	 1.51667000E-02	-5.48013000E-03
		-1.09927000E-05	 2.26048000E-02	-2.21196000E-04
		 3.41683000E-03	 2.26431000E-02	-6.18286000E-03
		 9.85262000E-06	 1.85438000E-02	-2.02106000E-04
		 1.66676000E-03	 2.43038000E-02	-3.21525000E-03
		 3.34485000E-03	 1.86145000E-02	-5.54101000E-03
		-3.52427000E-03	 2.09988000E-02	 5.75555000E-03
		-3.34921000E-03	 2.44253000E-02	 5.70427000E-03
		-3.54518000E-03	 1.52444000E-02	 5.17127000E-03
		-1.77131000E-03	 2.09170000E-02	 2.76327000E-03
		-3.43668000E-03	 2.27304000E-02	 5.73888000E-03
		-3.32187000E-03	 1.86836000E-02	 5.13458000E-03
		-1.67829000E-03	 2.43456000E-02	 2.71920000E-03
		 2.07572000E-06	 2.75593000E-02	-2.99728000E-04
		 3.19023000E-03	 2.76092000E-02	-6.24939000E-03
		-1.40699000E-06	 2.59497000E-02	-2.73770000E-04
		 3.26526000E-03	 2.59911000E-02	-6.22155000E-03
		 1.57179000E-05	 2.17731000E-02	-2.47580000E-04
		 1.59304000E-03	 2.75669000E-02	-3.26985000E-03
		 3.14978000E-03	 2.18542000E-02	-5.57436000E-03
		-3.18653000E-03	 2.76934000E-02	 5.64914000E-03
		-3.26818000E-03	 2.60752000E-02	 5.67350000E-03
		-3.11577000E-03	 2.19172000E-02	 5.07788000E-03
		-1.58893000E-03	 2.76088000E-02	 2.66978000E-03
		-3.87927000E-05	 3.38620000E-02	-2.90268000E-04
		 3.35007000E-03	 3.39225000E-02	-7.46100000E-03
		-2.87651000E-05	 3.71277000E-02	-3.48844000E-04
		 3.11758000E-03	 3.71909000E-02	-7.50520000E-03
		-2.88686000E-05	 2.71134000E-02	-2.40418000E-04
		 1.65584000E-03	 3.38620000E-02	-3.89621000E-03
		 3.42311000E-03	 2.71619000E-02	-6.73949000E-03
		-3.34735000E-05	 3.55255000E-02	-3.19457000E-04
		 3.23413000E-03	 3.55864000E-02	-7.49379000E-03
		-1.85720000E-05	 3.04752000E-02	-2.95880000E-04
		 1.54396000E-03	 3.71289000E-02	-3.96082000E-03
		 3.25229000E-03	 3.05247000E-02	-6.78551000E-03
		-3.42330000E-03	 3.40481000E-02	 6.87824000E-03
		-3.17198000E-03	 3.73075000E-02	 6.80457000E-03
		-3.47834000E-03	 2.72655000E-02	 6.25772000E-03
		-1.73236000E-03	 3.39254000E-02	 3.31481000E-03
		-3.29706000E-03	 3.57076000E-02	 6.85268000E-03
		-3.28819000E-03	 3.06235000E-02	 6.19230000E-03
		-1.60080000E-03	 3.71880000E-02	 3.26237000E-03
		-2.28721000E-05	 4.01497000E-02	-4.04888000E-04
		 2.87864000E-03	 4.02144000E-02	-7.57666000E-03
		-2.50855000E-05	 3.86685000E-02	-3.77494000E-04
		 2.99859000E-03	 3.87336000E-02	-7.50859000E-03
		-1.10650000E-05	 3.36525000E-02	-3.48917000E-04
		 1.42788000E-03	 4.01508000E-02	-4.05512000E-03
		 3.08560000E-03	 3.37106000E-02	-6.84841000E-03
		-2.92218000E-03	 4.03258000E-02	 6.76310000E-03
		-3.04652000E-03	 3.88462000E-02	 6.74988000E-03
		-3.10782000E-03	 3.38083000E-02	 6.14832000E-03
		-1.47303000E-03	 4.02086000E-02	 3.24464000E-03
		-7.24337000E-05	 5.00104000E-02	-4.21263000E-04
		 3.30009000E-03	 5.00786000E-02	-9.65745000E-03
		-6.41869000E-05	 5.32052000E-02	-5.00891000E-04
		 2.97053000E-03	 5.32821000E-02	-9.74143000E-03
		-5.21329000E-05	 4.13884000E-02	-3.46565000E-04
		 1.61101000E-03	 4.99990000E-02	-5.03538000E-03
		 3.30165000E-03	 4.14597000E-02	-8.47888000E-03
		-6.77502000E-05	 5.16523000E-02	-4.62430000E-04
		 3.13597000E-03	 5.17260000E-02	-9.69558000E-03
		-4.36091000E-05	 4.45833000E-02	-4.14503000E-04
		 1.45187000E-03	 5.31971000E-02	-5.11157000E-03
		 3.00130000E-03	 4.46589000E-02	-8.53595000E-03
		-3.43840000E-03	 5.02723000E-02	 8.80779000E-03
		-3.09354000E-03	 5.34638000E-02	 8.73248000E-03
		-3.39974000E-03	 4.16159000E-02	 7.78091000E-03
		-1.75448000E-03	 5.00959000E-02	 4.19126000E-03
		-3.26493000E-03	 5.19130000E-02	 8.76359000E-03
		-3.08370000E-03	 4.48030000E-02	 7.70189000E-03
		-1.57891000E-03	 5.32874000E-02	 4.10817000E-03
		-6.03574000E-05	 5.60731000E-02	-5.73311000E-04
		 2.62766000E-03	 5.61424000E-02	-9.80998000E-03
		-6.16138000E-05	 5.46824000E-02	-5.37608000E-04
		 2.79908000E-03	 5.47599000E-02	-9.78591000E-03
		-3.97258000E-05	 4.74714000E-02	-4.78217000E-04
		 1.28738000E-03	 5.60619000E-02	-5.17297000E-03
		 2.68319000E-03	 4.75394000E-02	-8.61144000E-03
		-2.74435000E-03	 5.63157000E-02	 8.65672000E-03
		-2.91805000E-03	 5.49374000E-02	 8.70371000E-03
		-2.75890000E-03	 4.76752000E-02	 7.64999000E-03
		-1.40711000E-03	 5.61480000E-02	 4.02476000E-03
		-1.18348000E-04	 7.07795000E-02	-6.43144000E-04
		 3.30906000E-03	 7.07318000E-02	-1.16984000E-02
		-1.06491000E-04	 7.41189000E-02	-7.39955000E-04
		 3.14806000E-03	 7.40750000E-02	-1.18165000E-02
		-9.54129000E-05	 5.98878000E-02	-5.21687000E-04
		 1.59449000E-03	 7.07352000E-02	-6.13241000E-03
		 3.30217000E-03	 5.98996000E-02	-1.07953000E-02
		-1.12665000E-04	 7.24702000E-02	-6.92286000E-04
		 3.22861000E-03	 7.24252000E-02	-1.17508000E-02
		-8.55290000E-05	 6.31422000E-02	-6.11083000E-04
		 1.52000000E-03	 7.40774000E-02	-6.22890000E-03
		 3.03610000E-03	 6.31604000E-02	-1.09042000E-02
		-3.54011000E-03	 7.09990000E-02	 1.04091000E-02
		-3.35648000E-03	 7.43342000E-02	 1.03337000E-02
		-3.48646000E-03	 6.01330000E-02	 9.74566000E-03
		-1.82960000E-03	 7.08668000E-02	 4.84568000E-03
		-3.44848000E-03	 7.26877000E-02	 1.03632000E-02
		-3.20219000E-03	 6.33835000E-02	 9.67567000E-03
		-1.73157000E-03	 7.42040000E-02	 4.74840000E-03
		-9.71094000E-05	 7.72831000E-02	-8.32705000E-04
		 2.98619000E-03	 7.72442000E-02	-1.18845000E-02
		-1.01017000E-04	 7.57231000E-02	-7.86948000E-04
		 3.06761000E-03	 7.56804000E-02	-1.18874000E-02
		-7.92086000E-05	 6.61255000E-02	-6.92597000E-04
		 1.44348000E-03	 7.72449000E-02	-6.27522000E-03
		 2.75955000E-03	 6.61393000E-02	-1.09659000E-02
		-3.17752000E-03	 7.74967000E-02	 1.02163000E-02
		-3.26604000E-03	 7.59377000E-02	 1.03104000E-02
		-2.91515000E-03	 6.63551000E-02	 9.57476000E-03
		-1.63685000E-03	 7.73666000E-02	 4.60948000E-03
		-1.64685000E-04	 9.38478000E-02	-9.12180000E-04
		 3.25761000E-03	 9.37136000E-02	-1.24041000E-02
		-1.56931000E-04	 9.72719000E-02	-1.01495000E-03
		 3.26262000E-03	 9.71359000E-02	-1.25180000E-02
		-1.41570000E-04	 8.22589000E-02	-7.77100000E-04
		 1.54757000E-03	 9.37840000E-02	-6.64735000E-03
		 3.29941000E-03	 8.21550000E-02	-1.21846000E-02
		-1.60370000E-04	 9.55593000E-02	-9.63102000E-04
		 3.26234000E-03	 9.54235000E-02	-1.24638000E-02
		-1.30329000E-04	 8.56633000E-02	-8.78037000E-04
		 1.55461000E-03	 9.72082000E-02	-6.75657000E-03
		 3.23985000E-03	 8.55607000E-02	-1.23008000E-02
		-3.58729000E-03	 9.40063000E-02	 1.05845000E-02
		-3.57358000E-03	 9.74304000E-02	 1.04943000E-02
		-3.58036000E-03	 8.24386000E-02	 1.06326000E-02
		-1.87665000E-03	 9.39305000E-02	 4.82420000E-03
		-3.58208000E-03	 9.57178000E-02	 1.05427000E-02
		-3.49698000E-03	 8.58413000E-02	 1.05474000E-02
		-1.86724000E-03	 9.73555000E-02	 4.72801000E-03
		-1.49449000E-04	 1.00667000E-01	-1.12342000E-03
		 3.28215000E-03	 1.00547000E-01	-1.26000000E-02
		-1.53727000E-04	 9.89670000E-02	-1.06820000E-03
		 3.27048000E-03	 9.88363000E-02	-1.25665000E-02
		-1.19902000E-04	 8.89937000E-02	-9.81705000E-04
		 1.56544000E-03	 1.00611000E-01	-6.84344000E-03
		 3.18894000E-03	 8.89011000E-02	-1.23791000E-02
		-3.57516000E-03	 1.00834000E-01	 1.03598000E-02
		-3.57301000E-03	 9.91289000E-02	 1.04367000E-02
		-3.42404000E-03	 8.91741000E-02	 1.04185000E-02
		-1.86279000E-03	 1.00754000E-01	 4.59807000E-03
		 0.00000000E+00	 0.00000000E+00	 0.00000000E+00
		 0.00000000E+00	 0.00000000E+00	 0.00000000E+00
		-6.16328000E-05	-3.01009000E-03	 2.04893000E-04
		-2.63671000E-03	-3.23880000E-03	 4.16788000E-03
		 0.00000000E+00	 0.00000000E+00	 0.00000000E+00
		 0.00000000E+00	 0.00000000E+00	 0.00000000E+00
		-2.51013000E-05	-5.39799000E-03	 1.54222000E-04
		-2.21181000E-03	-5.63057000E-03	 4.18636000E-03
		 0.00000000E+00	 0.00000000E+00	 0.00000000E+00
		-3.45429000E-05	-3.39379000E-04	 9.56919000E-05
		-1.35441000E-03	-3.04681000E-03	 2.27726000E-03
		-1.68006000E-03	-7.49161000E-04	 2.27793000E-03
		 0.00000000E+00	 0.00000000E+00	 0.00000000E+00
		 0.00000000E+00	 0.00000000E+00	 0.00000000E+00
		-4.17481000E-05	-4.28145000E-03	 1.78635000E-04
		-2.41829000E-03	-4.50545000E-03	 3.99257000E-03
		 0.00000000E+00	 0.00000000E+00	 0.00000000E+00
		-3.85932000E-06	-1.68340000E-03	 6.88197000E-05
		-1.11867000E-03	-5.43135000E-03	 2.07078000E-03
		-1.08603000E-03	-2.05478000E-03	 2.21025000E-03
		 0.00000000E+00	 0.00000000E+00	 0.00000000E+00
		 2.51836000E-03	-3.12548000E-03	-3.76427000E-03
		 0.00000000E+00	 0.00000000E+00	 0.00000000E+00
		 2.16847000E-03	-5.52518000E-03	-3.88303000E-03
		 0.00000000E+00	 0.00000000E+00	 0.00000000E+00
		 1.61487000E-03	-6.65385000E-04	-2.07952000E-03
		 1.23250000E-03	-2.98880000E-03	-1.87138000E-03
		 0.00000000E+00	 0.00000000E+00	 0.00000000E+00
		 2.34011000E-03	-4.39678000E-03	-3.64011000E-03
		 0.00000000E+00	 0.00000000E+00	 0.00000000E+00
		 1.08459000E-03	-1.98377000E-03	-2.06457000E-03
		 1.06858000E-03	-5.37941000E-03	-1.76583000E-03
		 0.00000000E+00	 0.00000000E+00	 0.00000000E+00
		 0.00000000E+00	 0.00000000E+00	 0.00000000E+00
		 4.09638000E-06	-7.38806000E-03	 1.06658000E-04
		-1.77589000E-03	-7.58762000E-03	 4.07260000E-03
		 0.00000000E+00	 0.00000000E+00	 0.00000000E+00
		 0.00000000E+00	 0.00000000E+00	 0.00000000E+00
		-9.32855000E-06	-6.46674000E-03	 1.28770000E-04
		-1.99532000E-03	-6.68279000E-03	 4.33939000E-03
		 0.00000000E+00	 0.00000000E+00	 0.00000000E+00
		 1.93046000E-05	-2.50887000E-03	 5.52821000E-05
		-8.88357000E-04	-7.40596000E-03	 1.78381000E-03
		-4.18651000E-04	-2.82428000E-03	 2.23761000E-03
		 0.00000000E+00	 0.00000000E+00	 0.00000000E+00
		 1.78879000E-03	-7.49660000E-03	-3.86159000E-03
		 0.00000000E+00	 0.00000000E+00	 0.00000000E+00
		 1.98191000E-03	-6.58727000E-03	-4.08663000E-03
		 0.00000000E+00	 0.00000000E+00	 0.00000000E+00
		 4.62368000E-04	-2.76505000E-03	-2.12019000E-03
		 8.97979000E-04	-7.36472000E-03	-1.57204000E-03
		-1.70091000E-04	-1.20128000E-02	 4.01947000E-04
		-4.54108000E-03	-1.21820000E-02	 6.32667000E-03
		-1.18004000E-04	-1.62743000E-02	 2.93266000E-04
		-4.28641000E-03	-1.64491000E-02	 6.23824000E-03
		-1.07591000E-04	-7.00515000E-03	 3.06961000E-04
		-2.35401000E-03	-1.20807000E-02	 3.43868000E-03
		-3.65276000E-03	-7.23430000E-03	 5.44208000E-03
		-1.43609000E-04	-1.41594000E-02	 3.45153000E-04
		-4.41351000E-03	-1.43330000E-02	 6.17527000E-03
		-6.49303000E-05	-1.03986000E-02	 2.25320000E-04
		-2.19920000E-03	-1.63441000E-02	 3.23723000E-03
		-3.30904000E-03	-1.06301000E-02	 5.38717000E-03
		 4.20696000E-03	-1.19978000E-02	-5.52642000E-03
		 4.05032000E-03	-1.62818000E-02	-5.65359000E-03
		 3.44117000E-03	-7.08312000E-03	-4.83265000E-03
		 2.01464000E-03	-1.19858000E-02	-2.63628000E-03
		 4.13152000E-03	-1.41640000E-02	-5.48559000E-03
		 3.18488000E-03	-1.04926000E-02	-4.94053000E-03
		 1.96769000E-03	-1.62605000E-02	-2.64842000E-03
		-7.62365000E-05	-2.03477000E-02	 1.89428000E-04
		-4.04144000E-03	-2.05095000E-02	 6.11347000E-03
		-9.67969000E-05	-1.83274000E-02	 2.43113000E-04
		-4.16371000E-03	-1.85243000E-02	 6.29744000E-03
		-2.93568000E-05	-1.34993000E-02	 1.47681000E-04
		-2.06283000E-03	-2.04078000E-02	 3.00361000E-03
		-2.99792000E-03	-1.37382000E-02	 5.28377000E-03
		 3.91871000E-03	-2.03711000E-02	-5.73718000E-03
		 3.98587000E-03	-1.83402000E-02	-5.81610000E-03
		 2.95657000E-03	-1.36221000E-02	-4.98985000E-03
		 1.91832000E-03	-2.03414000E-02	-2.62137000E-03
		-2.99812000E-04	-2.42736000E-02	 5.49479000E-04
		-5.79768000E-03	-2.43009000E-02	 7.09935000E-03
		-2.33709000E-04	-2.97380000E-02	 4.30812000E-04
		-5.73585000E-03	-2.98865000E-02	 7.01237000E-03
		-2.36251000E-04	-1.78322000E-02	 4.84455000E-04
		-3.04110000E-03	-2.42875000E-02	 3.80754000E-03
		-5.27239000E-03	-1.79552000E-02	 6.90874000E-03
		-2.65744000E-04	-2.70053000E-02	 4.93144000E-04
		-5.77036000E-03	-2.71096000E-02	 6.99578000E-03
		-1.77609000E-04	-2.27958000E-02	 3.61019000E-04
		-3.00937000E-03	-2.98175000E-02	 3.63120000E-03
		-5.09723000E-03	-2.29405000E-02	 6.81385000E-03
		 5.15855000E-03	-2.41388000E-02	-5.98602000E-03
		 5.26356000E-03	-2.96294000E-02	-6.16958000E-03
		 4.79482000E-03	-1.77577000E-02	-5.94108000E-03
		 2.42814000E-03	-2.42096000E-02	-2.69704000E-03
		 5.20961000E-03	-2.68800000E-02	-6.02407000E-03
		 4.74569000E-03	-2.27339000E-02	-6.09410000E-03
		 2.51700000E-03	-2.96919000E-02	-2.78978000E-03
		-1.74330000E-04	-3.52556000E-02	 3.08888000E-04
		-5.79199000E-03	-3.55308000E-02	 6.85784000E-03
		-2.03109000E-04	-3.25077000E-02	 3.68418000E-04
		-5.76631000E-03	-3.25896000E-02	 7.04393000E-03
		-1.16005000E-04	-2.76668000E-02	 2.40998000E-04
		-2.95199000E-03	-3.54037000E-02	 3.38254000E-03
		-4.97458000E-03	-2.78407000E-02	 6.66922000E-03
		 5.39735000E-03	-3.51797000E-02	-6.28429000E-03
		 5.33086000E-03	-3.23952000E-02	-6.32517000E-03
		 4.70625000E-03	-2.76102000E-02	-6.19140000E-03
		 2.60393000E-03	-3.52353000E-02	-2.80995000E-03
		-3.34913000E-04	-3.65663000E-02	 6.36831000E-04
		-6.17448000E-03	-3.63577000E-02	 5.65687000E-03
		-2.76807000E-04	-4.26409000E-02	 5.79451000E-04
		-6.60835000E-03	-4.28983000E-02	 5.60696000E-03
		-3.65273000E-04	-3.07845000E-02	 5.99105000E-04
		-3.25575000E-03	-3.65124000E-02	 3.12703000E-03
		-6.08734000E-03	-3.07851000E-02	 6.61637000E-03
		-3.06428000E-04	-3.95190000E-02	 6.09469000E-04
		-6.38302000E-03	-3.94885000E-02	 5.63805000E-03
		-3.06684000E-04	-3.66532000E-02	 4.59326000E-04
		-3.31826000E-03	-4.28071000E-02	 3.07617000E-03
		-6.30437000E-03	-3.66100000E-02	 6.59129000E-03
		 5.32718000E-03	-3.63191000E-02	-4.38298000E-03
		 5.74464000E-03	-4.22294000E-02	-4.44619000E-03
		 5.32536000E-03	-3.05833000E-02	-5.41583000E-03
		 2.49841000E-03	-3.65001000E-02	-1.85281000E-03
		 5.53813000E-03	-3.92184000E-02	-4.41873000E-03
		 5.61608000E-03	-3.64111000E-02	-5.56640000E-03
		 2.72389000E-03	-4.24666000E-02	-1.91742000E-03
		-3.50089000E-04	-4.91041000E-02	 5.13651000E-04
		-6.91716000E-03	-4.97515000E-02	 5.53518000E-03
		-3.12270000E-04	-4.57860000E-02	 5.47173000E-04
		-6.76226000E-03	-4.67529000E-02	 5.57747000E-03
		-2.68709000E-04	-4.27576000E-02	 2.86749000E-04
		-3.74256000E-03	-4.94517000E-02	 3.00208000E-03
		-6.38074000E-03	-4.26190000E-02	 6.43973000E-03
		 6.20055000E-03	-4.85394000E-02	-4.50425000E-03