<?xml version="1.0"?>
<VTKFile type="UnstructuredGrid" version="0.1" byte_order="LittleEndian">
	<UnstructuredGrid>
		<Piece NumberOfPoints="522" NumberOfCells="64">
			<Points>
				<DataArray type="Float64" NumberOfComponents="3" format="ascii">
					 1.00000000E+00	 1.00000000E+00	-5.96046000E-08
					 1.00000000E+00	 5.00000000E-01	-5.96046000E-08
					 1.00000000E+00	 5.00000000E-01	 1.00000000E+00
					 1.00000000E+00	 1.00000000E+00	 1.00000000E+00
					 5.00000000E-01	 1.00000000E+00	-5.96046000E-08
					 5.00000000E-01	 5.00000000E-01	-5.96046000E-08
					 5.00000000E-01	 5.00000000E-01	 1.00000000E+00
					 5.00000000E-01	 1.00000000E+00	 1.00000000E+00
					 1.00000000E+00	 7.50000000E-01	-5.96046000E-08
					 1.00000000E+00	 5.00000000E-01	 5.00000000E-01
					 1.00000000E+00	 7.50000000E-01	 1.00000000E+00
					 1.00000000E+00	 1.00000000E+00	 5.00000000E-01
					 7.50000000E-01	 1.00000000E+00	-5.96046000E-08
					 7.50000000E-01	 5.00000000E-01	-5.96046000E-08
					 7.50000000E-01	 5.00000000E-01	 1.00000000E+00
					 7.50000000E-01	 1.00000000E+00	 1.00000000E+00
					 5.00000000E-01	 7.50000000E-01	-5.96046000E-08
					 5.00000000E-01	 5.00000000E-01	 5.00000000E-01
					 5.00000000E-01	 7.50000000E-01	 1.00000000E+00
					 5.00000000E-01	 1.00000000E+00	 5.00000000E-01
					 1.00000000E+00	-1.49012000E-08	-5.96046000E-08
					 1.00000000E+00	-1.49012000E-08	 1.00000000E+00
					 5.00000000E-01	-1.49012000E-08	-5.96046000E-08
					 5.00000000E-01	-1.49012000E-08	 1.00000000E+00
					 1.00000000E+00	 2.50000000E-01	-5.96046000E-08
					 1.00000000E+00	-1.49012000E-08	 5.00000000E-01
					 1.00000000E+00	 2.50000000E-01	 1.00000000E+00
					 7.50000000E-01	-1.49012000E-08	-5.96046000E-08
					 7.50000000E-01	-1.49012000E-08	 1.00000000E+00
					 5.00000000E-01	 2.50000000E-01	-5.96046000E-08
					 5.00000000E-01	-1.49012000E-08	 5.00000000E-01
					 5.00000000E-01	 2.50000000E-01	 1.00000000E+00
					-7.45058000E-09	 1.00000000E+00	-5.96046000E-08
					-7.45058000E-09	 5.00000000E-01	-5.96046000E-08
					-7.45058000E-09	 5.00000000E-01	 1.00000000E+00
					-7.45058000E-09	 1.00000000E+00	 1.00000000E+00
					 2.50000000E-01	 1.00000000E+00	-5.96046000E-08
					 2.50000000E-01	 5.00000000E-01	-5.96046000E-08
					 2.50000000E-01	 5.00000000E-01	 1.00000000E+00
					 2.50000000E-01	 1.00000000E+00	 1.00000000E+00
					-7.45058000E-09	 7.50000000E-01	-5.96046000E-08
					-7.45058000E-09	 5.00000000E-01	 5.00000000E-01
					-7.45058000E-09	 7.50000000E-01	 1.00000000E+00
					-7.45058000E-09	 1.00000000E+00	 5.00000000E-01
					-7.45058000E-09	-1.49012000E-08	-5.96046000E-08
					-7.45058000E-09	-1.49012000E-08	 1.00000000E+00
					 2.50000000E-01	-1.49012000E-08	-5.96046000E-08
					 2.50000000E-01	-1.49012000E-08	 1.00000000E+00
					-7.45058000E-09	 2.50000000E-01	-5.96046000E-08
					-7.45058000E-09	-1.49012000E-08	 5.00000000E-01
					-7.45058000E-09	 2.50000000E-01	 1.00000000E+00
					 1.00000000E+00	 5.00000000E-01	 2.00000000E+00
					 1.00000000E+00	 1.00000000E+00	 2.00000000E+00
					 5.00000000E-01	 5.00000000E-01	 2.00000000E+00
					 5.00000000E-01	 1.00000000E+00	 2.00000000E+00
					 1.00000000E+00	 5.00000000E-01	 1.50000000E+00
					 1.00000000E+00	 7.50000000E-01	 2.00000000E+00
					 1.00000000E+00	 1.00000000E+00	 1.50000000E+00
					 7.50000000E-01	 5.00000000E-01	 2.00000000E+00
					 7.50000000E-01	 1.00000000E+00	 2.00000000E+00
					 5.00000000E-01	 5.00000000E-01	 1.50000000E+00
					 5.00000000E-01	 7.50000000E-01	 2.00000000E+00
					 5.00000000E-01	 1.00000000E+00	 1.50000000E+00
					 1.00000000E+00	-1.49012000E-08	 2.00000000E+00
					 5.00000000E-01	-1.49012000E-08	 2.00000000E+00
					 1.00000000E+00	-1.49012000E-08	 1.50000000E+00
					 1.00000000E+00	 2.50000000E-01	 2.00000000E+00
					 7.50000000E-01	-1.49012000E-08	 2.00000000E+00
					 5.00000000E-01	-1.49012000E-08	 1.50000000E+00
					 5.00000000E-01	 2.50000000E-01	 2.00000000E+00
					-7.45058000E-09	 5.00000000E-01	 2.00000000E+00
					-7.45058000E-09	 1.00000000E+00	 2.00000000E+00
					 2.50000000E-01	 5.00000000E-01	 2.00000000E+00
					 2.50000000E-01	 1.00000000E+00	 2.00000000E+00
					-7.45058000E-09	 5.00000000E-01	 1.50000000E+00
					-7.45058000E-09	 7.50000000E-01	 2.00000000E+00
					-7.45058000E-09	 1.00000000E+00	 1.50000000E+00
					-7.45058000E-09	-1.49012000E-08	 2.00000000E+00
					 2.50000000E-01	-1.49012000E-08	 2.00000000E+00
					-7.45058000E-09	-1.49012000E-08	 1.50000000E+00
					-7.45058000E-09	 2.50000000E-01	 2.00000000E+00
					 1.00000000E+00	 5.00000000E-01	 3.00000000E+00
					 1.00000000E+00	 1.00000000E+00	 3.00000000E+00
					 5.00000000E-01	 5.00000000E-01	 3.00000000E+00
					 5.00000000E-01	 1.00000000E+00	 3.00000000E+00
					 1.00000000E+00	 5.00000000E-01	 2.50000000E+00
					 1.00000000E+00	 7.50000000E-01	 3.00000000E+00
					 1.00000000E+00	 1.00000000E+00	 2.50000000E+00
					 7.50000000E-01	 5.00000000E-01	 3.00000000E+00
					 7.50000000E-01	 1.00000000E+00	 3.00000000E+00
					 5.00000000E-01	 5.00000000E-01	 2.50000000E+00
					 5.00000000E-01	 7.50000000E-01	 3.00000000E+00
					 5.00000000E-01	 1.00000000E+00	 2.50000000E+00
					 1.00000000E+00	-1.49012000E-08	 3.00000000E+00
					 5.00000000E-01	-1.49012000E-08	 3.00000000E+00
					 1.00000000E+00	-1.49012000E-08	 2.50000000E+00
					 1.00000000E+00	 2.50000000E-01	 3.00000000E+00
					 7.50000000E-01	-1.49012000E-08	 3.00000000E+00
					 5.00000000E-01	-1.49012000E-08	 2.50000000E+00
					 5.00000000E-01	 2.50000000E-01	 3.00000000E+00
					-7.45058000E-09	 5.00000000E-01	 3.00000000E+00
					-7.45058000E-09	 1.00000000E+00	 3.00000000E+00
					 2.50000000E-01	 5.00000000E-01	 3.00000000E+00
					 2.50000000E-01	 1.00000000E+00	 3.00000000E+00
					-7.45058000E-09	 5.00000000E-01	 2.50000000E+00
					-7.45058000E-09	 7.50000000E-01	 3.00000000E+00
					-7.45058000E-09	 1.00000000E+00	 2.50000000E+00
					-7.45058000E-09	-1.49012000E-08	 3.00000000E+00
					 2.50000000E-01	-1.49012000E-08	 3.00000000E+00
					-7.45058000E-09	-1.49012000E-08	 2.50000000E+00
					-7.45058000E-09	 2.50000000E-01	 3.00000000E+00
					 1.00000000E+00	 5.00000000E-01	 4.00000000E+00
					 1.00000000E+00	 1.00000000E+00	 4.00000000E+00
					 5.00000000E-01	 5.00000000E-01	 4.00000000E+00
					 5.00000000E-01	 1.00000000E+00	 4.00000000E+00
					 1.00000000E+00	 5.00000000E-01	 3.50000000E+00
					 1.00000000E+00	 7.50000000E-01	 4.00000000E+00
					 1.00000000E+00	 1.00000000E+00	 3.50000000E+00
					 7.50000000E-01	 5.00000000E-01	 4.00000000E+00
					 7.50000000E-01	 1.00000000E+00	 4.00000000E+00
					 5.00000000E-01	 5.00000000E-01	 3.50000000E+00
					 5.00000000E-01	 7.50000000E-01	 4.00000000E+00
					 5.00000000E-01	 1.00000000E+00	 3.50000000E+00
					 1.00000000E+00	-1.49012000E-08	 4.00000000E+00
					 5.00000000E-01	-1.49012000E-08	 4.00000000E+00
					 1.00000000E+00	-1.49012000E-08	 3.50000000E+00
					 1.00000000E+00	 2.50000000E-01	 4.00000000E+00
					 7.50000000E-01	-1.49012000E-08	 4.00000000E+00
					 5.00000000E-01	-1.49012000E-08	 3.50000000E+00
					 5.00000000E-01	 2.50000000E-01	 4.00000000E+00
					-7.45058000E-09	 5.00000000E-01	 4.00000000E+00
					-7.45058000E-09	 1.00000000E+00	 4.00000000E+00
					 2.50000000E-01	 5.00000000E-01	 4.00000000E+00
					 2.50000000E-01	 1.00000000E+00	 4.00000000E+00
					-7.45058000E-09	 5.00000000E-01	 3.50000000E+00
					-7.45058000E-09	 7.50000000E-01	 4.00000000E+00
					-7.45058000E-09	 1.00000000E+00	 3.50000000E+00
					-7.45058000E-09	-1.49012000E-08	 4.00000000E+00
					 2.50000000E-01	-1.49012000E-08	 4.00000000E+00
					-7.45058000E-09	-1.49012000E-08	 3.50000000E+00
					-7.45058000E-09	 2.50000000E-01	 4.00000000E+00
					 1.00000000E+00	 5.00000000E-01	 5.00000000E+00
					 1.00000000E+00	 1.00000000E+00	 5.00000000E+00
					 5.00000000E-01	 5.00000000E-01	 5.00000000E+00
					 5.00000000E-01	 1.00000000E+00	 5.00000000E+00
					 1.00000000E+00	 5.00000000E-01	 4.50000000E+00
					 1.00000000E+00	 7.50000000E-01	 5.00000000E+00
					 1.00000000E+00	 1.00000000E+00	 4.50000000E+00
					 7.50000000E-01	 5.00000000E-01	 5.00000000E+00
					 7.50000000E-01	 1.00000000E+00	 5.00000000E+00
					 5.00000000E-01	 5.00000000E-01	 4.50000000E+00
					 5.00000000E-01	 7.50000000E-01	 5.00000000E+00
					 5.00000000E-01	 1.00000000E+00	 4.50000000E+00
					 1.00000000E+00	-1.49012000E-08	 5.00000000E+00
					 5.00000000E-01	-1.49012000E-08	 5.00000000E+00
					 1.00000000E+00	-1.49012000E-08	 4.50000000E+00
					 1.00000000E+00	 2.50000000E-01	 5.00000000E+00
					 7.50000000E-01	-1.49012000E-08	 5.00000000E+00
					 5.00000000E-01	-1.49012000E-08	 4.50000000E+00
					 5.00000000E-01	 2.50000000E-01	 5.00000000E+00
					-7.45058000E-09	 5.00000000E-01	 5.00000000E+00
					-7.45058000E-09	 1.00000000E+00	 5.00000000E+00
					 2.50000000E-01	 5.00000000E-01	 5.00000000E+00
					 2.50000000E-01	 1.00000000E+00	 5.00000000E+00
					-7.45058000E-09	 5.00000000E-01	 4.50000000E+00
					-7.45058000E-09	 7.50000000E-01	 5.00000000E+00
					-7.45058000E-09	 1.00000000E+00	 4.50000000E+00
					-7.45058000E-09	-1.49012000E-08	 5.00000000E+00
					 2.50000000E-01	-1.49012000E-08	 5.00000000E+00
					-7.45058000E-09	-1.49012000E-08	 4.50000000E+00
					-7.45058000E-09	 2.50000000E-01	 5.00000000E+00
					 1.00000000E+00	 5.00000000E-01	 6.00000000E+00
					 1.00000000E+00	 1.00000000E+00	 6.00000000E+00
					 5.00000000E-01	 5.00000000E-01	 6.00000000E+00
					 5.00000000E-01	 1.00000000E+00	 6.00000000E+00
					 1.00000000E+00	 5.00000000E-01	 5.50000000E+00
					 1.00000000E+00	 7.50000000E-01	 6.00000000E+00
					 1.00000000E+00	 1.00000000E+00	 5.50000000E+00
					 7.50000000E-01	 5.00000000E-01	 6.00000000E+00
					 7.50000000E-01	 1.00000000E+00	 6.00000000E+00
					 5.00000000E-01	 5.00000000E-01	 5.50000000E+00
					 5.00000000E-01	 7.50000000E-01	 6.00000000E+00
					 5.00000000E-01	 1.00000000E+00	 5.50000000E+00
					 1.00000000E+00	-1.49012000E-08	 6.00000000E+00
[...]
			<PointData>
				<DataArray type="Float32" Name="U" NumberOfComponents="3" ComponentName0="D1" ComponentName1="D2" ComponentName2="D3" format="ascii">
					 0.00000000E+00	 0.00000000E+00	 0.00000000E+00
					 0.00000000E+00	 0.00000000E+00	 0.00000000E+00
					-6.26792000E-07	-3.21813000E-03	-5.01763000E-06
					-1.12996000E-03	-3.40045000E-03	 3.35306000E-03
					 0.00000000E+00	 0.00000000E+00	 0.00000000E+00
					 0.00000000E+00	 0.00000000E+00	 0.00000000E+00
					 2.43725000E-06	-4.15075000E-03	-1.39283000E-05
					-7.35036000E-04	-4.34556000E-03	 3.38960000E-03
					 0.00000000E+00	 0.00000000E+00	 0.00000000E+00
					 4.93055000E-06	-6.15378000E-04	-2.90206000E-06
					-5.66546000E-04	-3.23694000E-03	 1.67690000E-03
					-8.68196000E-04	-9.12453000E-04	 1.76758000E-03
					 0.00000000E+00	 0.00000000E+00	 0.00000000E+00
					 0.00000000E+00	 0.00000000E+00	 0.00000000E+00
					 1.20778000E-06	-3.75432000E-03	-1.08378000E-05
					-9.29826000E-04	-3.94173000E-03	 3.31224000E-03
					 0.00000000E+00	 0.00000000E+00	 0.00000000E+00
					 4.21316000E-06	-1.21357000E-03	-5.56033000E-06
					-3.66275000E-04	-4.17281000E-03	 1.62909000E-03
					-3.69700000E-04	-1.50260000E-03	 1.72300000E-03
					 0.00000000E+00	 0.00000000E+00	 0.00000000E+00
					 1.12714000E-03	-3.37126000E-03	-3.36581000E-03
					 0.00000000E+00	 0.00000000E+00	 0.00000000E+00
					 7.40036000E-04	-4.31731000E-03	-3.42106000E-03
					 0.00000000E+00	 0.00000000E+00	 0.00000000E+00
					 8.74918000E-04	-9.04312000E-04	-1.77521000E-03
					 5.64919000E-04	-3.22260000E-03	-1.68799000E-03
					 0.00000000E+00	 0.00000000E+00	 0.00000000E+00
					 9.31503000E-04	-3.91290000E-03	-3.33645000E-03
					 0.00000000E+00	 0.00000000E+00	 0.00000000E+00
					 3.76121000E-04	-1.49379000E-03	-1.73542000E-03
					 3.71088000E-04	-4.15908000E-03	-1.65807000E-03
					 0.00000000E+00	 0.00000000E+00	 0.00000000E+00
					 0.00000000E+00	 0.00000000E+00	 0.00000000E+00
					 3.17148000E-06	-4.69170000E-03	-1.75343000E-05
					-3.41145000E-04	-4.87029000E-03	 3.33974000E-03
					 0.00000000E+00	 0.00000000E+00	 0.00000000E+00
					 0.00000000E+00	 0.00000000E+00	 0.00000000E+00
					 3.08485000E-06	-4.48989000E-03	-1.58496000E-05
					-5.39975000E-04	-4.67791000E-03	 3.43456000E-03
					 0.00000000E+00	 0.00000000E+00	 0.00000000E+00
					 2.29919000E-06	-1.36080000E-03	-4.84881000E-06
					-1.69101000E-04	-4.70770000E-03	 1.53575000E-03
					 1.53936000E-04	-1.63202000E-03	 1.76493000E-03
					 0.00000000E+00	 0.00000000E+00	 0.00000000E+00
					 3.49654000E-04	-4.84527000E-03	-3.37816000E-03
					 0.00000000E+00	 0.00000000E+00	 0.00000000E+00
					 5.47019000E-04	-4.65028000E-03	-3.47056000E-03
					 0.00000000E+00	 0.00000000E+00	 0.00000000E+00
					-1.50558000E-04	-1.62137000E-03	-1.77637000E-03
					 1.76358000E-04	-4.69646000E-03	-1.57136000E-03
					-6.69260000E-06	-1.22857000E-02	-3.26074000E-05
					-1.45966000E-03	-1.24595000E-02	 5.56079000E-03
					-1.59977000E-06	-1.35957000E-02	-4.75405000E-05
					-1.16772000E-03	-1.37717000E-02	 5.54953000E-03
					-6.60856000E-06	-7.17806000E-03	-1.44192000E-05
					-7.34482000E-04	-1.23449000E-02	 2.76336000E-03
					-1.36747000E-03	-7.37698000E-03	 4.56683000E-03
					-4.13231000E-06	-1.29694000E-02	-4.01218000E-05
					-1.31457000E-03	-1.31449000E-02	 5.55159000E-03
					-2.30283000E-06	-8.36599000E-03	-2.70626000E-05
					-5.85935000E-04	-1.36580000E-02	 2.74703000E-03
					-1.02163000E-03	-8.57074000E-03	 4.57017000E-03
					 1.44666000E-03	-1.23855000E-02	-5.62658000E-03
					 1.16554000E-03	-1.37005000E-02	-5.64597000E-03
					 1.35356000E-03	-7.32750000E-03	-4.59830000E-03
					 7.20889000E-04	-1.23080000E-02	-2.82848000E-03
					 1.30702000E-03	-1.30722000E-02	-5.63257000E-03
					 1.01809000E-03	-8.52267000E-03	-4.62731000E-03
					 5.82833000E-04	-1.36225000E-02	-2.84232000E-03
					 1.48391000E-06	-1.46187000E-02	-6.09498000E-05
					-8.90179000E-04	-1.48020000E-02	 5.53155000E-03
					 3.25808000E-07	-1.41377000E-02	-5.47200000E-05
					-1.02872000E-03	-1.43127000E-02	 5.55020000E-03
					 2.45841000E-07	-9.21667000E-03	-3.61910000E-05
					-4.40043000E-04	-1.46835000E-02	 2.72066000E-03
					-7.01815000E-04	-9.43718000E-03	 4.54491000E-03
					 8.94542000E-04	-1.47327000E-02	-5.65565000E-03
					 1.03057000E-03	-1.42419000E-02	-5.66145000E-03
					 7.05611000E-04	-9.39257000E-03	-4.62041000E-03
					 4.43260000E-04	-1.46493000E-02	-2.84312000E-03
					-1.00262000E-05	-2.50993000E-02	-9.66275000E-05
					-1.61206000E-03	-2.53310000E-02	 7.45010000E-03
					-8.66548000E-06	-2.65343000E-02	-1.17101000E-04
					-1.27732000E-03	-2.67645000E-02	 7.41917000E-03
					-7.40044000E-06	-1.82601000E-02	-5.74381000E-05
					-8.12019000E-04	-2.51734000E-02	 3.72056000E-03
					-1.51881000E-03	-1.84671000E-02	 6.47306000E-03
					-9.29365000E-06	-2.58599000E-02	-1.07243000E-04
					-1.44335000E-03	-2.60894000E-02	 7.41750000E-03
					-4.16793000E-06	-1.96304000E-02	-7.60117000E-05
					-6.43100000E-04	-2.66065000E-02	 3.67975000E-03
					-1.22713000E-03	-1.98306000E-02	 6.44884000E-03
					 1.59479000E-03	-2.52021000E-02	-7.64923000E-03
					 1.26448000E-03	-2.66403000E-02	-7.65936000E-03
					 1.50583000E-03	-1.83673000E-02	-6.59009000E-03
					 7.92842000E-04	-2.51064000E-02	-3.91523000E-03
					 1.42887000E-03	-2.59634000E-02	-7.63774000E-03
					 1.22167000E-03	-1.97348000E-02	-6.60375000E-03
					 6.27536000E-04	-2.65431000E-02	-3.91546000E-03
					-6.02932000E-06	-2.76391000E-02	-1.34336000E-04
					-9.42633000E-04	-2.78668000E-02	 7.41300000E-03
					-7.62717000E-06	-2.71287000E-02	-1.26181000E-04
					-1.11102000E-03	-2.73586000E-02	 7.41555000E-03
					-1.63913000E-06	-2.07078000E-02	-9.32235000E-05
					-4.75321000E-04	-2.77098000E-02	 3.66661000E-03
					-9.36401000E-04	-2.09106000E-02	 6.43603000E-03
					 9.35692000E-04	-2.77473000E-02	-7.68772000E-03
					 1.10055000E-03	-2.72364000E-02	-7.67389000E-03
					 9.36548000E-04	-2.08188000E-02	-6.62653000E-03
					 4.65104000E-04	-2.76493000E-02	-3.93708000E-03
					 2.06530000E-06	-4.23897000E-02	-2.45687000E-04
					-1.78991000E-03	-4.26985000E-02	 9.91857000E-03
					 3.98685000E-06	-4.39595000E-02	-2.67529000E-04
					-1.35684000E-03	-4.42753000E-02	 9.89852000E-03
					-4.92858000E-06	-3.30197000E-02	-1.57703000E-04
					-8.91322000E-04	-4.24889000E-02	 4.83288000E-03
					-1.72709000E-03	-3.32891000E-02	 8.63210000E-03
					 2.73549000E-06	-4.32281000E-02	-2.58312000E-04
					-1.57345000E-03	-4.35435000E-02	 9.90401000E-03
					-4.20495000E-06	-3.45416000E-02	-1.78666000E-04
					-6.77530000E-04	-4.40608000E-02	 4.80942000E-03
					-1.33086000E-03	-3.48128000E-02	 8.60043000E-03
					 1.80129000E-03	-4.24773000E-02	-1.04185000E-02
					 1.37050000E-03	-4.40634000E-02	-1.04434000E-02
					 1.72110000E-03	-3.31220000E-02	-8.95565000E-03
					 8.97300000E-04	-4.23773000E-02	-5.32669000E-03
					 1.58687000E-03	-4.33284000E-02	-1.04292000E-02
					 1.32666000E-03	-3.46518000E-02	-8.96576000E-03
					 6.87733000E-04	-4.39555000E-02	-5.34688000E-03
					 6.46618000E-06	-4.51168000E-02	-2.77958000E-04
					-9.34813000E-04	-4.54295000E-02	 9.88519000E-03
					 5.29152000E-06	-4.45924000E-02	-2.73748000E-04
					-1.14620000E-03	-4.49075000E-02	 9.89531000E-03
					-2.36301000E-06	-3.56765000E-02	-1.92523000E-04
					-4.66062000E-04	-4.52178000E-02	 4.79346000E-03
					-9.36103000E-04	-3.59432000E-02	 8.59883000E-03
					 9.50535000E-04	-4.52198000E-02	-1.04518000E-02
					 1.16024000E-03	-4.46965000E-02	-1.04537000E-02
					 9.34374000E-04	-3.57839000E-02	-8.99146000E-03
					 4.80163000E-04	-4.51136000E-02	-5.35172000E-03
					 2.27101000E-05	-6.60928000E-02	-5.13007000E-04
					-1.37850000E-03	-6.63869000E-02	 1.20958000E-02
					 2.94153000E-05	-6.73525000E-02	-5.37408000E-04
					-1.09077000E-03	-6.76476000E-02	 1.20941000E-02
					 1.18618000E-05	-5.34781000E-02	-3.64577000E-04
					-6.76923000E-04	-6.62023000E-02	 5.69201000E-03
					-1.67768000E-03	-5.37816000E-02	 1.11387000E-02
					 2.56736000E-05	-6.67566000E-02	-5.26419000E-04
					-1.23501000E-03	-6.70551000E-02	 1.21467000E-02
					 1.58654000E-05	-5.49713000E-02	-3.87679000E-04
					-5.32876000E-04	-6.74636000E-02	 5.72914000E-03
					-1.29201000E-03	-5.52827000E-02	 1.11325000E-02
					 1.43481000E-03	-6.60523000E-02	-1.31317000E-02
					 1.15978000E-03	-6.73278000E-02	-1.31793000E-02
					 1.71233000E-03	-5.34981000E-02	-1.18768000E-02
					 7.25434000E-04	-6.60395000E-02	-6.72067000E-03
					 1.29744000E-03	-6.67260000E-02	-1.32100000E-02
					 1.33303000E-03	-5.50129000E-02	-1.19189000E-02
					 5.95104000E-04	-6.73068000E-02	-6.80684000E-03
					 3.42497000E-05	-6.83410000E-02	-5.52344000E-04
					-8.21118000E-04	-6.86356000E-02	 1.20573000E-02
					 3.25903000E-05	-6.78816000E-02	-5.45677000E-04
					-9.55761000E-04	-6.81741000E-02	 1.20492000E-02
					 1.94258000E-05	-5.61003000E-02	-3.97797000E-04
					-3.93685000E-04	-6.84524000E-02	 5.73150000E-03
					-9.27197000E-04	-5.64111000E-02	 1.11035000E-02
					 8.97235000E-04	-6.83281000E-02	-1.31726000E-02
					 1.03019000E-03	-6.78614000E-02	-1.31507000E-02
					 9.72619000E-04	-5.61505000E-02	-1.19119000E-02
					 4.64251000E-04	-6.83016000E-02	-6.83937000E-03
					 2.62513000E-05	-9.40655000E-02	-8.84730000E-04
					-4.17956000E-04	-9.43066000E-02	 1.28684000E-02
					 3.17244000E-05	-9.44803000E-02	-9.00461000E-04
					-3.32963000E-04	-9.47096000E-02	 1.28679000E-02
					 2.73339000E-05	-7.97791000E-02	-6.88895000E-04
					-1.99099000E-04	-9.41742000E-02	 5.88534000E-03
					-9.34133000E-04	-8.00469000E-02	 1.26355000E-02
					 2.77890000E-05	-9.42825000E-02	-8.93168000E-04
					-3.75371000E-04	-9.45170000E-02	 1.29437000E-02
					 3.31373000E-05	-8.06587000E-02	-7.10901000E-04
					-1.50380000E-04	-9.45837000E-02	 5.95118000E-03
					-7.55783000E-04	-8.09229000E-02	 1.26343000E-02
					 4.89432000E-04	-9.39177000E-02	-1.46472000E-02
					 4.03205000E-04	-9.43399000E-02	-1.46772000E-02
					 1.00255000E-03	-7.96797000E-02	-1.40216000E-02
					 2.56677000E-04	-9.39846000E-02	-7.65780000E-03
					 4.46832000E-04	-9.41373000E-02	-1.47390000E-02
					 8.30094000E-04	-8.05716000E-02	-1.40640000E-02
					 2.16501000E-04	-9.44032000E-02	-7.75466000E-03
					 3.80968000E-05	-9.48053000E-02	-9.08906000E-04
					-2.48152000E-04	-9.50401000E-02	 1.28428000E-02
					 3.58458000E-05	-9.46537000E-02	-9.05657000E-04
					-2.90490000E-04	-9.48811000E-02	 1.27956000E-02
					 3.82979000E-05	-8.13664000E-02	-7.27626000E-04
					-1.01901000E-04	-9.49139000E-02	 5.99387000E-03
					-5.92054000E-04	-8.16369000E-02	 1.25978000E-02
					 3.17455000E-04	-9.46656000E-02	-1.46683000E-02
					 3.59739000E-04	-9.45153000E-02	-1.46133000E-02
					 6.68904000E-04	-8.12891000E-02	-1.40607000E-02
					 1.77084000E-04	-9.47259000E-02	-7.81525000E-03
					 1.63577000E-05	-1.23022000E-01	-1.30629000E-03
					 4.45787000E-04	-1.23204000E-01	 1.26186000E-02
					 2.77884000E-05	-1.22618000E-01	-1.29342000E-03
					 4.22831000E-04	-1.22791000E-01	 1.26336000E-02
					 2.03894000E-05	-1.08579000E-01	-1.09153000E-03
					 2.29370000E-04	-1.23112000E-01	 5.59874000E-03
					 6.28968000E-05	-1.08794000E-01	 1.28295000E-02
					 1.99661000E-05	-1.22816000E-01	-1.29960000E-03
					 4.32502000E-04	-1.22992000E-01	 1.26732000E-02
					 3.05510000E-05	-1.08542000E-01	-1.09696000E-03
					 2.27180000E-04	-1.22706000E-01	 5.65707000E-03
					 8.37824000E-05	-1.08742000E-01	 1.28363000E-02
					-4.11779000E-04	-1.22836000E-01	-1.52194000E-02
					-3.66253000E-04	-1.22423000E-01	-1.52096000E-02
					-7.67979000E-06	-1.08411000E-01	-1.50217000E-02
					-1.95965000E-04	-1.22938000E-01	-8.20445000E-03
					-3.92432000E-04	-1.22622000E-01	-1.52625000E-02
					-1.98193000E-05	-1.08372000E-01	-1.50370000E-02
					-1.70906000E-04	-1.22527000E-01	-8.23916000E-03
					 3.92332000E-05	-1.22236000E-01	-1.28940000E-03
					 4.14663000E-04	-1.22405000E-01	 1.26269000E-02
					 3.55933000E-05	-1.22424000E-01	-1.29103000E-03
					 4.21828000E-04	-1.22595000E-01	 1.25881000E-02
					 4.12782000E-05	-1.08479000E-01	-1.09552000E-03
					 2.26884000E-04	-1.22322000E-01	 5.69657000E-03
					 1.16373000E-04	-1.08681000E-01	 1.28231000E-02
					-3.35673000E-04	-1.22037000E-01	-1.51959000E-02
					-3.48654000E-04	-1.22228000E-01	-1.51626000E-02
					-4.29806000E-05	-1.08303000E-01	-1.50188000E-02
					-1.48360000E-04	-1.22142000E-01	-8.26865000E-03
					 5.12318000E-05	-1.51034000E-01	-1.71047000E-03
					 7.91477000E-04	-1.51264000E-01	 1.21005000E-02
					 1.40175000E-05	-1.50286000E-01	-1.67269000E-03
					 7.49382000E-04	-1.50509000E-01	 1.21194000E-02
					 2.56497000E-05	-1.37162000E-01	-1.51770000E-03
					 4.20300000E-04	-1.51154000E-01	 5.19199000E-03
					 6.90637000E-04	-1.37356000E-01	 1.23419000E-02
					 3.65569000E-05	-1.50661000E-01	-1.68636000E-03
					 7.73993000E-04	-1.50888000E-01	 1.21210000E-02
					 2.28048000E-05	-1.36512000E-01	-1.48478000E-03
					 3.78898000E-04	-1.50404000E-01	 5.22508000E-03
					 6.65673000E-04	-1.36702000E-01	 1.23619000E-02
					-7.12580000E-04	-1.50823000E-01	-1.54629000E-02
					-7.00639000E-04	-1.50052000E-01	-1.54070000E-02
					-6.55040000E-04	-1.36979000E-01	-1.53302000E-02
					-3.22458000E-04	-1.50926000E-01	-8.59685000E-03
					-7.06968000E-04	-1.50429000E-01	-1.54341000E-02
					-6.08143000E-04	-1.36312000E-01	-1.52893000E-02
					-3.43356000E-04	-1.50165000E-01	-8.55388000E-03
					-1.88147000E-05	-1.49564000E-01	-1.68756000E-03
					 7.35389000E-04	-1.49738000E-01	 1.20989000E-02
					-7.62062000E-06	-1.49921000E-01	-1.67361000E-03
					 7.39222000E-04	-1.50125000E-01	 1.21006000E-02
					 2.23107000E-05	-1.35892000E-01	-1.48947000E-03
					 3.52576000E-04	-1.49653000E-01	 5.21917000E-03
					 6.52378000E-04	-1.36059000E-01	 1.23483000E-02
					-7.11632000E-04	-1.49348000E-01	-1.54173000E-02
					-7.06255000E-04	-1.49690000E-01	-1.53946000E-02
					-5.72912000E-04	-1.35705000E-01	-1.52908000E-02
					-3.73510000E-04	-1.49457000E-01	-8.57470000E-03
					 0.00000000E+00	 0.00000000E+00	 0.00000000E+00
					 0.00000000E+00	 0.00000000E+00	 0.00000000E+00
					 8.32950000E-05	-6.46335000E-03	-4.37686000E-05
					-1.56937000E-03	-7.02817000E-03	 7.44640000E-03
					 0.00000000E+00	 0.00000000E+00	 0.00000000E+00
					 0.00000000E+00	 0.00000000E+00	 0.00000000E+00
					 8.78155000E-05	-7.55500000E-03	 2.13889000E-05
					-4.75918000E-04	-8.16053000E-03	 7.56929000E-03
					 0.00000000E+00	 0.00000000E+00	 0.00000000E+00
					 2.42633000E-05	-1.04653000E-03	-1.12381000E-05
					-7.44572000E-04	-6.56395000E-03	 3.73662000E-03
					-1.35430000E-03	-1.71708000E-03	 3.63208000E-03
					 0.00000000E+00	 0.00000000E+00	 0.00000000E+00
					 0.00000000E+00	 0.00000000E+00	 0.00000000E+00
					 8.41305000E-05	-7.18577000E-03	-1.26832000E-05
					-1.01641000E-03	-7.76753000E-03	 7.43792000E-03
					 0.00000000E+00	 0.00000000E+00	 0.00000000E+00
					 2.41919000E-05	-1.80808000E-03	 1.93963000E-05
					-1.91932000E-04	-7.66908000E-03	 3.75955000E-03
					-2.35933000E-04	-2.48308000E-03	 3.54745000E-03
					 0.00000000E+00	 0.00000000E+00	 0.00000000E+00
					 1.71426000E-03	-6.89942000E-03	-7.55313000E-03
					 0.00000000E+00	 0.00000000E+00	 0.00000000E+00
					 6.41058000E-04	-8.00660000E-03	-7.55007000E-03
					 0.00000000E+00	 0.00000000E+00	 0.00000000E+00
					 1.38230000E-03	-1.67867000E-03	-3.65742000E-03
					 9.05726000E-04	-6.49744000E-03	-3.83072000E-03
					 0.00000000E+00	 0.00000000E+00	 0.00000000E+00
					 1.16927000E-03	-7.62421000E-03	-7.48401000E-03
					 0.00000000E+00	 0.00000000E+00	 0.00000000E+00
					 2.71379000E-04	-2.41999000E-03	-3.50614000E-03
					 3.64435000E-04	-7.59017000E-03	-3.72559000E-03
					 0.00000000E+00	 0.00000000E+00	 0.00000000E+00
					 0.00000000E+00	 0.00000000E+00	 0.00000000E+00
					 9.96048000E-05	-7.58368000E-03	 1.01108000E-04
					 6.39408000E-04	-8.15703000E-03	 7.58989000E-03
					 0.00000000E+00	 0.00000000E+00	 0.00000000E+00
					 0.00000000E+00	 0.00000000E+00	 0.00000000E+00
					 9.22201000E-05	-7.74521000E-03	 5.80766000E-05
					 7.33873000E-05	-8.33076000E-03	 7.62037000E-03
					 0.00000000E+00	 0.00000000E+00	 0.00000000E+00
					 3.59623000E-05	-1.55493000E-03	 6.28867000E-05
					 3.72658000E-04	-7.68722000E-03	 3.76723000E-03
					 9.16242000E-04	-2.23007000E-03	 3.70927000E-03
					 0.00000000E+00	 0.00000000E+00	 0.00000000E+00
					-4.44849000E-04	-7.98365000E-03	-7.41041000E-03
					 0.00000000E+00	 0.00000000E+00	 0.00000000E+00
					 1.01775000E-04	-8.17044000E-03	-7.52798000E-03
					 0.00000000E+00	 0.00000000E+00	 0.00000000E+00
					-8.53347000E-04	-2.13811000E-03	-3.58124000E-03
					-1.72361000E-04	-7.60038000E-03	-3.57304000E-03
					 3.31351000E-04	-2.84735000E-02	-3.04023000E-04
					-2.19034000E-03	-2.91608000E-02	 1.43148000E-02
					 3.36343000E-04	-3.05065000E-02	-2.15057000E-04
					-1.22718000E-03	-3.12008000E-02	 1.44309000E-02
					 1.89556000E-04	-1.56564000E-02	-1.33963000E-04
					-9.26717000E-04	-2.87059000E-02	 7.01971000E-03
					-1.85831000E-03	-1.63310000E-02	 1.10744000E-02
					 3.33586000E-04	-2.96020000E-02	-2.62007000E-04
					-1.70821000E-03	-3.02908000E-02	 1.42970000E-02
					 1.90455000E-04	-1.71729000E-02	-4.99546000E-05
					-4.38769000E-04	-3.07398000E-02	 7.04837000E-03
					-7.97030000E-04	-1.78480000E-02	 1.11790000E-02
					 2.84323000E-03	-2.87084000E-02	-1.49537000E-02
					 1.89016000E-03	-3.07468000E-02	-1.48926000E-02
					 2.21881000E-03	-1.60641000E-02	-1.13718000E-02
					 1.58478000E-03	-2.84777000E-02	-7.63614000E-03
					 2.36830000E-03	-2.98452000E-02	-1.48478000E-02
					 1.16937000E-03	-1.75665000E-02	-1.13092000E-02
					 1.11295000E-03	-3.05145000E-02	-7.48251000E-03
					 3.37120000E-04	-3.15985000E-02	-1.01024000E-04
					-2.31437000E-04	-3.22604000E-02	 1.45138000E-02
					 3.36411000E-04	-3.11603000E-02	-1.61983000E-04
					-7.28193000E-04	-3.18796000E-02	 1.45769000E-02
					 1.95813000E-04	-1.76313000E-02	 5.43750000E-05
					 4.05839000E-05	-3.18096000E-02	 7.04019000E-03
					 2.95205000E-04	-1.82917000E-02	 1.12611000E-02
					 9.31460000E-04	-3.18186000E-02	-1.47490000E-02
					 1.40908000E-03	-3.13971000E-02	-1.49386000E-02
					 1.07904000E-04	-1.80064000E-02	-1.11805000E-02
					 6.41440000E-04	-3.15962000E-02	-7.24392000E-03
					 6.88889000E-04	-6.34110000E-02	-9.12234000E-04
					-2.81988000E-03	-6.40524000E-02	 1.88685000E-02
					 7.01645000E-04	-6.66098000E-02	-8.43642000E-04
					-2.22237000E-03	-6.73566000E-02	 1.89850000E-02
					 5.03250000E-04	-4.45661000E-02	-5.60484000E-04
					-1.06036000E-03	-6.36574000E-02	 8.94228000E-03
					-2.52245000E-03	-4.52599000E-02	 1.69539000E-02
					 6.97149000E-04	-6.50858000E-02	-8.75874000E-04
					-2.52380000E-03	-6.57916000E-02	 1.88492000E-02
					 5.08762000E-04	-4.71917000E-02	-4.81297000E-04
					-7.85155000E-04	-6.69104000E-02	 8.94402000E-03
					-1.72453000E-03	-4.78998000E-02	 1.70784000E-02
					 4.16484000E-03	-6.32751000E-02	-2.07034000E-02
					 3.63091000E-03	-6.64932000E-02	-2.07194000E-02
					 3.51899000E-03	-4.46194000E-02	-1.81040000E-02
					 2.42680000E-03	-6.32731000E-02	-1.07626000E-02
					 3.89810000E-03	-6.49557000E-02	-2.06397000E-02
					 2.74549000E-03	-4.72453000E-02	-1.80738000E-02
					 2.16724000E-03	-6.64892000E-02	-1.06578000E-02
					 7.05730000E-04	-6.92624000E-02	-7.53987000E-04
					-1.72751000E-03	-7.01168000E-02	 1.90198000E-02
					 7.04428000E-04	-6.80215000E-02	-8.05917000E-04
					-1.97659000E-03	-6.86977000E-02	 1.91413000E-02
					 5.18787000E-04	-4.90401000E-02	-3.76083000E-04
					-4.80877000E-04	-6.96168000E-02	 8.86258000E-03
					-9.56169000E-04	-4.97645000E-02	 1.71380000E-02
					 3.10373000E-03	-6.91777000E-02	-2.06033000E-02
					 3.36685000E-03	-6.78964000E-02	-2.08041000E-02
					 1.96050000E-03	-4.90872000E-02	-1.79280000E-02
					 1.89597000E-03	-6.91714000E-02	-1.04205000E-02
					 1.14575000E-03	-1.05706000E-01	-1.79041000E-03
					-3.18311000E-03	-1.06126000E-01	 1.98244000E-02