<?xml version="1.0"?>
<VTKFile type="UnstructuredGrid" version="0.1" byte_order="LittleEndian">
	<UnstructuredGrid>
		<Piece NumberOfPoints="522" NumberOfCells="64">
			<Points>
				<DataArray type="Float64" NumberOfComponents="3" format="ascii">
					 1.00000000E+00	 1.00000000E+00	-5.96046000E-08
					 1.00000000E+00	 5.00000000E-01	-5.96046000E-08
					 1.00000000E+00	 5.00000000E-01	 1.00000000E+00
					 1.00000000E+00	 1.00000000E+00	 1.00000000E+00
					 5.00000000E-01	 1.00000000E+00	-5.96046000E-08
					 5.00000000E-01	 5.00000000E-01	-5.96046000E-08
					 5.00000000E-01	 5.00000000E-01	 1.00000000E+00
					 5.00000000E-01	 1.00000000E+00	 1.00000000E+00
					 1.00000000E+00	 7.50000000E-01	-5.96046000E-08
					 1.00000000E+00	 5.00000000E-01	 5.00000000E-01
					 1.00000000E+00	 7.50000000E-01	 1.00000000E+00
					 1.00000000E+00	 1.00000000E+00	 5.00000000E-01
					 7.50000000E-01	 1.00000000E+00	-5.96046000E-08
					 7.50000000E-01	 5.00000000E-01	-5.96046000E-08
					 7.50000000E-01	 5.00000000E-01	 1.00000000E+00
					 7.50000000E-01	 1.00000000E+00	 1.00000000E+00
					 5.00000000E-01	 7.50000000E-01	-5.96046000E-08
					 5.00000000E-01	 5.00000000E-01	 5.00000000E-01
					 5.00000000E-01	 7.50000000E-01	 1.00000000E+00
					 5.00000000E-01	 1.00000000E+00	 5.00000000E-01
					 1.00000000E+00	-1.49012000E-08	-5.96046000E-08
					 1.00000000E+00	-1.49012000E-08	 1.00000000E+00
					 5.00000000E-01	-1.49012000E-08	-5.96046000E-08
					 5.00000000E-01	-1.49012000E-08	 1.00000000E+00
					 1.00000000E+00	 2.50000000E-01	-5.96046000E-08
					 1.00000000E+00	-1.49012000E-08	 5.00000000E-01
					 1.00000000E+00	 2.50000000E-01	 1.00000000E+00
					 7.50000000E-01	-1.49012000E-08	-5.96046000E-08
					 7.50000000E-01	-1.49012000E-08	 1.00000000E+00
					 5.00000000E-01	 2.50000000E-01	-5.96046000E-08
					 5.00000000E-01	-1.49012000E-08	 5.00000000E-01
					 5.00000000E-01	 2.50000000E-01	 1.00000000E+00
					-7.45058000E-09	 1.00000000E+00	-5.96046000E-08
					-7.45058000E-09	 5.00000000E-01	-5.96046000E-08
					-7.45058000E-09	 5.00000000E-01	 1.00000000E+00
					-7.45058000E-09	 1.00000000E+00	 1.00000000E+00
					 2.50000000E-01	 1.00000000E+00	-5.96046000E-08
					 2.50000000E-01	 5.00000000E-01	-5.96046000E-08
					 2.50000000E-01	 5.00000000E-01	 1.00000000E+00
					 2.50000000E-01	 1.00000000E+00	 1.00000000E+00
					-7.45058000E-09	 7.50000000E-01	-5.96046000E-08
					-7.45058000E-09	 5.00000000E-01	 5.00000000E-01
					-7.45058000E-09	 7.50000000E-01	 1.00000000E+00
					-7.45058000E-09	 1.00000000E+00	 5.00000000E-01
					-7.45058000E-09	-1.49012000E-08	-5.96046000E-08
					-7.45058000E-09	-1.49012000E-08	 1.00000000E+00
					 2.50000000E-01	-1.49012000E-08	-5.96046000E-08
					 2.50000000E-01	-1.49012000E-08	 1.00000000E+00
					-7.45058000E-09	 2.50000000E-01	-5.96046000E-08
					-7.45058000E-09	-1.49012000E-08	 5.00000000E-01
					-7.45058000E-09	 2.50000000E-01	 1.00000000E+00
					 1.00000000E+00	 5.00000000E-01	 2.00000000E+00
					 1.00000000E+00	 1.00000000E+00	 2.00000000E+00
					 5.00000000E-01	 5.00000000E-01	 2.00000000E+00
					 5.00000000E-01	 1.00000000E+00	 2.00000000E+00
					 1.00000000E+00	 5.00000000E-01	 1.50000000E+00
					 1.00000000E+00	 7.50000000E-01	 2.00000000E+00
					 1.00000000E+00	 1.00000000E+00	 1.50000000E+00
					 7.50000000E-01	 5.00000000E-01	 2.00000000E+00
					 7.50000000E-01	 1.00000000E+00	 2.00000000E+00
					 5.00000000E-01	 5.00000000E-01	 1.50000000E+00
					 5.00000000E-01	 7.50000000E-01	 2.00000000E+00
					 5.00000000E-01	 1.00000000E+00	 1.50000000E+00
					 1.00000000E+00	-1.49012000E-08	 2.00000000E+00
					 5.00000000E-01	-1.49012000E-08	 2.00000000E+00
					 1.00000000E+00	-1.49012000E-08	 1.50000000E+00
					 1.00000000E+00	 2.50000000E-01	 2.00000000E+00
					 7.50000000E-01	-1.49012000E-08	 2.00000000E+00
					 5.00000000E-01	-1.49012000E-08	 1.50000000E+00
					 5.00000000E-01	 2.50000000E-01	 2.00000000E+00
					-7.45058000E-09	 5.00000000E-01	 2.00000000E+00
					-7.45058000E-09	 1.00000000E+00	 2.00000000E+00
					 2.50000000E-01	 5.00000000E-01	 2.00000000E+00
					 2.50000000E-01	 1.00000000E+00	 2.00000000E+00
					-7.45058000E-09	 5.00000000E-01	 1.50000000E+00
					-7.45058000E-09	 7.50000000E-01	 2.00000000E+00
					-7.45058000E-09	 1.00000000E+00	 1.50000000E+00
					-7.45058000E-09	-1.49012000E-08	 2.00000000E+00
					 2.50000000E-01	-1.49012000E-08	 2.00000000E+00
					-7.45058000E-09	-1.49012000E-08	 1.50000000E+00
					-7.45058000E-09	 2.50000000E-01	 2.00000000E+00
					 1.00000000E+00	 5.00000000E-01	 3.00000000E+00
					 1.00000000E+00	 1.00000000E+00	 3.00000000E+00
					 5.00000000E-01	 5.00000000E-01	 3.00000000E+00
					 5.00000000E-01	 1.00000000E+00	 3.00000000E+00
					 1.00000000E+00	 5.00000000E-01	 2.50000000E+00
					 1.00000000E+00	 7.50000000E-01	 3.00000000E+00
					 1.00000000E+00	 1.00000000E+00	 2.50000000E+00
					 7.50000000E-01	 5.00000000E-01	 3.00000000E+00
					 7.50000000E-01	 1.00000000E+00	 3.00000000E+00
					 5.00000000E-01	 5.00000000E-01	 2.50000000E+00
					 5.00000000E-01	 7.50000000E-01	 3.00000000E+00
					 5.00000000E-01	 1.00000000E+00	 2.50000000E+00
					 1.00000000E+00	-1.49012000E-08	 3.00000000E+00
					 5.00000000E-01	-1.49012000E-08	 3.00000000E+00
					 1.00000000E+00	-1.49012000E-08	 2.50000000E+00
					 1.00000000E+00	 2.50000000E-01	 3.00000000E+00
					 7.50000000E-01	-1.49012000E-08	 3.00000000E+00
					 5.00000000E-01	-1.49012000E-08	 2.50000000E+00
					 5.00000000E-01	 2.50000000E-01	 3.00000000E+00
					-7.45058000E-09	 5.00000000E-01	 3.00000000E+00
					-7.45058000E-09	 1.00000000E+00	 3.00000000E+00
					 2.50000000E-01	 5.00000000E-01	 3.00000000E+00
					 2.50000000E-01	 1.00000000E+00	 3.00000000E+00
					-7.45058000E-09	 5.00000000E-01	 2.50000000E+00
					-7.45058000E-09	 7.50000000E-01	 3.00000000E+00
					-7.45058000E-09	 1.00000000E+00	 2.50000000E+00
					-7.45058000E-09	-1.49012000E-08	 3.00000000E+00
					 2.50000000E-01	-1.49012000E-08	 3.00000000E+00
					-7.45058000E-09	-1.49012000E-08	 2.50000000E+00
					-7.45058000E-09	 2.50000000E-01	 3.00000000E+00
					 1.00000000E+00	 5.00000000E-01	 4.00000000E+00
					 1.00000000E+00	 1.00000000E+00	 4.00000000E+00
					 5.00000000E-01	 5.00000000E-01	 4.00000000E+00
					 5.00000000E-01	 1.00000000E+00	 4.00000000E+00
					 1.00000000E+00	 5.00000000E-01	 3.50000000E+00
					 1.00000000E+00	 7.50000000E-01	 4.00000000E+00
					 1.00000000E+00	 1.00000000E+00	 3.50000000E+00
					 7.50000000E-01	 5.00000000E-01	 4.00000000E+00
					 7.50000000E-01	 1.00000000E+00	 4.00000000E+00
					 5.00000000E-01	 5.00000000E-01	 3.50000000E+00
					 5.00000000E-01	 7.50000000E-01	 4.00000000E+00
					 5.00000000E-01	 1.00000000E+00	 3.50000000E+00
					 1.00000000E+00	-1.49012000E-08	 4.00000000E+00
					 5.00000000E-01	-1.49012000E-08	 4.00000000E+00
					 1.00000000E+00	-1.49012000E-08	 3.50000000E+00
					 1.00000000E+00	 2.50000000E-01	 4.00000000E+00
					 7.50000000E-01	-1.49012000E-08	 4.00000000E+00
					 5.00000000E-01	-1.49012000E-08	 3.50000000E+00
					 5.00000000E-01	 2.50000000E-01	 4.00000000E+00
					-7.45058000E-09	 5.00000000E-01	 4.00000000E+00
					-7.45058000E-09	 1.00000000E+00	 4.00000000E+00
					 2.50000000E-01	 5.00000000E-01	 4.00000000E+00
					 2.50000000E-01	 1.00000000E+00	 4.00000000E+00
					-7.45058000E-09	 5.00000000E-01	 3.50000000E+00
					-7.45058000E-09	 7.50000000E-01	 4.00000000E+00
					-7.45058000E-09	 1.00000000E+00	 3.50000000E+00
					-7.45058000E-09	-1.49012000E-08	 4.00000000E+00
					 2.50000000E-01	-1.49012000E-08	 4.00000000E+00
					-7.45058000E-09	-1.49012000E-08	 3.50000000E+00
					-7.45058000E-09	 2.50000000E-01	 4.00000000E+00
					 1.00000000E+00	 5.00000000E-01	 5.00000000E+00
					 1.00000000E+00	 1.00000000E+00	 5.00000000E+00
					 5.00000000E-01	 5.00000000E-01	 5.00000000E+00
					 5.00000000E-01	 1.00000000E+00	 5.00000000E+00
					 1.00000000E+00	 5.00000000E-01	 4.50000000E+00
					 1.00000000E+00	 7.50000000E-01	 5.00000000E+00
					 1.00000000E+00	 1.00000000E+00	 4.50000000E+00
					 7.50000000E-01	 5.00000000E-01	 5.00000000E+00
					 7.50000000E-01	 1.00000000E+00	 5.00000000E+00
					 5.00000000E-01	 5.00000000E-01	 4.50000000E+00
					 5.00000000E-01	 7.50000000E-01	 5.00000000E+00
					 5.00000000E-01	 1.00000000E+00	 4.50000000E+00
					 1.00000000E+00	-1.49012000E-08	 5.00000000E+00
					 5.00000000E-01	-1.49012000E-08	 5.00000000E+00
					 1.00000000E+00	-1.49012000E-08	 4.50000000E+00
					 1.00000000E+00	 2.50000000E-01	 5.00000000E+00
					 7.50000000E-01	-1.49012000E-08	 5.00000000E+00
					 5.00000000E-01	-1.49012000E-08	 4.50000000E+00
					 5.00000000E-01	 2.50000000E-01	 5.00000000E+00
					-7.45058000E-09	 5.00000000E-01	 5.00000000E+00
					-7.45058000E-09	 1.00000000E+00	 5.00000000E+00
					 2.50000000E-01	 5.00000000E-01	 5.00000000E+00
					 2.50000000E-01	 1.00000000E+00	 5.00000000E+00
					-7.45058000E-09	 5.00000000E-01	 4.50000000E+00
					-7.45058000E-09	 7.50000000E-01	 5.00000000E+00
					-7.45058000E-09	 1.00000000E+00	 4.50000000E+00
					-7.45058000E-09	-1.49012000E-08	 5.00000000E+00
					 2.50000000E-01	-1.49012000E-08	 5.00000000E+00
					-7.45058000E-09	-1.49012000E-08	 4.50000000E+00
					-7.45058000E-09	 2.50000000E-01	 5.00000000E+00
					 1.00000000E+00	 5.00000000E-01	 6.00000000E+00
					 1.00000000E+00	 1.00000000E+00	 6.00000000E+00
					 5.00000000E-01	 5.00000000E-01	 6.00000000E+00
					 5.00000000E-01	 1.00000000E+00	 6.00000000E+00
					 1.00000000E+00	 5.00000000E-01	 5.50000000E+00
					 1.00000000E+00	 7.50000000E-01	 6.00000000E+00
					 1.00000000E+00	 1.00000000E+00	 5.50000000E+00
					 7.50000000E-01	 5.00000000E-01	 6.00000000E+00
					 7.50000000E-01	 1.00000000E+00	 6.00000000E+00
					 5.00000000E-01	 5.00000000E-01	 5.50000000E+00
					 5.00000000E-01	 7.50000000E-01	 6.00000000E+00
					 5.00000000E-01	 1.00000000E+00	 5.50000000E+00
					 1.00000000E+00	-1.49012000E-08	 6.00000000E+00
[...]
			<PointData>
				<DataArray type="Float32" Name="U" NumberOfComponents="3" ComponentName0="D1" ComponentName1="D2" ComponentName2="D3" format="ascii">
					 0.00000000E+00	 0.00000000E+00	 0.00000000E+00
					 0.00000000E+00	 0.00000000E+00	 0.00000000E+00
					 8.77862000E-06	 1.49310000E-03	-1.69996000E-05
					 5.00785000E-04	 1.68794000E-03	-2.36200000E-03
					 0.00000000E+00	 0.00000000E+00	 0.00000000E+00
					 0.00000000E+00	 0.00000000E+00	 0.00000000E+00
					 5.98680000E-06	 1.77691000E-03	-1.55634000E-05
					 8.91480000E-05	 1.97793000E-03	-2.36445000E-03
					 0.00000000E+00	 0.00000000E+00	 0.00000000E+00
					 4.58011000E-06	 7.78755000E-05	-7.43958000E-06
					 2.56765000E-04	 1.52599000E-03	-1.23335000E-03
					 3.72825000E-04	 2.85438000E-04	-1.04408000E-03
					 0.00000000E+00	 0.00000000E+00	 0.00000000E+00
					 0.00000000E+00	 0.00000000E+00	 0.00000000E+00
					 7.42160000E-06	 1.69802000E-03	-1.60108000E-05
					 2.93188000E-04	 1.89387000E-03	-2.33922000E-03
					 0.00000000E+00	 0.00000000E+00	 0.00000000E+00
					 1.98339000E-06	 2.62619000E-04	-5.56148000E-06
					 4.70024000E-05	 1.81070000E-03	-1.21141000E-03
					 2.24971000E-05	 4.65043000E-04	-9.96208000E-04
					 0.00000000E+00	 0.00000000E+00	 0.00000000E+00
					-4.84328000E-04	 1.69800000E-03	 2.32587000E-03
					 0.00000000E+00	 0.00000000E+00	 0.00000000E+00
					-7.67618000E-05	 1.98723000E-03	 2.33088000E-03
					 0.00000000E+00	 0.00000000E+00	 0.00000000E+00
					-3.64825000E-04	 2.85109000E-04	 1.02889000E-03
					-2.39703000E-04	 1.53179000E-03	 1.19850000E-03
					 0.00000000E+00	 0.00000000E+00	 0.00000000E+00
					-2.78457000E-04	 1.90365000E-03	 2.30513000E-03
					 0.00000000E+00	 0.00000000E+00	 0.00000000E+00
					-1.85800000E-05	 4.65291000E-04	 9.84982000E-04
					-3.48897000E-05	 1.81603000E-03	 1.17950000E-03
					 0.00000000E+00	 0.00000000E+00	 0.00000000E+00
					 0.00000000E+00	 0.00000000E+00	 0.00000000E+00
					 2.88323000E-06	 1.65893000E-03	-1.29400000E-05
					-3.33088000E-04	 1.84419000E-03	-2.35798000E-03
					 0.00000000E+00	 0.00000000E+00	 0.00000000E+00
					 0.00000000E+00	 0.00000000E+00	 0.00000000E+00
					 4.43790000E-06	 1.77978000E-03	-1.46915000E-05
					-1.20711000E-04	 1.97390000E-03	-2.36206000E-03
					 0.00000000E+00	 0.00000000E+00	 0.00000000E+00
					-3.06977000E-07	 1.18969000E-04	-3.98729000E-06
					-1.65132000E-04	 1.68657000E-03	-1.20513000E-03
					-3.32901000E-04	 3.20659000E-04	-1.04061000E-03
					 0.00000000E+00	 0.00000000E+00	 0.00000000E+00
					 3.40829000E-04	 1.85267000E-03	 2.32964000E-03
					 0.00000000E+00	 0.00000000E+00	 0.00000000E+00
					 1.30565000E-04	 1.98308000E-03	 2.33014000E-03
					 0.00000000E+00	 0.00000000E+00	 0.00000000E+00
					 3.33217000E-04	 3.21332000E-04	 1.03219000E-03
					 1.71626000E-04	 1.69136000E-03	 1.17857000E-03
					 1.38192000E-05	 8.64642000E-03	-6.18200000E-05
					 9.52091000E-04	 8.84100000E-03	-5.37770000E-03
					 1.02677000E-05	 9.37152000E-03	-6.90738000E-05
					 5.18080000E-04	 9.56185000E-03	-5.38539000E-03
					 1.29753000E-05	 4.33781000E-03	-3.29239000E-05
					 4.83939000E-04	 8.69196000E-03	-2.75877000E-03
					 6.83727000E-04	 4.54894000E-03	-3.85783000E-03
					 1.21335000E-05	 9.06181000E-03	-6.59818000E-05
					 7.35032000E-04	 9.25284000E-03	-5.33547000E-03
					 9.29932000E-06	 4.79216000E-03	-3.50478000E-05
					 2.63379000E-04	 9.41544000E-03	-2.71899000E-03
					 2.43355000E-04	 4.99780000E-03	-3.86012000E-03
					-9.25384000E-04	 8.89378000E-03	 5.24794000E-03
					-4.97291000E-04	 9.61362000E-03	 5.24157000E-03
					-6.58432000E-04	 4.57595000E-03	 3.78728000E-03
					-4.56758000E-04	 8.71911000E-03	 2.63358000E-03
					-7.10934000E-04	 9.30441000E-03	 5.19778000E-03
					-2.24196000E-04	 5.02332000E-03	 3.78566000E-03
					-2.42813000E-04	 9.44132000E-03	 2.57950000E-03
					 5.82088000E-06	 9.66156000E-03	-7.21202000E-05
					 6.99367000E-05	 9.84371000E-03	-5.38749000E-03
					 8.14445000E-06	 9.56774000E-03	-7.11265000E-05
					 2.93409000E-04	 9.75616000E-03	-5.44137000E-03
					 4.92717000E-06	 4.80517000E-03	-3.43506000E-05
					 3.98299000E-05	 9.70096000E-03	-2.66801000E-03
					-2.14780000E-04	 5.00055000E-03	-3.85881000E-03
					-5.67311000E-05	 9.89458000E-03	 5.23817000E-03
					-2.76449000E-04	 9.80866000E-03	 5.29346000E-03
					 2.26634000E-04	 5.02457000E-03	 3.78616000E-03
					-2.75460000E-05	 9.72535000E-03	 2.52276000E-03
					 2.09850000E-05	 2.11781000E-02	-1.70508000E-04
					 1.87742000E-03	 2.13434000E-02	-8.40702000E-03
					 1.85643000E-05	 2.28017000E-02	-1.92912000E-04
					 1.41141000E-03	 2.29683000E-02	-8.42249000E-03
					 1.58038000E-05	 1.42659000E-02	-1.07797000E-04
					 9.49420000E-04	 2.12005000E-02	-4.38686000E-03
					 1.35269000E-03	 1.44543000E-02	-6.86026000E-03
					 2.00807000E-05	 2.20486000E-02	-1.81662000E-04
					 1.64452000E-03	 2.22152000E-02	-8.33262000E-03
					 1.22623000E-05	 1.53933000E-02	-1.20661000E-04
					 7.14683000E-04	 2.28259000E-02	-4.32528000E-03
					 9.20978000E-04	 1.55744000E-02	-6.86969000E-03
					-1.83466000E-03	 2.14805000E-02	 8.05904000E-03
					-1.37182000E-03	 2.31004000E-02	 8.02954000E-03
					-1.32199000E-03	 1.45412000E-02	 6.63810000E-03
					-9.07510000E-04	 2.12723000E-02	 4.04337000E-03
					-1.60247000E-03	 2.23475000E-02	 7.96317000E-03
					-8.95651000E-04	 1.56597000E-02	 6.62212000E-03
					-6.76928000E-04	 2.28928000E-02	 3.93763000E-03
					 1.36319000E-05	 2.39610000E-02	-2.08569000E-04
					 9.40082000E-04	 2.41283000E-02	-8.44535000E-03
					 1.63787000E-05	 2.34400000E-02	-2.02411000E-04
					 1.17621000E-03	 2.36053000E-02	-8.50495000E-03
					 7.16578000E-06	 1.60823000E-02	-1.28247000E-04
					 4.76156000E-04	 2.39868000E-02	-4.27376000E-03
					 4.76665000E-04	 1.62613000E-02	-6.88055000E-03
					-9.08806000E-04	 2.42557000E-02	 8.02077000E-03
					-1.14047000E-03	 2.37375000E-02	 8.09203000E-03
					-4.60066000E-04	 1.63449000E-02	 6.61787000E-03
					-4.47588000E-04	 2.40489000E-02	 3.85535000E-03
					 2.75944000E-05	 3.99361000E-02	-3.65364000E-04
					 2.87264000E-03	 4.00316000E-02	-1.19132000E-02
					 2.98406000E-05	 4.25222000E-02	-4.27614000E-04
					 2.37993000E-03	 4.26311000E-02	-1.19870000E-02
					 2.73827000E-05	 2.96372000E-02	-2.52755000E-04
					 1.44625000E-03	 3.99180000E-02	-6.17523000E-03
					 2.41816000E-03	 2.97696000E-02	-1.01272000E-02
					 2.96223000E-05	 4.12918000E-02	-3.97817000E-04
					 2.62735000E-03	 4.13981000E-02	-1.18939000E-02
					 2.65350000E-05	 3.17688000E-02	-2.92507000E-04
					 1.20428000E-03	 4.25112000E-02	-6.18499000E-03
					 1.91487000E-03	 3.19137000E-02	-1.01637000E-02
					-2.81359000E-03	 4.03144000E-02	 1.11709000E-02
					-2.31454000E-03	 4.29025000E-02	 1.11201000E-02
					-2.36050000E-03	 2.99737000E-02	 9.61330000E-03
					-1.39061000E-03	 4.00616000E-02	 5.44165000E-03
					-2.56304000E-03	 4.16727000E-02	 1.10870000E-02
					-1.85726000E-03	 3.21083000E-02	 9.56964000E-03
					-1.14331000E-03	 4.26466000E-02	 5.32708000E-03
					 2.62027000E-05	 4.46290000E-02	-4.78092000E-04
					 1.88207000E-03	 4.47370000E-02	-1.20260000E-02
					 2.87349000E-05	 4.36384000E-02	-4.54666000E-04
					 2.13170000E-03	 4.37473000E-02	-1.20763000E-02
					 2.12877000E-05	 3.34085000E-02	-3.22940000E-04
					 9.55924000E-04	 4.46202000E-02	-6.16282000E-03
					 1.41322000E-03	 3.35562000E-02	-1.01980000E-02
					-1.82186000E-03	 4.49958000E-02	 1.10587000E-02
					-2.06776000E-03	 4.40158000E-02	 1.11549000E-02
					-1.36422000E-03	 3.37414000E-02	 9.54278000E-03
					-9.01360000E-04	 4.47461000E-02	 5.20445000E-03
					 9.92714000E-06	 6.57808000E-02	-7.08345000E-04
					 3.53794000E-03	 6.56954000E-02	-1.48987000E-02
					 1.92600000E-05	 6.91738000E-02	-8.16168000E-04
					 3.28854000E-03	 6.90928000E-02	-1.50403000E-02
					 2.14451000E-05	 5.21228000E-02	-5.18253000E-04
					 1.77285000E-03	 6.57048000E-02	-7.78725000E-03
					 3.21566000E-03	 5.21289000E-02	-1.35693000E-02
					 1.51608000E-05	 6.75107000E-02	-7.63713000E-04
					 3.41360000E-03	 6.74290000E-02	-1.49187000E-02
					 2.66137000E-05	 5.51100000E-02	-6.03663000E-04
					 1.65300000E-03	 6.91011000E-02	-7.85599000E-03
					 2.82169000E-03	 5.51248000E-02	-1.36813000E-02
					-3.51452000E-03	 6.61221000E-02	 1.34737000E-02
					-3.24622000E-03	 6.95127000E-02	 1.34001000E-02
					-3.16872000E-03	 5.24891000E-02	 1.25214000E-02
					-1.75234000E-03	 6.59172000E-02	 6.36856000E-03
					-3.37949000E-03	 6.78493000E-02	 1.33833000E-02
					-2.76340000E-03	 5.54754000E-02	 1.24628000E-02
					-1.61369000E-03	 6.93069000E-02	 6.22188000E-03
					 2.42114000E-05	 7.23121000E-02	-9.15112000E-04
					 3.03141000E-03	 7.22317000E-02	-1.51052000E-02
					 2.23890000E-05	 7.07756000E-02	-8.66610000E-04
					 3.16043000E-03	 7.06943000E-02	-1.51661000E-02
					 2.63946000E-05	 5.77055000E-02	-6.77357000E-04
					 1.52919000E-03	 7.22424000E-02	-7.84943000E-03
					 2.41809000E-03	 5.77181000E-02	-1.37282000E-02
					-2.97864000E-03	 7.26413000E-02	 1.32679000E-02
					-3.11173000E-03	 7.11145000E-02	 1.34252000E-02
					-2.35901000E-03	 5.80564000E-02	 1.23632000E-02
					-1.47969000E-03	 7.24381000E-02	 6.01783000E-03
					-2.75431000E-05	 9.51130000E-02	-1.14509000E-03
					 4.23945000E-03	 9.48494000E-02	-1.59292000E-02
					-1.06420000E-05	 9.94172000E-02	-1.29236000E-03
					 4.32389000E-03	 9.91485000E-02	-1.61023000E-02
					-5.67848000E-06	 8.03339000E-02	-9.22907000E-04
					 2.10859000E-03	 9.49927000E-02	-8.55053000E-03
					 3.87375000E-03	 8.01545000E-02	-1.56627000E-02
					-1.91442000E-05	 9.72549000E-02	-1.21927000E-03
					 4.28188000E-03	 9.69889000E-02	-1.59515000E-02
					 7.40190000E-06	 8.41694000E-02	-1.05176000E-03
					 2.15714000E-03	 9.92974000E-02	-8.64310000E-03
					 3.80018000E-03	 8.39870000E-02	-1.58283000E-02
					-4.29528000E-03	 9.53199000E-02	 1.36411000E-02
					-4.34592000E-03	 9.96213000E-02	 1.35206000E-02
					-3.88319000E-03	 8.06168000E-02	 1.38135000E-02
					-2.16384000E-03	 9.52286000E-02	 6.26091000E-03
					-4.32094000E-03	 9.74568000E-02	 1.35152000E-02
					-3.78350000E-03	 8.44470000E-02	 1.37223000E-02
					-2.17860000E-03	 9.95305000E-02	 6.05881000E-03
					 6.21215000E-06	 1.03777000E-01	-1.44133000E-03
					 4.41522000E-03	 1.03519000E-01	-1.62251000E-02
					-2.16780000E-06	 1.01587000E-01	-1.36568000E-03
					 4.36957000E-03	 1.01318000E-01	-1.62579000E-02
					 1.81090000E-05	 8.79132000E-02	-1.17710000E-03
					 2.20729000E-03	 1.03665000E-01	-8.68652000E-03
					 3.72077000E-03	 8.77344000E-02	-1.59162000E-02
					-4.40309000E-03	 1.03991000E-01	 1.33454000E-02
					-4.37458000E-03	 1.01796000E-01	 1.35302000E-02
					-3.68219000E-03	 8.81875000E-02	 1.35601000E-02
					-2.19478000E-03	 1.03892000E-01	 5.80386000E-03
					-8.34281000E-05	 1.23281000E-01	-1.56080000E-03
					 4.97009000E-03	 1.22991000E-01	-1.54193000E-02
					-6.00661000E-05	 1.28401000E-01	-1.72372000E-03
					 5.13049000E-03	 1.28112000E-01	-1.55761000E-02
					-5.51334000E-05	 1.09506000E-01	-1.36029000E-03
					 2.44402000E-03	 1.23153000E-01	-8.55588000E-03
					 4.62924000E-03	 1.09222000E-01	-1.57423000E-02
					-7.21904000E-05	 1.25822000E-01	-1.64211000E-03
					 5.05038000E-03	 1.25534000E-01	-1.54481000E-02
					-3.49876000E-05	 1.14260000E-01	-1.51898000E-03
					 2.53707000E-03	 1.28277000E-01	-8.66879000E-03
					 4.78859000E-03	 1.13973000E-01	-1.59096000E-02
					-5.14100000E-03	 1.23421000E-01	 1.23020000E-02
					-5.25410000E-03	 1.28549000E-01	 1.21325000E-02
					-4.74240000E-03	 1.09675000E-01	 1.30254000E-02
					-2.61186000E-03	 1.23372000E-01	 5.43526000E-03
					-5.19839000E-03	 1.25965000E-01	 1.21679000E-02
					-4.86108000E-03	 1.14432000E-01	 1.28759000E-02
					-2.65790000E-03	 1.28497000E-01	 5.22210000E-03
					-3.27432000E-05	 1.33659000E-01	-1.88963000E-03
					 5.31179000E-03	 1.33378000E-01	-1.57523000E-02
					-4.70901000E-05	 1.31012000E-01	-1.80590000E-03
					 5.22115000E-03	 1.30722000E-01	-1.56994000E-02
					-1.25075000E-05	 1.19148000E-01	-1.68170000E-03
					 2.63700000E-03	 1.33539000E-01	-8.80280000E-03
					 4.96699000E-03	 1.18876000E-01	-1.60643000E-02
					-5.38041000E-03	 1.33824000E-01	 1.19762000E-02
					-5.31871000E-03	 1.31165000E-01	 1.20914000E-02
					-4.99406000E-03	 1.19340000E-01	 1.27048000E-02
					-2.70301000E-03	 1.33761000E-01	 5.02385000E-03
					-1.26462000E-04	 1.49782000E-01	-1.92468000E-03
					 5.35445000E-03	 1.49542000E-01	-1.53344000E-02
					-9.55150000E-05	 1.55248000E-01	-2.08785000E-03
					 5.38215000E-03	 1.55024000E-01	-1.54881000E-02
					-1.07574000E-04	 1.36537000E-01	-1.74548000E-03
					 2.61336000E-03	 1.49660000E-01	-8.65415000E-03
					 5.23772000E-03	 1.36288000E-01	-1.52724000E-02
					-1.11250000E-04	 1.52513000E-01	-2.00614000E-03
					 5.36663000E-03	 1.52283000E-01	-1.54002000E-02
					-7.98405000E-05	 1.41908000E-01	-1.90896000E-03
					 2.64241000E-03	 1.55133000E-01	-8.80457000E-03
					 5.32938000E-03	 1.41665000E-01	-1.54246000E-02
					-5.60687000E-03	 1.49960000E-01	 1.14858000E-02
					-5.57379000E-03	 1.55440000E-01	 1.13117000E-02
					-5.45432000E-03	 1.36708000E-01	 1.17830000E-02
					-2.86630000E-03	 1.49870000E-01	 4.80508000E-03
					-5.58897000E-03	 1.52700000E-01	 1.13883000E-02
					-5.49077000E-03	 1.42088000E-01	 1.16071000E-02
					-2.83378000E-03	 1.55342000E-01	 4.62898000E-03
					-6.32332000E-05	 1.60747000E-01	-2.24906000E-03
					 5.42938000E-03	 1.60529000E-01	-1.56746000E-02
					-7.92289000E-05	 1.58000000E-01	-2.16927000E-03
					 5.40799000E-03	 1.57776000E-01	-1.55771000E-02
					-5.00751000E-05	 1.47352000E-01	-2.07221000E-03
					 2.67929000E-03	 1.60637000E-01	-8.98264000E-03
					 5.43835000E-03	 1.47117000E-01	-1.56102000E-02
					-5.55781000E-03	 1.60949000E-01	 1.11747000E-02
					-5.56797000E-03	 1.58194000E-01	 1.12373000E-02
					-5.54093000E-03	 1.47546000E-01	 1.14651000E-02
					-2.80628000E-03	 1.60847000E-01	 4.48444000E-03
					 0.00000000E+00	 0.00000000E+00	 0.00000000E+00
					 0.00000000E+00	 0.00000000E+00	 0.00000000E+00
					-1.35481000E-04	-8.67558000E-03	 2.66635000E-04
					-1.51320000E-03	-9.31684000E-03	 8.85960000E-03
					 0.00000000E+00	 0.00000000E+00	 0.00000000E+00
					 0.00000000E+00	 0.00000000E+00	 0.00000000E+00
					-9.67751000E-05	-9.46555000E-03	 1.74240000E-04
					-3.23698000E-04	-1.01404000E-02	 8.86277000E-03
					 0.00000000E+00	 0.00000000E+00	 0.00000000E+00
					-6.57506000E-05	-1.79374000E-03	 1.42818000E-04
					-8.26914000E-04	-8.79487000E-03	 4.49854000E-03
					-1.45037000E-03	-2.60233000E-03	 4.47182000E-03
					 0.00000000E+00	 0.00000000E+00	 0.00000000E+00
					 0.00000000E+00	 0.00000000E+00	 0.00000000E+00
					-1.13724000E-04	-9.26373000E-03	 2.15707000E-04
					-9.08271000E-04	-9.92165000E-03	 8.83058000E-03
					 0.00000000E+00	 0.00000000E+00	 0.00000000E+00
					-2.87978000E-05	-2.46182000E-03	 8.87751000E-05
					-2.12509000E-04	-9.59382000E-03	 4.42223000E-03
					-1.12824000E-04	-3.26217000E-03	 4.29454000E-03
					 0.00000000E+00	 0.00000000E+00	 0.00000000E+00
					 1.24092000E-03	-9.05418000E-03	-8.35685000E-03
					 0.00000000E+00	 0.00000000E+00	 0.00000000E+00
					 1.39443000E-04	-9.88686000E-03	-8.54596000E-03
					 0.00000000E+00	 0.00000000E+00	 0.00000000E+00
					 1.32066000E-03	-2.44323000E-03	-4.17787000E-03
					 5.54139000E-04	-8.66280000E-03	-3.97643000E-03
					 0.00000000E+00	 0.00000000E+00	 0.00000000E+00
					 6.85741000E-04	-9.66061000E-03	-8.43056000E-03
					 0.00000000E+00	 0.00000000E+00	 0.00000000E+00
					 6.60299000E-05	-3.12823000E-03	-4.10690000E-03
					 1.89820000E-05	-9.46597000E-03	-4.08622000E-03
					 0.00000000E+00	 0.00000000E+00	 0.00000000E+00
					 0.00000000E+00	 0.00000000E+00	 0.00000000E+00
					-6.69544000E-05	-9.13455000E-03	 1.01334000E-04
					 8.67179000E-04	-9.75068000E-03	 8.69878000E-03
					 0.00000000E+00	 0.00000000E+00	 0.00000000E+00
					 0.00000000E+00	 0.00000000E+00	 0.00000000E+00
					-8.03084000E-05	-9.49246000E-03	 1.34785000E-04
					 2.65617000E-04	-1.01347000E-02	 8.80463000E-03
					 0.00000000E+00	 0.00000000E+00	 0.00000000E+00
					-5.54547000E-06	-1.97071000E-03	 6.02788000E-05
					 3.98423000E-04	-9.24090000E-03	 4.28168000E-03
					 1.22002000E-03	-2.74650000E-03	 4.38825000E-03
					 0.00000000E+00	 0.00000000E+00	 0.00000000E+00
					-9.83858000E-04	-9.51981000E-03	-8.52121000E-03
					 0.00000000E+00	 0.00000000E+00	 0.00000000E+00
					-4.15095000E-04	-9.89527000E-03	-8.56343000E-03
					 0.00000000E+00	 0.00000000E+00	 0.00000000E+00
					-1.21376000E-03	-2.63361000E-03	-4.26293000E-03
					-5.27846000E-04	-9.12573000E-03	-4.08856000E-03
					-3.57046000E-04	-3.38915000E-02	 2.46631000E-04
					-1.99937000E-03	-3.45622000E-02	 1.55712000E-02
					-3.14495000E-04	-3.51466000E-02	 8.14012000E-05
					-1.18801000E-03	-3.58047000E-02	 1.54540000E-02
					-2.32306000E-04	-1.95855000E-02	 3.03115000E-04
					-1.18166000E-03	-3.41420000E-02	 7.85568000E-03
					-1.70802000E-03	-2.03129000E-02	 1.26044000E-02
					-3.35433000E-04	-3.46056000E-02	 1.58852000E-04
					-1.59238000E-03	-3.52638000E-02	 1.54705000E-02
					-1.94555000E-04	-2.05645000E-02	 1.72012000E-04
					-7.45024000E-04	-3.53898000E-02	 7.67474000E-03
					-6.71135000E-04	-2.12743000E-02	 1.25249000E-02
					 1.28974000E-03	-3.39876000E-02	-1.51127000E-02
					 5.59281000E-04	-3.52469000E-02	-1.53231000E-02
					 1.24040000E-03	-1.99016000E-02	-1.20367000E-02
					 4.67811000E-04	-3.38580000E-02	-7.37122000E-03
					 9.26362000E-04	-3.47036000E-02	-1.51834000E-02
					 2.89035000E-04	-2.08769000E-02	-1.22183000E-02
					 1.20691000E-04	-3.51165000E-02	-7.51647000E-03
					-2.84010000E-04	-3.56303000E-02	-5.76669000E-05
					-3.44623000E-04	-3.62490000E-02	 1.52681000E-02
					-2.98594000E-04	-3.54697000E-02	 1.08264000E-05
					-7.63753000E-04	-3.61472000E-02	 1.54566000E-02
					-1.66573000E-04	-2.05420000E-02	 6.74146000E-05
					-3.24321000E-04	-3.58466000E-02	 7.41970000E-03
					 3.83673000E-04	-2.12229000E-02	 1.23717000E-02
					-1.90959000E-04	-3.57236000E-02	-1.54143000E-02
					 1.83237000E-04	-3.55718000E-02	-1.54695000E-02
					-6.90187000E-04	-2.08532000E-02	-1.22698000E-02
					-2.34119000E-04	-3.55946000E-02	-7.53778000E-03
					-6.20899000E-04	-6.89181000E-02	-1.12711000E-04
					-3.13126000E-03	-6.94853000E-02	 1.90057000E-02
					-5.78626000E-04	-7.11879000E-02	-3.17363000E-04
					-2.66490000E-03	-7.18580000E-02	 1.88300000E-02
					-4.88419000E-04	-5.05830000E-02	 1.05000000E-04
					-1.87267000E-03	-6.91499000E-02	 9.47724000E-03
					-2.47526000E-03	-5.12334000E-02	 1.76218000E-02
					-5.98268000E-04	-7.01087000E-02	-2.13546000E-04
					-2.90019000E-03	-7.07362000E-02	 1.88198000E-02
					-4.47584000E-04	-5.22847000E-02	-8.59462000E-05
					-1.64590000E-03	-7.14729000E-02	 9.17973000E-03
					-1.86917000E-03	-5.29307000E-02	 1.74771000E-02
					 1.85241000E-03	-6.87176000E-02	-1.92358000E-02
					 1.50686000E-03	-7.09978000E-02	-1.95029000E-02
					 1.49243000E-03	-5.05356000E-02	-1.74398000E-02
					 6.18379000E-04	-6.87666000E-02	-9.69712000E-03
					 1.67800000E-03	-6.99077000E-02	-1.92793000E-02
					 9.79011000E-04	-5.22232000E-02	-1.76756000E-02
					 4.65326000E-04	-7.10495000E-02	-9.83917000E-03
					-5.45129000E-04	-7.30628000E-02	-5.11470000E-04
					-2.29648000E-03	-7.38473000E-02	 1.86032000E-02
					-5.60895000E-04	-7.21903000E-02	-4.17803000E-04
					-2.48300000E-03	-7.27915000E-02	 1.88475000E-02
					-4.05667000E-04	-5.34144000E-02	-2.57486000E-04
					-1.38884000E-03	-7.34054000E-02	 8.83398000E-03
					-1.28298000E-03	-5.40784000E-02	 1.72641000E-02
					 1.16383000E-03	-7.29012000E-02	-1.96907000E-02
					 1.33617000E-03	-7.19904000E-02	-1.97231000E-02
					 4.37835000E-04	-5.33517000E-02	-1.78068000E-02
					 2.99973000E-04	-7.29506000E-02	-9.90502000E-03
					-7.88121000E-04	-1.08857000E-01	-7.30105000E-04
					-4.36849000E-03	-1.09266000E-01	 2.00340000E-02