<?xml version="1.0"?>
<VTKFile type="UnstructuredGrid" version="0.1" byte_order="LittleEndian">
	<UnstructuredGrid>
		<Piece NumberOfPoints="522" NumberOfCells="64">
			<Points>
				<DataArray type="Float64" NumberOfComponents="3" format="ascii">
					 1.00000000E+00	 1.00000000E+00	-5.96046000E-08
					 1.00000000E+00	 5.00000000E-01	-5.96046000E-08
					 1.00000000E+00	 5.00000000E-01	 1.00000000E+00
					 1.00000000E+00	 1.00000000E+00	 1.00000000E+00
					 5.00000000E-01	 1.00000000E+00	-5.96046000E-08
					 5.00000000E-01	 5.00000000E-01	-5.96046000E-08
					 5.00000000E-01	 5.00000000E-01	 1.00000000E+00
					 5.00000000E-01	 1.00000000E+00	 1.00000000E+00
					 1.00000000E+00	 7.50000000E-01	-5.96046000E-08
					 1.00000000E+00	 5.00000000E-01	 5.00000000E-01
					 1.00000000E+00	 7.50000000E-01	 1.00000000E+00
					 1.00000000E+00	 1.00000000E+00	 5.00000000E-01
					 7.50000000E-01	 1.00000000E+00	-5.96046000E-08
					 7.50000000E-01	 5.00000000E-01	-5.96046000E-08
					 7.50000000E-01	 5.00000000E-01	 1.00000000E+00
					 7.50000000E-01	 1.00000000E+00	 1.00000000E+00
					 5.00000000E-01	 7.50000000E-01	-5.96046000E-08
					 5.00000000E-01	 5.00000000E-01	 5.00000000E-01
					 5.00000000E-01	 7.50000000E-01	 1.00000000E+00
					 5.00000000E-01	 1.00000000E+00	 5.00000000E-01
					 1.00000000E+00	-1.49012000E-08	-5.96046000E-08
					 1.00000000E+00	-1.49012000E-08	 1.00000000E+00
					 5.00000000E-01	-1.49012000E-08	-5.96046000E-08
					 5.00000000E-01	-1.49012000E-08	 1.00000000E+00
					 1.00000000E+00	 2.50000000E-01	-5.96046000E-08
					 1.00000000E+00	-1.49012000E-08	 5.00000000E-01
					 1.00000000E+00	 2.50000000E-01	 1.00000000E+00
					 7.50000000E-01	-1.49012000E-08	-5.96046000E-08
					 7.50000000E-01	-1.49012000E-08	 1.00000000E+00
					 5.00000000E-01	 2.50000000E-01	-5.96046000E-08
					 5.00000000E-01	-1.49012000E-08	 5.00000000E-01
					 5.00000000E-01	 2.50000000E-01	 1.00000000E+00
					-7.45058000E-09	 1.00000000E+00	-5.96046000E-08
					-7.45058000E-09	 5.00000000E-01	-5.96046000E-08
					-7.45058000E-09	 5.00000000E-01	 1.00000000E+00
					-7.45058000E-09	 1.00000000E+00	 1.00000000E+00
					 2.50000000E-01	 1.00000000E+00	-5.96046000E-08
					 2.50000000E-01	 5.00000000E-01	-5.96046000E-08
					 2.50000000E-01	 5.00000000E-01	 1.00000000E+00
					 2.50000000E-01	 1.00000000E+00	 1.00000000E+00
					-7.45058000E-09	 7.50000000E-01	-5.96046000E-08
					-7.45058000E-09	 5.00000000E-01	 5.00000000E-01
					-7.45058000E-09	 7.50000000E-01	 1.00000000E+00
					-7.45058000E-09	 1.00000000E+00	 5.00000000E-01
					-7.45058000E-09	-1.49012000E-08	-5.96046000E-08
					-7.45058000E-09	-1.49012000E-08	 1.00000000E+00
					 2.50000000E-01	-1.49012000E-08	-5.96046000E-08
					 2.50000000E-01	-1.49012000E-08	 1.00000000E+00
					-7.45058000E-09	 2.50000000E-01	-5.96046000E-08
					-7.45058000E-09	-1.49012000E-08	 5.00000000E-01
					-7.45058000E-09	 2.50000000E-01	 1.00000000E+00
					 1.00000000E+00	 5.00000000E-01	 2.00000000E+00
					 1.00000000E+00	 1.00000000E+00	 2.00000000E+00
					 5.00000000E-01	 5.00000000E-01	 2.00000000E+00
					 5.00000000E-01	 1.00000000E+00	 2.00000000E+00
					 1.00000000E+00	 5.00000000E-01	 1.50000000E+00
					 1.00000000E+00	 7.50000000E-01	 2.00000000E+00
					 1.00000000E+00	 1.00000000E+00	 1.50000000E+00
					 7.50000000E-01	 5.00000000E-01	 2.00000000E+00
					 7.50000000E-01	 1.00000000E+00	 2.00000000E+00
					 5.00000000E-01	 5.00000000E-01	 1.50000000E+00
					 5.00000000E-01	 7.50000000E-01	 2.00000000E+00
					 5.00000000E-01	 1.00000000E+00	 1.50000000E+00
					 1.00000000E+00	-1.49012000E-08	 2.00000000E+00
					 5.00000000E-01	-1.49012000E-08	 2.00000000E+00
					 1.00000000E+00	-1.49012000E-08	 1.50000000E+00
					 1.00000000E+00	 2.50000000E-01	 2.00000000E+00
					 7.50000000E-01	-1.49012000E-08	 2.00000000E+00
					 5.00000000E-01	-1.49012000E-08	 1.50000000E+00
					 5.00000000E-01	 2.50000000E-01	 2.00000000E+00
					-7.45058000E-09	 5.00000000E-01	 2.00000000E+00
					-7.45058000E-09	 1.00000000E+00	 2.00000000E+00
					 2.50000000E-01	 5.00000000E-01	 2.00000000E+00
					 2.50000000E-01	 1.00000000E+00	 2.00000000E+00
					-7.45058000E-09	 5.00000000E-01	 1.50000000E+00
					-7.45058000E-09	 7.50000000E-01	 2.00000000E+00
					-7.45058000E-09	 1.00000000E+00	 1.50000000E+00
					-7.45058000E-09	-1.49012000E-08	 2.00000000E+00
					 2.50000000E-01	-1.49012000E-08	 2.00000000E+00
					-7.45058000E-09	-1.49012000E-08	 1.50000000E+00
					-7.45058000E-09	 2.50000000E-01	 2.00000000E+00
					 1.00000000E+00	 5.00000000E-01	 3.00000000E+00
					 1.00000000E+00	 1.00000000E+00	 3.00000000E+00
					 5.00000000E-01	 5.00000000E-01	 3.00000000E+00
					 5.00000000E-01	 1.00000000E+00	 3.00000000E+00
					 1.00000000E+00	 5.00000000E-01	 2.50000000E+00
					 1.00000000E+00	 7.50000000E-01	 3.00000000E+00
					 1.00000000E+00	 1.00000000E+00	 2.50000000E+00
					 7.50000000E-01	 5.00000000E-01	 3.00000000E+00
					 7.50000000E-01	 1.00000000E+00	 3.00000000E+00
					 5.00000000E-01	 5.00000000E-01	 2.50000000E+00
					 5.00000000E-01	 7.50000000E-01	 3.00000000E+00
					 5.00000000E-01	 1.00000000E+00	 2.50000000E+00
					 1.00000000E+00	-1.49012000E-08	 3.00000000E+00
					 5.00000000E-01	-1.49012000E-08	 3.00000000E+00
					 1.00000000E+00	-1.49012000E-08	 2.50000000E+00
					 1.00000000E+00	 2.50000000E-01	 3.00000000E+00
					 7.50000000E-01	-1.49012000E-08	 3.00000000E+00
					 5.00000000E-01	-1.49012000E-08	 2.50000000E+00
					 5.00000000E-01	 2.50000000E-01	 3.00000000E+00
					-7.45058000E-09	 5.00000000E-01	 3.00000000E+00
					-7.45058000E-09	 1.00000000E+00	 3.00000000E+00
					 2.50000000E-01	 5.00000000E-01	 3.00000000E+00
					 2.50000000E-01	 1.00000000E+00	 3.00000000E+00
					-7.45058000E-09	 5.00000000E-01	 2.50000000E+00
					-7.45058000E-09	 7.50000000E-01	 3.00000000E+00
					-7.45058000E-09	 1.00000000E+00	 2.50000000E+00
					-7.45058000E-09	-1.49012000E-08	 3.00000000E+00
					 2.50000000E-01	-1.49012000E-08	 3.00000000E+00
					-7.45058000E-09	-1.49012000E-08	 2.50000000E+00
					-7.45058000E-09	 2.50000000E-01	 3.00000000E+00
					 1.00000000E+00	 5.00000000E-01	 4.00000000E+00
					 1.00000000E+00	 1.00000000E+00	 4.00000000E+00
					 5.00000000E-01	 5.00000000E-01	 4.00000000E+00
					 5.00000000E-01	 1.00000000E+00	 4.00000000E+00
					 1.00000000E+00	 5.00000000E-01	 3.50000000E+00
					 1.00000000E+00	 7.50000000E-01	 4.00000000E+00
					 1.00000000E+00	 1.00000000E+00	 3.50000000E+00
					 7.50000000E-01	 5.00000000E-01	 4.00000000E+00
					 7.50000000E-01	 1.00000000E+00	 4.00000000E+00
					 5.00000000E-01	 5.00000000E-01	 3.50000000E+00
					 5.00000000E-01	 7.50000000E-01	 4.00000000E+00
					 5.00000000E-01	 1.00000000E+00	 3.50000000E+00
					 1.00000000E+00	-1.49012000E-08	 4.00000000E+00
					 5.00000000E-01	-1.49012000E-08	 4.00000000E+00
					 1.00000000E+00	-1.49012000E-08	 3.50000000E+00
					 1.00000000E+00	 2.50000000E-01	 4.00000000E+00
					 7.50000000E-01	-1.49012000E-08	 4.00000000E+00
					 5.00000000E-01	-1.49012000E-08	 3.50000000E+00
					 5.00000000E-01	 2.50000000E-01	 4.00000000E+00
					-7.45058000E-09	 5.00000000E-01	 4.00000000E+00
					-7.45058000E-09	 1.00000000E+00	 4.00000000E+00
					 2.50000000E-01	 5.00000000E-01	 4.00000000E+00
					 2.50000000E-01	 1.00000000E+00	 4.00000000E+00
					-7.45058000E-09	 5.00000000E-01	 3.50000000E+00
					-7.45058000E-09	 7.50000000E-01	 4.00000000E+00
					-7.45058000E-09	 1.00000000E+00	 3.50000000E+00
					-7.45058000E-09	-1.49012000E-08	 4.00000000E+00
					 2.50000000E-01	-1.49012000E-08	 4.00000000E+00
					-7.45058000E-09	-1.49012000E-08	 3.50000000E+00
					-7.45058000E-09	 2.50000000E-01	 4.00000000E+00
					 1.00000000E+00	 5.00000000E-01	 5.00000000E+00
					 1.00000000E+00	 1.00000000E+00	 5.00000000E+00
					 5.00000000E-01	 5.00000000E-01	 5.00000000E+00
					 5.00000000E-01	 1.00000000E+00	 5.00000000E+00
					 1.00000000E+00	 5.00000000E-01	 4.50000000E+00
					 1.00000000E+00	 7.50000000E-01	 5.00000000E+00
					 1.00000000E+00	 1.00000000E+00	 4.50000000E+00
					 7.50000000E-01	 5.00000000E-01	 5.00000000E+00
					 7.50000000E-01	 1.00000000E+00	 5.00000000E+00
					 5.00000000E-01	 5.00000000E-01	 4.50000000E+00
					 5.00000000E-01	 7.50000000E-01	 5.00000000E+00
					 5.00000000E-01	 1.00000000E+00	 4.50000000E+00
					 1.00000000E+00	-1.49012000E-08	 5.00000000E+00
					 5.00000000E-01	-1.49012000E-08	 5.00000000E+00
					 1.00000000E+00	-1.49012000E-08	 4.50000000E+00
					 1.00000000E+00	 2.50000000E-01	 5.00000000E+00
					 7.50000000E-01	-1.49012000E-08	 5.00000000E+00
					 5.00000000E-01	-1.49012000E-08	 4.50000000E+00
					 5.00000000E-01	 2.50000000E-01	 5.00000000E+00
					-7.45058000E-09	 5.00000000E-01	 5.00000000E+00
					-7.45058000E-09	 1.00000000E+00	 5.00000000E+00
					 2.50000000E-01	 5.00000000E-01	 5.00000000E+00
					 2.50000000E-01	 1.00000000E+00	 5.00000000E+00
					-7.45058000E-09	 5.00000000E-01	 4.50000000E+00
					-7.45058000E-09	 7.50000000E-01	 5.00000000E+00
					-7.45058000E-09	 1.00000000E+00	 4.50000000E+00
					-7.45058000E-09	-1.49012000E-08	 5.00000000E+00
					 2.50000000E-01	-1.49012000E-08	 5.00000000E+00
					-7.45058000E-09	-1.49012000E-08	 4.50000000E+00
					-7.45058000E-09	 2.50000000E-01	 5.00000000E+00
					 1.00000000E+00	 5.00000000E-01	 6.00000000E+00
					 1.00000000E+00	 1.00000000E+00	 6.00000000E+00
					 5.00000000E-01	 5.00000000E-01	 6.00000000E+00
					 5.00000000E-01	 1.00000000E+00	 6.00000000E+00
					 1.00000000E+00	 5.00000000E-01	 5.50000000E+00
					 1.00000000E+00	 7.50000000E-01	 6.00000000E+00
					 1.00000000E+00	 1.00000000E+00	 5.50000000E+00
					 7.50000000E-01	 5.00000000E-01	 6.00000000E+00
					 7.50000000E-01	 1.00000000E+00	 6.00000000E+00
					 5.00000000E-01	 5.00000000E-01	 5.50000000E+00
					 5.00000000E-01	 7.50000000E-01	 6.00000000E+00
					 5.00000000E-01	 1.00000000E+00	 5.50000000E+00
					 1.00000000E+00	-1.49012000E-08	 6.00000000E+00
[...]
			<PointData>
				<DataArray type="Float32" Name="U" NumberOfComponents="3" ComponentName0="D1" ComponentName1="D2" ComponentName2="D3" format="ascii">
					 0.00000000E+00	 0.00000000E+00	 0.00000000E+00
					 0.00000000E+00	 0.00000000E+00	 0.00000000E+00
					-1.58448000E-05	 1.86570000E-03	 6.17274000E-05
					 9.97826000E-05	 1.85361000E-03	-9.48843000E-04
					 0.00000000E+00	 0.00000000E+00	 0.00000000E+00
					 0.00000000E+00	 0.00000000E+00	 0.00000000E+00
					-6.04622000E-06	 1.97034000E-03	 5.30406000E-05
					 8.00439000E-05	 1.96476000E-03	-9.86547000E-04
					 0.00000000E+00	 0.00000000E+00	 0.00000000E+00
					-7.90660000E-06	 6.23832000E-04	 2.97141000E-05
					 4.20982000E-05	 1.84816000E-03	-3.83430000E-04
					 2.08227000E-04	 6.93541000E-04	-6.30757000E-04
					 0.00000000E+00	 0.00000000E+00	 0.00000000E+00
					 0.00000000E+00	 0.00000000E+00	 0.00000000E+00
					-1.09407000E-05	 1.92855000E-03	 5.67435000E-05
					 8.93039000E-05	 1.92013000E-03	-9.75361000E-04
					 0.00000000E+00	 0.00000000E+00	 0.00000000E+00
					 1.85270000E-06	 7.46182000E-04	 2.36434000E-05
					 3.73240000E-05	 1.95566000E-03	-4.09917000E-04
					 6.23304000E-05	 8.21040000E-04	-6.35517000E-04
					 0.00000000E+00	 0.00000000E+00	 0.00000000E+00
					-1.30311000E-04	 1.87140000E-03	 1.07034000E-03
					 0.00000000E+00	 0.00000000E+00	 0.00000000E+00
					-9.26835000E-05	 1.98207000E-03	 1.09115000E-03
					 0.00000000E+00	 0.00000000E+00	 0.00000000E+00
					-2.22828000E-04	 7.13583000E-04	 6.91914000E-04
					-7.34440000E-05	 1.85649000E-03	 5.06139000E-04
					 0.00000000E+00	 0.00000000E+00	 0.00000000E+00
					-1.10841000E-04	 1.93758000E-03	 1.08699000E-03
					 0.00000000E+00	 0.00000000E+00	 0.00000000E+00
					-5.84339000E-05	 8.38364000E-04	 6.84709000E-04
					-4.97832000E-05	 1.96380000E-03	 5.15231000E-04
					 0.00000000E+00	 0.00000000E+00	 0.00000000E+00
					 0.00000000E+00	 0.00000000E+00	 0.00000000E+00
					 2.66015000E-06	 2.03855000E-03	 4.40165000E-05
					 7.00285000E-05	 2.03719000E-03	-9.66110000E-04
					 0.00000000E+00	 0.00000000E+00	 0.00000000E+00
					 0.00000000E+00	 0.00000000E+00	 0.00000000E+00
					-1.32542000E-06	 2.01582000E-03	 4.87983000E-05
					 7.63068000E-05	 2.01061000E-03	-9.92436000E-04
					 0.00000000E+00	 0.00000000E+00	 0.00000000E+00
					 9.98154000E-06	 7.44623000E-04	 2.13639000E-05
					 3.46976000E-05	 2.02653000E-03	-3.91843000E-04
					-8.68939000E-05	 8.14435000E-04	-6.39208000E-04
					 0.00000000E+00	 0.00000000E+00	 0.00000000E+00
					-6.65214000E-05	 2.05469000E-03	 1.05322000E-03
					 0.00000000E+00	 0.00000000E+00	 0.00000000E+00
					-8.03776000E-05	 2.02765000E-03	 1.08901000E-03
					 0.00000000E+00	 0.00000000E+00	 0.00000000E+00
					 1.06446000E-04	 8.30683000E-04	 6.83858000E-04
					-3.00612000E-05	 2.03522000E-03	 4.79075000E-04
					-3.11196000E-05	 4.26106000E-03	 1.04150000E-04
					-2.38483000E-04	 4.25370000E-03	-8.57952000E-04
					-2.38937000E-05	 4.03882000E-03	 1.02990000E-04
					-2.58402000E-04	 4.03863000E-03	-8.46879000E-04
					-2.69187000E-05	 3.11340000E-03	 8.52969000E-05
					-1.34962000E-04	 4.25947000E-03	-3.63979000E-04
					-1.77176000E-05	 3.11572000E-03	-9.18142000E-04
					-2.79036000E-05	 4.14793000E-03	 1.04062000E-04
					-2.47525000E-04	 4.14634000E-03	-8.93053000E-04
					-1.83873000E-05	 3.12572000E-03	 7.85432000E-05
					-1.39385000E-04	 4.04277000E-03	-4.03070000E-04
					-6.53334000E-06	 3.13115000E-03	-9.26684000E-04
					 1.76286000E-04	 4.26793000E-03	 1.06693000E-03
					 2.10156000E-04	 4.05415000E-03	 1.05340000E-03
					-3.62260000E-05	 3.13061000E-03	 1.08837000E-03
					 7.28390000E-05	 4.26653000E-03	 5.72527000E-04
					 1.91715000E-04	 4.16117000E-03	 1.10184000E-03
					-3.10597000E-05	 3.14706000E-03	 1.08335000E-03
					 9.16579000E-05	 4.05032000E-03	 6.09326000E-04
					-1.49237000E-05	 3.79172000E-03	 1.00408000E-04
					-2.52870000E-04	 3.80610000E-03	-8.62228000E-04
					-1.95490000E-05	 3.91592000E-03	 1.01596000E-04
					-2.55422000E-04	 3.91694000E-03	-7.93577000E-04
					-9.14638000E-06	 3.13757000E-03	 7.10110000E-05
					-1.38803000E-04	 3.80257000E-03	-4.70355000E-04
					 3.00546000E-05	 3.16256000E-03	-9.32430000E-04
					 2.21649000E-04	 3.82414000E-03	 1.06314000E-03
					 2.15392000E-04	 3.93348000E-03	 9.96901000E-04
					-5.02098000E-05	 3.18157000E-03	 1.07398000E-03
					 1.08696000E-04	 3.81141000E-03	 6.71464000E-04
					-2.77693000E-05	 7.36675000E-03	 1.41314000E-04
					-1.22003000E-03	 7.42512000E-03	-1.44857000E-03
					-2.08514000E-05	 6.08949000E-03	 1.45687000E-04
					-1.37284000E-03	 6.15461000E-03	-1.43813000E-03
					-2.86529000E-05	 5.53371000E-03	 1.23234000E-04
					-6.26209000E-04	 7.37370000E-03	-5.60126000E-04
					-6.17214000E-04	 5.55521000E-03	-1.04624000E-03
					-2.41104000E-05	 6.74877000E-03	 1.43525000E-04
					-1.29600000E-03	 6.81267000E-03	-1.54913000E-03
					-2.19885000E-05	 4.88269000E-03	 1.25537000E-04
					-6.96318000E-04	 6.09860000E-03	-6.58969000E-04
					-7.21258000E-04	 4.91716000E-03	-1.02809000E-03
					 1.16122000E-03	 7.44565000E-03	 1.73188000E-03
					 1.32967000E-03	 6.17878000E-03	 1.73039000E-03
					 5.58878000E-04	 5.57162000E-03	 1.29401000E-03
					 5.69624000E-04	 7.38348000E-03	 8.43378000E-04
					 1.24515000E-03	 6.83620000E-03	 1.83639000E-03
					 6.76793000E-04	 4.93491000E-03	 1.28049000E-03
					 6.54089000E-04	 6.11136000E-03	 9.50651000E-04
					-1.36360000E-05	 4.66410000E-03	 1.48685000E-04
					-1.51678000E-03	 4.72857000E-03	-1.44140000E-03
					-1.74706000E-05	 5.39802000E-03	 1.47397000E-04
					-1.44498000E-03	 5.46368000E-03	-1.32744000E-03
					-1.44359000E-05	 4.13512000E-03	 1.26239000E-04
					-7.63908000E-04	 4.67368000E-03	-7.70760000E-04
					-7.98367000E-04	 4.18132000E-03	-1.04385000E-03
					 1.49021000E-03	 4.75301000E-03	 1.73976000E-03
					 1.40978000E-03	 5.48773000E-03	 1.62350000E-03
					 7.69767000E-04	 4.19956000E-03	 1.29751000E-03
					 7.36876000E-04	 4.68699000E-03	 1.06831000E-03
					-3.35656000E-05	 1.30187000E-02	 1.61682000E-04
					-2.64267000E-03	 1.30740000E-02	-2.47427000E-03
					-2.32674000E-05	 1.03459000E-02	 1.74831000E-04
					-2.76733000E-03	 1.03936000E-02	-2.46407000E-03
					-3.04724000E-05	 9.92061000E-03	 1.54099000E-04
					-1.33606000E-03	 1.30302000E-02	-1.05639000E-03
					-1.95237000E-03	 9.98377000E-03	-1.96880000E-03
					-2.80765000E-05	 1.17001000E-02	 1.68492000E-04
					-2.70557000E-03	 1.17485000E-02	-2.56163000E-03
					-2.25091000E-05	 7.92386000E-03	 1.62402000E-04
					-1.39562000E-03	 1.03525000E-02	-1.13669000E-03
					-2.09741000E-03	 7.98215000E-03	-1.96316000E-03
					 2.56977000E-03	 1.31114000E-02	 2.79591000E-03
					 2.71815000E-03	 1.04379000E-02	 2.81171000E-03
					 1.88635000E-03	 1.00114000E-02	 2.27648000E-03
					 1.26726000E-03	 1.30480000E-02	 1.37936000E-03
					 2.64471000E-03	 1.17913000E-02	 2.89664000E-03
					 2.05001000E-03	 8.01603000E-03	 2.28750000E-03
					 1.34823000E-03	 1.03756000E-02	 1.48584000E-03
					-1.21666000E-05	 7.53298000E-03	 1.88305000E-04
					-2.89866000E-03	 7.57666000E-03	-2.44798000E-03
					-1.83004000E-05	 8.95587000E-03	 1.81278000E-04
					-2.83337000E-03	 9.00320000E-03	-2.36878000E-03
					-1.38839000E-05	 5.77291000E-03	 1.69876000E-04
					-1.45454000E-03	 7.53677000E-03	-1.21003000E-03
					-2.25017000E-03	 5.82372000E-03	-1.95301000E-03
					 2.87503000E-03	 7.62185000E-03	 2.82244000E-03
					 2.79612000E-03	 9.04753000E-03	 2.72938000E-03
					 2.22288000E-03	 5.85875000E-03	 2.29247000E-03
					 1.43053000E-03	 7.56087000E-03	 1.58603000E-03
					-4.53483000E-05	 2.02814000E-02	 1.68691000E-04
					-3.74262000E-03	 2.03265000E-02	-3.38378000E-03
					-2.69391000E-05	 1.65126000E-02	 1.86256000E-04
					-3.86969000E-03	 1.65545000E-02	-3.36470000E-03
					-3.71493000E-05	 1.64734000E-02	 1.66662000E-04
					-1.89368000E-03	 2.02857000E-02	-1.54268000E-03
					-3.23063000E-03	 1.65256000E-02	-2.92180000E-03
					-3.59476000E-05	 1.84159000E-02	 1.77457000E-04
					-3.80625000E-03	 1.84585000E-02	-3.44311000E-03
					-2.31141000E-05	 1.32201000E-02	 1.82747000E-04
					-1.94830000E-03	 1.65141000E-02	-1.59391000E-03
					-3.34575000E-03	 1.32644000E-02	-2.90442000E-03
					 3.64817000E-03	 2.03874000E-02	 3.71907000E-03
					 3.81389000E-03	 1.66192000E-02	 3.73479000E-03
					 3.15140000E-03	 1.65741000E-02	 3.25260000E-03
					 1.80182000E-03	 2.03147000E-02	 1.87950000E-03
					 3.73107000E-03	 1.85229000E-02	 3.79589000E-03
					 3.29711000E-03	 1.33181000E-02	 3.26706000E-03
					 1.89372000E-03	 1.65468000E-02	 1.96581000E-03
					-8.72024000E-06	 1.25980000E-02	 2.05676000E-04
					-4.00144000E-03	 1.26361000E-02	-3.34711000E-03
					-1.79120000E-05	 1.45739000E-02	 1.95524000E-04
					-3.93562000E-03	 1.46149000E-02	-3.28299000E-03
					-8.94159000E-06	 9.83064000E-03	 2.00444000E-04
					-2.00458000E-03	 1.25973000E-02	-1.64807000E-03
					-3.46903000E-03	 9.87138000E-03	-2.88839000E-03
					 3.98456000E-03	 1.27012000E-02	 3.75567000E-03
					 3.89931000E-03	 1.46791000E-02	 3.67142000E-03
					 3.45169000E-03	 9.92562000E-03	 3.28614000E-03
					 1.98734000E-03	 1.26311000E-02	 2.05865000E-03
					-8.51143000E-05	 2.94769000E-02	 1.54506000E-04
					-4.78348000E-03	 2.94891000E-02	-4.35336000E-03
					-6.01807000E-05	 2.47259000E-02	 1.77688000E-04
					-4.86682000E-03	 2.47343000E-02	-4.33954000E-03
					-6.16398000E-05	 2.46016000E-02	 1.65445000E-04
					-2.43428000E-03	 2.94689000E-02	-2.00634000E-03
					-4.25313000E-03	 2.46292000E-02	-3.89262000E-03
					-7.26385000E-05	 2.71159000E-02	 1.66093000E-04
					-4.82565000E-03	 2.71252000E-02	-4.41991000E-03
					-3.96615000E-05	 2.03365000E-02	 1.84897000E-04
					-2.46387000E-03	 2.47148000E-02	-2.05992000E-03
					-4.37576000E-03	 2.03644000E-02	-3.87774000E-03
					 4.61027000E-03	 2.95814000E-02	 4.66246000E-03
					 4.74630000E-03	 2.48304000E-02	 4.69513000E-03
					 4.12677000E-03	 2.47048000E-02	 4.22269000E-03
					 2.26326000E-03	 2.95135000E-02	 2.31566000E-03
					 4.67834000E-03	 2.72214000E-02	 4.75197000E-03
					 4.29558000E-03	 2.04439000E-02	 4.24621000E-03
					 2.34353000E-03	 2.47629000E-02	 2.41542000E-03
					-3.38923000E-05	 1.98654000E-02	 1.99349000E-04
					-4.95581000E-03	 1.98694000E-02	-4.30831000E-03
					-4.74024000E-05	 2.23100000E-02	 1.88775000E-04
					-4.91133000E-03	 2.23176000E-02	-4.26238000E-03
					-1.69632000E-05	 1.59303000E-02	 2.04823000E-04
					-2.49414000E-03	 1.98521000E-02	-2.09601000E-03
					-4.49915000E-03	 1.59550000E-02	-3.85397000E-03
					 4.89064000E-03	 1.99639000E-02	 4.70755000E-03
					 4.81835000E-03	 2.24126000E-02	 4.64030000E-03
					 4.46689000E-03	 1.60337000E-02	 4.26191000E-03
					 2.42698000E-03	 1.98996000E-02	 2.49497000E-03
					-1.38275000E-04	 4.00625000E-02	 1.18357000E-04
					-5.67970000E-03	 4.00284000E-02	-4.83860000E-03
					-1.07639000E-04	 3.45202000E-02	 1.50286000E-04
					-5.66924000E-03	 3.44737000E-02	-4.80607000E-03
					-1.11352000E-04	 3.47218000E-02	 1.37364000E-04
					-2.90701000E-03	 4.00429000E-02	-2.30526000E-03
					-5.28324000E-03	 3.47097000E-02	-4.65748000E-03
					-1.22371000E-04	 3.72940000E-02	 1.34342000E-04
					-5.67469000E-03	 3.72508000E-02	-4.86669000E-03
					-8.39424000E-05	 2.95283000E-02	 1.65349000E-04
					-2.88994000E-03	 3.44940000E-02	-2.31474000E-03
					-5.31267000E-03	 2.95069000E-02	-4.63748000E-03
					 5.39859000E-03	 4.01452000E-02	 5.07154000E-03
					 5.45001000E-03	 3.45963000E-02	 5.10405000E-03
					 5.05651000E-03	 3.48167000E-02	 4.93207000E-03
					 2.62901000E-03	 4.01011000E-02	 2.54041000E-03
					 5.42569000E-03	 3.73718000E-02	 5.13199000E-03
					 5.14351000E-03	 2.96189000E-02	 4.96905000E-03
					 2.67330000E-03	 3.45564000E-02	 2.61425000E-03
					-7.61975000E-05	 2.89470000E-02	 1.84651000E-04
					-5.67143000E-03	 2.88924000E-02	-4.76011000E-03
					-9.26924000E-05	 3.17371000E-02	 1.67363000E-04
					-5.67191000E-03	 3.16879000E-02	-4.74419000E-03
					-5.54659000E-05	 2.42701000E-02	 1.91711000E-04
					-2.87362000E-03	 2.89159000E-02	-2.31184000E-03
					-5.35226000E-03	 2.42438000E-02	-4.59985000E-03
					 5.51635000E-03	 2.90193000E-02	 5.12798000E-03
					 5.48293000E-03	 3.18118000E-02	 5.07801000E-03
					 5.24321000E-03	 2.43552000E-02	 4.98519000E-03
					 2.72051000E-03	 2.89816000E-02	 2.67973000E-03
					-1.88239000E-04	 5.04598000E-02	 7.42363000E-05
					-6.02829000E-03	 5.04245000E-02	-4.96773000E-03
					-1.43614000E-04	 4.46096000E-02	 1.11806000E-04
					-5.98005000E-03	 4.45611000E-02	-4.91404000E-03
					-1.63712000E-04	 4.53317000E-02	 9.84294000E-05
					-3.10452000E-03	 5.04440000E-02	-2.44145000E-03
					-5.92940000E-03	 4.52909000E-02	-4.92696000E-03
					-1.67119000E-04	 4.75400000E-02	 9.18193000E-05
					-6.00471000E-03	 4.74954000E-02	-4.94766000E-03
					-1.27693000E-04	 3.95679000E-02	 1.33129000E-04
					-3.05727000E-03	 4.45869000E-02	-2.39776000E-03
					-5.90118000E-03	 3.95145000E-02	-4.88079000E-03
					 5.65371000E-03	 5.05291000E-02	 5.10279000E-03
					 5.68539000E-03	 4.46624000E-02	 5.12257000E-03
					 5.60090000E-03	 4.54088000E-02	 5.11265000E-03
					 2.72793000E-03	 5.04940000E-02	 2.58599000E-03
					 5.66863000E-03	 4.75969000E-02	 5.11759000E-03
					 5.63948000E-03	 3.96343000E-02	 5.13646000E-03
					 2.76723000E-03	 4.46355000E-02	 2.61727000E-03
					-9.98760000E-05	 3.87544000E-02	 1.61855000E-04
					-5.94632000E-03	 3.86845000E-02	-4.83950000E-03
					-1.20174000E-04	 4.16766000E-02	 1.35413000E-04
					-5.96334000E-03	 4.16222000E-02	-4.87388000E-03
					-9.20297000E-05	 3.37919000E-02	 1.77470000E-04
					-3.01694000E-03	 3.87194000E-02	-2.33682000E-03
					-5.88298000E-03	 3.37227000E-02	-4.81829000E-03
					 5.73110000E-03	 3.88026000E-02	 5.14711000E-03
					 5.70979000E-03	 4.17288000E-02	 5.12924000E-03
					 5.68812000E-03	 3.38553000E-02	 5.16341000E-03
					 2.81331000E-03	 3.87790000E-02	 2.65574000E-03
					 0.00000000E+00	 0.00000000E+00	 0.00000000E+00
					 0.00000000E+00	 0.00000000E+00	 0.00000000E+00
					-2.75883000E-05	-5.12713000E-03	-1.07609000E-04
					-2.24892000E-03	-5.28031000E-03	 4.58398000E-03
					 0.00000000E+00	 0.00000000E+00	 0.00000000E+00
					 0.00000000E+00	 0.00000000E+00	 0.00000000E+00
					-3.89041000E-05	-7.17404000E-03	-1.67635000E-04
					-1.89825000E-03	-7.33892000E-03	 4.62849000E-03
					 0.00000000E+00	 0.00000000E+00	 0.00000000E+00
					 8.90367000E-06	-1.16039000E-03	-4.53319000E-05
					-1.14187000E-03	-5.11984000E-03	 2.21887000E-03
					-1.59109000E-03	-1.56998000E-03	 2.66496000E-03
					 0.00000000E+00	 0.00000000E+00	 0.00000000E+00
					 0.00000000E+00	 0.00000000E+00	 0.00000000E+00
					-3.19234000E-05	-6.23085000E-03	-1.38928000E-04
					-2.06729000E-03	-6.38522000E-03	 4.46502000E-03
					 0.00000000E+00	 0.00000000E+00	 0.00000000E+00
					-7.74929000E-06	-2.38015000E-03	-7.05514000E-05
					-9.68802000E-04	-7.16689000E-03	 2.06010000E-03
					-9.24817000E-04	-2.76293000E-03	 2.60324000E-03
					 0.00000000E+00	 0.00000000E+00	 0.00000000E+00
					 2.19370000E-03	-5.25514000E-03	-4.80574000E-03
					 0.00000000E+00	 0.00000000E+00	 0.00000000E+00
					 1.82326000E-03	-7.32003000E-03	-4.96875000E-03
					 0.00000000E+00	 0.00000000E+00	 0.00000000E+00
					 1.61279000E-03	-1.57487000E-03	-2.76961000E-03
					 1.08570000E-03	-5.10832000E-03	-2.43523000E-03
					 0.00000000E+00	 0.00000000E+00	 0.00000000E+00
					 2.00485000E-03	-6.36374000E-03	-4.74831000E-03
					 0.00000000E+00	 0.00000000E+00	 0.00000000E+00
					 9.13779000E-04	-2.78240000E-03	-2.75719000E-03
					 8.89698000E-04	-7.16019000E-03	-2.39644000E-03
					 0.00000000E+00	 0.00000000E+00	 0.00000000E+00
					 0.00000000E+00	 0.00000000E+00	 0.00000000E+00
					-5.65317000E-05	-8.84680000E-03	-2.19469000E-04
					-1.54204000E-03	-8.98345000E-03	 4.47584000E-03
					 0.00000000E+00	 0.00000000E+00	 0.00000000E+00
					 0.00000000E+00	 0.00000000E+00	 0.00000000E+00
					-4.62021000E-05	-8.08815000E-03	-1.94021000E-04
					-1.72250000E-03	-8.23818000E-03	 4.75113000E-03
					 0.00000000E+00	 0.00000000E+00	 0.00000000E+00
					-3.32473000E-05	-2.99798000E-03	-9.67185000E-05
					-8.00824000E-04	-8.82787000E-03	 1.76800000E-03
					-1.97865000E-04	-3.32545000E-03	 2.61472000E-03
					 0.00000000E+00	 0.00000000E+00	 0.00000000E+00
					 1.43127000E-03	-8.96942000E-03	-4.91608000E-03
					 0.00000000E+00	 0.00000000E+00	 0.00000000E+00
					 1.63119000E-03	-8.22449000E-03	-5.14293000E-03
					 0.00000000E+00	 0.00000000E+00	 0.00000000E+00
					 1.33719000E-04	-3.35447000E-03	-2.82106000E-03
					 6.89394000E-04	-8.82681000E-03	-2.20620000E-03
					-1.36491000E-04	-1.58784000E-02	-2.69864000E-04
					-3.60162000E-03	-1.58974000E-02	 5.55122000E-03
					-1.39915000E-04	-1.93310000E-02	-3.60375000E-04
					-3.58731000E-03	-1.93558000E-02	 5.48507000E-03
					-7.89005000E-05	-1.02674000E-02	-1.83939000E-04
					-1.86956000E-03	-1.58989000E-02	 2.67084000E-03
					-2.99204000E-03	-1.03985000E-02	 5.39109000E-03
					-1.39033000E-04	-1.75946000E-02	-3.17325000E-04
					-3.59626000E-03	-1.76164000E-02	 5.44683000E-03
					-8.71102000E-05	-1.30971000E-02	-2.63896000E-04
					-1.86026000E-03	-1.93552000E-02	 2.52567000E-03
					-2.82790000E-03	-1.32299000E-02	 5.35591000E-03
					 3.33194000E-03	-1.58360000E-02	-6.09055000E-03
					 3.30295000E-03	-1.93030000E-02	-6.20413000E-03
					 2.83593000E-03	-1.03522000E-02	-5.76326000E-03
					 1.59712000E-03	-1.58667000E-02	-3.21101000E-03
					 3.31991000E-03	-1.75657000E-02	-6.07867000E-03
					 2.65502000E-03	-1.31894000E-02	-5.88734000E-03
					 1.58410000E-03	-1.93299000E-02	-3.24369000E-03
					-1.47531000E-04	-2.27665000E-02	-4.50379000E-04
					-3.58133000E-03	-2.27931000E-02	 5.36940000E-03
					-1.43882000E-04	-2.10397000E-02	-4.02998000E-04
					-3.58410000E-03	-2.10898000E-02	 5.51618000E-03
					-9.86891000E-05	-1.57507000E-02	-3.40620000E-04
					-1.86402000E-03	-2.27875000E-02	 2.33657000E-03
					-2.69616000E-03	-1.59038000E-02	 5.23460000E-03
					 3.30965000E-03	-2.27568000E-02	-6.26898000E-03
					 3.30670000E-03	-2.10155000E-02	-6.32299000E-03
					 2.50933000E-03	-1.58752000E-02	-5.91761000E-03
					 1.57531000E-03	-2.27724000E-02	-3.23351000E-03
					-2.25083000E-04	-2.72093000E-02	-4.64984000E-04
					-4.26729000E-03	-2.70966000E-02	 4.87247000E-03
					-2.24939000E-04	-3.12786000E-02	-5.27485000E-04
					-4.39541000E-03	-3.12917000E-02	 4.83308000E-03
					-1.87083000E-04	-2.15431000E-02	-3.63002000E-04
					-2.23770000E-03	-2.71676000E-02	 2.16034000E-03
					-4.05425000E-03	-2.15151000E-02	 5.35668000E-03
					-2.24119000E-04	-2.92289000E-02	-4.92748000E-04
					-4.33524000E-03	-2.91961000E-02	 4.83812000E-03
					-1.89032000E-04	-2.54195000E-02	-4.49249000E-04
					-2.33387000E-03	-3.13054000E-02	 2.08199000E-03
					-4.10373000E-03	-2.54182000E-02	 5.29226000E-03
					 3.76956000E-03	-2.70962000E-02	-5.78253000E-03
					 3.93514000E-03	-3.11828000E-02	-5.90091000E-03
					 3.66990000E-03	-2.14621000E-02	-6.07921000E-03
					 1.77211000E-03	-2.71711000E-02	-3.07694000E-03
					 3.85057000E-03	-2.91196000E-02	-5.83264000E-03
					 3.72440000E-03	-2.53448000E-02	-6.18760000E-03
					 1.85770000E-03	-3.12528000E-02	-3.15540000E-03
					-2.26263000E-04	-3.55237000E-02	-5.95484000E-04
					-4.63137000E-03	-3.56648000E-02	 4.74108000E-03
					-2.25920000E-04	-3.33970000E-02	-5.62912000E-04
					-4.51640000E-03	-3.33441000E-02	 4.83756000E-03
					-1.82086000E-04	-2.93634000E-02	-5.37161000E-04
					-2.39771000E-03	-3.56207000E-02	 1.94829000E-03
					-4.20738000E-03	-2.94047000E-02	 5.18674000E-03
					 4.12984000E-03	-3.54533000E-02	-5.96997000E-03
					 4.03167000E-03	-3.32951000E-02	-5.97560000E-03
					 3.80195000E-03	-2.92964000E-02	-6.25958000E-03
					 1.94528000E-03	-3.55191000E-02	-3.18231000E-03
					-1.81003000E-04	-3.67371000E-02	-6.71422000E-04
					-4.18191000E-03	-3.64167000E-02	 2.56024000E-03