<?xml version="1.0"?>
<VTKFile type="UnstructuredGrid" version="0.1" byte_order="LittleEndian">
	<UnstructuredGrid>
		<Piece NumberOfPoints="522" NumberOfCells="64">
			<Points>
				<DataArray type="Float64" NumberOfComponents="3" format="ascii">
					 1.00000000E+00	 1.00000000E+00	-5.96046000E-08
					 1.00000000E+00	 5.00000000E-01	-5.96046000E-08
					 1.00000000E+00	 5.00000000E-01	 1.00000000E+00
					 1.00000000E+00	 1.00000000E+00	 1.00000000E+00
					 5.00000000E-01	 1.00000000E+00	-5.96046000E-08
					 5.00000000E-01	 5.00000000E-01	-5.96046000E-08
					 5.00000000E-01	 5.00000000E-01	 1.00000000E+00
					 5.00000000E-01	 1.00000000E+00	 1.00000000E+00
					 1.00000000E+00	 7.50000000E-01	-5.96046000E-08
					 1.00000000E+00	 5.00000000E-01	 5.00000000E-01
					 1.00000000E+00	 7.50000000E-01	 1.00000000E+00
					 1.00000000E+00	 1.00000000E+00	 5.00000000E-01
					 7.50000000E-01	 1.00000000E+00	-5.96046000E-08
					 7.50000000E-01	 5.00000000E-01	-5.96046000E-08
					 7.50000000E-01	 5.00000000E-01	 1.00000000E+00
					 7.50000000E-01	 1.00000000E+00	 1.00000000E+00
					 5.00000000E-01	 7.50000000E-01	-5.96046000E-08
					 5.00000000E-01	 5.00000000E-01	 5.00000000E-01
					 5.00000000E-01	 7.50000000E-01	 1.00000000E+00
					 5.00000000E-01	 1.00000000E+00	 5.00000000E-01
					 1.00000000E+00	-1.49012000E-08	-5.96046000E-08
					 1.00000000E+00	-1.49012000E-08	 1.00000000E+00
					 5.00000000E-01	-1.49012000E-08	-5.96046000E-08
					 5.00000000E-01	-1.49012000E-08	 1.00000000E+00
					 1.00000000E+00	 2.50000000E-01	-5.96046000E-08
					 1.00000000E+00	-1.49012000E-08	 5.00000000E-01
					 1.00000000E+00	 2.50000000E-01	 1.00000000E+00
					 7.50000000E-01	-1.49012000E-08	-5.96046000E-08
					 7.50000000E-01	-1.49012000E-08	 1.00000000E+00
					 5.00000000E-01	 2.50000000E-01	-5.96046000E-08
					 5.00000000E-01	-1.49012000E-08	 5.00000000E-01
					 5.00000000E-01	 2.50000000E-01	 1.00000000E+00
					-7.45058000E-09	 1.00000000E+00	-5.96046000E-08
					-7.45058000E-09	 5.00000000E-01	-5.96046000E-08
					-7.45058000E-09	 5.00000000E-01	 1.00000000E+00
					-7.45058000E-09	 1.00000000E+00	 1.00000000E+00
					 2.50000000E-01	 1.00000000E+00	-5.96046000E-08
					 2.50000000E-01	 5.00000000E-01	-5.96046000E-08
					 2.50000000E-01	 5.00000000E-01	 1.00000000E+00
					 2.50000000E-01	 1.00000000E+00	 1.00000000E+00
					-7.45058000E-09	 7.50000000E-01	-5.96046000E-08
					-7.45058000E-09	 5.00000000E-01	 5.00000000E-01
					-7.45058000E-09	 7.50000000E-01	 1.00000000E+00
					-7.45058000E-09	 1.00000000E+00	 5.00000000E-01
					-7.45058000E-09	-1.49012000E-08	-5.96046000E-08
					-7.45058000E-09	-1.49012000E-08	 1.00000000E+00
					 2.50000000E-01	-1.49012000E-08	-5.96046000E-08
					 2.50000000E-01	-1.49012000E-08	 1.00000000E+00
					-7.45058000E-09	 2.50000000E-01	-5.96046000E-08
					-7.45058000E-09	-1.49012000E-08	 5.00000000E-01
					-7.45058000E-09	 2.50000000E-01	 1.00000000E+00
					 1.00000000E+00	 5.00000000E-01	 2.00000000E+00
					 1.00000000E+00	 1.00000000E+00	 2.00000000E+00
					 5.00000000E-01	 5.00000000E-01	 2.00000000E+00
					 5.00000000E-01	 1.00000000E+00	 2.00000000E+00
					 1.00000000E+00	 5.00000000E-01	 1.50000000E+00
					 1.00000000E+00	 7.50000000E-01	 2.00000000E+00
					 1.00000000E+00	 1.00000000E+00	 1.50000000E+00
					 7.50000000E-01	 5.00000000E-01	 2.00000000E+00
					 7.50000000E-01	 1.00000000E+00	 2.00000000E+00
					 5.00000000E-01	 5.00000000E-01	 1.50000000E+00
					 5.00000000E-01	 7.50000000E-01	 2.00000000E+00
					 5.00000000E-01	 1.00000000E+00	 1.50000000E+00
					 1.00000000E+00	-1.49012000E-08	 2.00000000E+00
					 5.00000000E-01	-1.49012000E-08	 2.00000000E+00
					 1.00000000E+00	-1.49012000E-08	 1.50000000E+00
					 1.00000000E+00	 2.50000000E-01	 2.00000000E+00
					 7.50000000E-01	-1.49012000E-08	 2.00000000E+00
					 5.00000000E-01	-1.49012000E-08	 1.50000000E+00
					 5.00000000E-01	 2.50000000E-01	 2.00000000E+00
					-7.45058000E-09	 5.00000000E-01	 2.00000000E+00
					-7.45058000E-09	 1.00000000E+00	 2.00000000E+00
					 2.50000000E-01	 5.00000000E-01	 2.00000000E+00
					 2.50000000E-01	 1.00000000E+00	 2.00000000E+00
					-7.45058000E-09	 5.00000000E-01	 1.50000000E+00
					-7.45058000E-09	 7.50000000E-01	 2.00000000E+00
					-7.45058000E-09	 1.00000000E+00	 1.50000000E+00
					-7.45058000E-09	-1.49012000E-08	 2.00000000E+00
					 2.50000000E-01	-1.49012000E-08	 2.00000000E+00
					-7.45058000E-09	-1.49012000E-08	 1.50000000E+00
					-7.45058000E-09	 2.50000000E-01	 2.00000000E+00
					 1.00000000E+00	 5.00000000E-01	 3.00000000E+00
					 1.00000000E+00	 1.00000000E+00	 3.00000000E+00
					 5.00000000E-01	 5.00000000E-01	 3.00000000E+00
					 5.00000000E-01	 1.00000000E+00	 3.00000000E+00
					 1.00000000E+00	 5.00000000E-01	 2.50000000E+00
					 1.00000000E+00	 7.50000000E-01	 3.00000000E+00
					 1.00000000E+00	 1.00000000E+00	 2.50000000E+00
					 7.50000000E-01	 5.00000000E-01	 3.00000000E+00
					 7.50000000E-01	 1.00000000E+00	 3.00000000E+00
					 5.00000000E-01	 5.00000000E-01	 2.50000000E+00
					 5.00000000E-01	 7.50000000E-01	 3.00000000E+00
					 5.00000000E-01	 1.00000000E+00	 2.50000000E+00
					 1.00000000E+00	-1.49012000E-08	 3.00000000E+00
					 5.00000000E-01	-1.49012000E-08	 3.00000000E+00
					 1.00000000E+00	-1.49012000E-08	 2.50000000E+00
					 1.00000000E+00	 2.50000000E-01	 3.00000000E+00
					 7.50000000E-01	-1.49012000E-08	 3.00000000E+00
					 5.00000000E-01	-1.49012000E-08	 2.50000000E+00
					 5.00000000E-01	 2.50000000E-01	 3.00000000E+00
					-7.45058000E-09	 5.00000000E-01	 3.00000000E+00
					-7.45058000E-09	 1.00000000E+00	 3.00000000E+00
					 2.50000000E-01	 5.00000000E-01	 3.00000000E+00
					 2.50000000E-01	 1.00000000E+00	 3.00000000E+00
					-7.45058000E-09	 5.00000000E-01	 2.50000000E+00
					-7.45058000E-09	 7.50000000E-01	 3.00000000E+00
					-7.45058000E-09	 1.00000000E+00	 2.50000000E+00
					-7.45058000E-09	-1.49012000E-08	 3.00000000E+00
					 2.50000000E-01	-1.49012000E-08	 3.00000000E+00
					-7.45058000E-09	-1.49012000E-08	 2.50000000E+00
					-7.45058000E-09	 2.50000000E-01	 3.00000000E+00
					 1.00000000E+00	 5.00000000E-01	 4.00000000E+00
					 1.00000000E+00	 1.00000000E+00	 4.00000000E+00
					 5.00000000E-01	 5.00000000E-01	 4.00000000E+00
					 5.00000000E-01	 1.00000000E+00	 4.00000000E+00
					 1.00000000E+00	 5.00000000E-01	 3.50000000E+00
					 1.00000000E+00	 7.50000000E-01	 4.00000000E+00
					 1.00000000E+00	 1.00000000E+00	 3.50000000E+00
					 7.50000000E-01	 5.00000000E-01	 4.00000000E+00
					 7.50000000E-01	 1.00000000E+00	 4.00000000E+00
					 5.00000000E-01	 5.00000000E-01	 3.50000000E+00
					 5.00000000E-01	 7.50000000E-01	 4.00000000E+00
					 5.00000000E-01	 1.00000000E+00	 3.50000000E+00
					 1.00000000E+00	-1.49012000E-08	 4.00000000E+00
					 5.00000000E-01	-1.49012000E-08	 4.00000000E+00
					 1.00000000E+00	-1.49012000E-08	 3.50000000E+00
					 1.00000000E+00	 2.50000000E-01	 4.00000000E+00
					 7.50000000E-01	-1.49012000E-08	 4.00000000E+00
					 5.00000000E-01	-1.49012000E-08	 3.50000000E+00
					 5.00000000E-01	 2.50000000E-01	 4.00000000E+00
					-7.45058000E-09	 5.00000000E-01	 4.00000000E+00
					-7.45058000E-09	 1.00000000E+00	 4.00000000E+00
					 2.50000000E-01	 5.00000000E-01	 4.00000000E+00
					 2.50000000E-01	 1.00000000E+00	 4.00000000E+00
					-7.45058000E-09	 5.00000000E-01	 3.50000000E+00
					-7.45058000E-09	 7.50000000E-01	 4.00000000E+00
					-7.45058000E-09	 1.00000000E+00	 3.50000000E+00
					-7.45058000E-09	-1.49012000E-08	 4.00000000E+00
					 2.50000000E-01	-1.49012000E-08	 4.00000000E+00
					-7.45058000E-09	-1.49012000E-08	 3.50000000E+00
					-7.45058000E-09	 2.50000000E-01	 4.00000000E+00
					 1.00000000E+00	 5.00000000E-01	 5.00000000E+00
					 1.00000000E+00	 1.00000000E+00	 5.00000000E+00
					 5.00000000E-01	 5.00000000E-01	 5.00000000E+00
					 5.00000000E-01	 1.00000000E+00	 5.00000000E+00
					 1.00000000E+00	 5.00000000E-01	 4.50000000E+00
					 1.00000000E+00	 7.50000000E-01	 5.00000000E+00
					 1.00000000E+00	 1.00000000E+00	 4.50000000E+00
					 7.50000000E-01	 5.00000000E-01	 5.00000000E+00
					 7.50000000E-01	 1.00000000E+00	 5.00000000E+00
					 5.00000000E-01	 5.00000000E-01	 4.50000000E+00
					 5.00000000E-01	 7.50000000E-01	 5.00000000E+00
					 5.00000000E-01	 1.00000000E+00	 4.50000000E+00
					 1.00000000E+00	-1.49012000E-08	 5.00000000E+00
					 5.00000000E-01	-1.49012000E-08	 5.00000000E+00
					 1.00000000E+00	-1.49012000E-08	 4.50000000E+00
					 1.00000000E+00	 2.50000000E-01	 5.00000000E+00
					 7.50000000E-01	-1.49012000E-08	 5.00000000E+00
					 5.00000000E-01	-1.49012000E-08	 4.50000000E+00
					 5.00000000E-01	 2.50000000E-01	 5.00000000E+00
					-7.45058000E-09	 5.00000000E-01	 5.00000000E+00
					-7.45058000E-09	 1.00000000E+00	 5.00000000E+00
					 2.50000000E-01	 5.00000000E-01	 5.00000000E+00
					 2.50000000E-01	 1.00000000E+00	 5.00000000E+00
					-7.45058000E-09	 5.00000000E-01	 4.50000000E+00
					-7.45058000E-09	 7.50000000E-01	 5.00000000E+00
					-7.45058000E-09	 1.00000000E+00	 4.50000000E+00
					-7.45058000E-09	-1.49012000E-08	 5.00000000E+00
					 2.50000000E-01	-1.49012000E-08	 5.00000000E+00
					-7.45058000E-09	-1.49012000E-08	 4.50000000E+00
					-7.45058000E-09	 2.50000000E-01	 5.00000000E+00
					 1.00000000E+00	 5.00000000E-01	 6.00000000E+00
					 1.00000000E+00	 1.00000000E+00	 6.00000000E+00
					 5.00000000E-01	 5.00000000E-01	 6.00000000E+00
					 5.00000000E-01	 1.00000000E+00	 6.00000000E+00
					 1.00000000E+00	 5.00000000E-01	 5.50000000E+00
					 1.00000000E+00	 7.50000000E-01	 6.00000000E+00
					 1.00000000E+00	 1.00000000E+00	 5.50000000E+00
					 7.50000000E-01	 5.00000000E-01	 6.00000000E+00
					 7.50000000E-01	 1.00000000E+00	 6.00000000E+00
					 5.00000000E-01	 5.00000000E-01	 5.50000000E+00
					 5.00000000E-01	 7.50000000E-01	 6.00000000E+00
					 5.00000000E-01	 1.00000000E+00	 5.50000000E+00
					 1.00000000E+00	-1.49012000E-08	 6.00000000E+00
[...]
			<PointData>
				<DataArray type="Float32" Name="U" NumberOfComponents="3" ComponentName0="D1" ComponentName1="D2" ComponentName2="D3" format="ascii">
					 0.00000000E+00	 0.00000000E+00	 0.00000000E+00
					 0.00000000E+00	 0.00000000E+00	 0.00000000E+00
					-1.86032000E-05	 4.71905000E-03	 1.97788000E-05
					-2.20602000E-04	 4.88400000E-03	-3.51887000E-03
					 0.00000000E+00	 0.00000000E+00	 0.00000000E+00
					 0.00000000E+00	 0.00000000E+00	 0.00000000E+00
					-1.38313000E-05	 4.30343000E-03	 1.80247000E-05
					-6.44328000E-04	 4.48235000E-03	-3.56215000E-03
					 0.00000000E+00	 0.00000000E+00	 0.00000000E+00
					-1.05914000E-05	 1.33952000E-03	 1.41418000E-05
					-1.18686000E-04	 4.72494000E-03	-1.64076000E-03
					 2.32355000E-04	 1.61477000E-03	-1.83623000E-03
					 0.00000000E+00	 0.00000000E+00	 0.00000000E+00
					 0.00000000E+00	 0.00000000E+00	 0.00000000E+00
					-1.63563000E-05	 4.58456000E-03	 1.77687000E-05
					-4.35014000E-04	 4.75636000E-03	-3.60343000E-03
					 0.00000000E+00	 0.00000000E+00	 0.00000000E+00
					-6.55540000E-06	 1.27111000E-03	 9.94525000E-06
					-3.28478000E-04	 4.31360000E-03	-1.72172000E-03
					-3.10451000E-04	 1.56330000E-03	-1.79532000E-03
					 0.00000000E+00	 0.00000000E+00	 0.00000000E+00
					 1.81568000E-04	 4.92007000E-03	 3.55403000E-03
					 0.00000000E+00	 0.00000000E+00	 0.00000000E+00
					 6.15644000E-04	 4.52103000E-03	 3.59300000E-03
					 0.00000000E+00	 0.00000000E+00	 0.00000000E+00
					-2.54272000E-04	 1.63505000E-03	 1.86423000E-03
					 8.07659000E-05	 4.74174000E-03	 1.67914000E-03
					 0.00000000E+00	 0.00000000E+00	 0.00000000E+00
					 4.01294000E-04	 4.79472000E-03	 3.63364000E-03
					 0.00000000E+00	 0.00000000E+00	 0.00000000E+00
					 2.97086000E-04	 1.58273000E-03	 1.81524000E-03
					 3.00447000E-04	 4.33251000E-03	 1.75585000E-03
					 0.00000000E+00	 0.00000000E+00	 0.00000000E+00
					 0.00000000E+00	 0.00000000E+00	 0.00000000E+00
					-7.88447000E-06	 3.45913000E-03	 1.97364000E-05
					-1.06166000E-03	 3.62719000E-03	-3.51916000E-03
					 0.00000000E+00	 0.00000000E+00	 0.00000000E+00
					 0.00000000E+00	 0.00000000E+00	 0.00000000E+00
					-1.09147000E-05	 3.95574000E-03	 1.87995000E-05
					-8.50054000E-04	 4.12675000E-03	-3.48392000E-03
					 0.00000000E+00	 0.00000000E+00	 0.00000000E+00
					-2.57824000E-06	 7.31970000E-04	 1.00644000E-05
					-5.37543000E-04	 3.46635000E-03	-1.75940000E-03
					-8.28301000E-04	 1.03213000E-03	-1.84062000E-03
					 0.00000000E+00	 0.00000000E+00	 0.00000000E+00
					 1.04584000E-03	 3.66739000E-03	 3.55385000E-03
					 0.00000000E+00	 0.00000000E+00	 0.00000000E+00
					 8.27259000E-04	 4.16581000E-03	 3.51697000E-03
					 0.00000000E+00	 0.00000000E+00	 0.00000000E+00
					 8.23682000E-04	 1.05241000E-03	 1.86002000E-03
					 5.21729000E-04	 3.48686000E-03	 1.79683000E-03
					-3.14465000E-05	 1.53258000E-02	-1.01936000E-05
					-7.86776000E-04	 1.54843000E-02	-6.33811000E-03
					-2.60880000E-05	 1.43647000E-02	-3.05501000E-06
					-1.19296000E-03	 1.45219000E-02	-6.33038000E-03
					-2.49383000E-05	 9.40963000E-03	 1.16393000E-05
					-4.07120000E-04	 1.53599000E-02	-3.15489000E-03
					-5.57326000E-04	 9.61496000E-03	-4.95884000E-03
					-2.91047000E-05	 1.48931000E-02	-7.30544000E-06
					-9.90011000E-04	 1.50483000E-02	-6.35712000E-03
					-1.99871000E-05	 8.68488000E-03	 1.41180000E-05
					-6.10065000E-04	 1.43983000E-02	-3.17157000E-03
					-9.54613000E-04	 8.87684000E-03	-4.96097000E-03
					 7.22169000E-04	 1.55760000E-02	 6.31260000E-03
					 1.13949000E-03	 1.46159000E-02	 6.31926000E-03
					 5.04804000E-04	 9.67454000E-03	 4.97695000E-03
					 3.43687000E-04	 1.54051000E-02	 3.13341000E-03
					 9.30557000E-04	 1.51418000E-02	 6.33745000E-03
					 9.13478000E-04	 8.93881000E-03	 4.98392000E-03
					 5.57647000E-04	 1.44453000E-02	 3.16438000E-03
					-1.89032000E-05	 1.29933000E-02	 8.76516000E-06
					-1.60436000E-03	 1.31418000E-02	-6.31907000E-03
					-2.26106000E-05	 1.37253000E-02	 2.41636000E-06
					-1.39976000E-03	 1.38805000E-02	-6.29848000E-03
					-1.38226000E-05	 7.54159000E-03	 2.07973000E-05
					-8.10476000E-04	 1.30209000E-02	-3.18482000E-03
					-1.36533000E-03	 7.72982000E-03	-4.94977000E-03
					 1.56564000E-03	 1.32395000E-02	 6.33166000E-03
					 1.35322000E-03	 1.39756000E-02	 6.29845000E-03
					 1.33789000E-03	 7.79443000E-03	 4.98599000E-03
					 7.72660000E-04	 1.30704000E-02	 3.20126000E-03
					-4.52331000E-05	 3.13044000E-02	-1.16122000E-04
					-1.18908000E-03	 3.13886000E-02	-9.14974000E-03
					-4.06850000E-05	 2.99711000E-02	-9.69233000E-05
					-1.55219000E-03	 3.00617000E-02	-9.14852000E-03
					-3.76471000E-05	 2.25665000E-02	-5.03155000E-05
					-6.19922000E-04	 3.12978000E-02	-4.56399000E-03
					-9.66215000E-04	 2.26942000E-02	-7.77228000E-03
					-4.32539000E-05	 3.06849000E-02	-1.07639000E-04
					-1.37062000E-03	 3.07749000E-02	-9.18537000E-03
					-3.30623000E-05	 2.14303000E-02	-3.82171000E-05
					-7.95573000E-04	 2.99664000E-02	-4.58675000E-03
					-1.37268000E-03	 2.15591000E-02	-7.76572000E-03
					 1.09473000E-03	 3.15624000E-02	 8.91101000E-03
					 1.46863000E-03	 3.02418000E-02	 8.94796000E-03
					 8.88380000E-04	 2.28244000E-02	 7.66583000E-03
					 5.28396000E-04	 3.13827000E-02	 4.33069000E-03
					 1.28118000E-03	 3.09533000E-02	 8.96297000E-03
					 1.30496000E-03	 2.16932000E-02	 7.68352000E-03
					 7.13782000E-04	 3.00558000E-02	 4.39140000E-03
					-3.32818000E-05	 2.82840000E-02	-7.18050000E-05
					-1.90500000E-03	 2.83706000E-02	-9.10544000E-03
					-3.75019000E-05	 2.91758000E-02	-8.49153000E-05
					-1.72881000E-03	 2.92649000E-02	-9.11209000E-03
					-2.60453000E-05	 1.98889000E-02	-2.07566000E-05
					-9.67682000E-04	 2.82784000E-02	-4.57022000E-03
					-1.77710000E-03	 2.00124000E-02	-7.74268000E-03
					 1.83765000E-03	 2.85547000E-02	 8.95541000E-03
					 1.65228000E-03	 2.94467000E-02	 8.93587000E-03
					 1.72427000E-03	 2.01503000E-02	 7.69568000E-03
					 9.01206000E-04	 2.83701000E-02	 4.42501000E-03
					-5.30421000E-05	 5.26566000E-02	-3.25201000E-04
					-2.01120000E-03	 5.25934000E-02	-1.10440000E-02
					-4.51701000E-05	 5.06322000E-02	-2.80533000E-04
					-2.13618000E-03	 5.05705000E-02	-1.10250000E-02
					-5.11591000E-05	 4.14727000E-02	-2.10625000E-04
					-1.03259000E-03	 5.26124000E-02	-5.56030000E-03
					-1.53676000E-03	 4.14795000E-02	-1.02692000E-02
					-4.91632000E-05	 5.16592000E-02	-3.02813000E-04
					-2.07351000E-03	 5.15965000E-02	-1.11087000E-02
					-4.57409000E-05	 3.98525000E-02	-1.79824000E-04
					-1.08987000E-03	 5.05878000E-02	-5.59986000E-03
					-1.79333000E-03	 3.98657000E-02	-1.02656000E-02
					 1.90276000E-03	 5.28399000E-02	 1.03912000E-02
					 2.04474000E-03	 5.08219000E-02	 1.04608000E-02
					 1.43064000E-03	 4.16933000E-02	 9.84276000E-03
					 9.25906000E-04	 5.27302000E-02	 4.90918000E-03
					 1.97333000E-03	 5.18489000E-02	 1.05004000E-02
					 1.69967000E-03	 4.00867000E-02	 9.90015000E-03
					 9.99346000E-04	 5.07114000E-02	 5.03799000E-03
					-3.56520000E-05	 4.84769000E-02	-2.32036000E-04
					-2.24906000E-03	 4.84213000E-02	-1.09511000E-02
					-4.08046000E-05	 4.95706000E-02	-2.57321000E-04
					-2.19258000E-03	 4.95106000E-02	-1.09444000E-02
					-3.78237000E-05	 3.79806000E-02	-1.43723000E-04
					-1.14397000E-03	 4.84346000E-02	-5.58586000E-03
					-2.03196000E-03	 3.79978000E-02	-1.02026000E-02
					 2.17762000E-03	 4.86735000E-02	 1.04830000E-02
					 2.11053000E-03	 4.97607000E-02	 1.04262000E-02
					 1.95527000E-03	 3.82220000E-02	 9.90902000E-03
					 1.07274000E-03	 4.85604000E-02	 5.12081000E-03
					-5.71277000E-05	 7.60250000E-02	-5.59094000E-04
					-3.16453000E-03	 7.58678000E-02	-1.14312000E-02
					-4.13198000E-05	 7.29516000E-02	-4.93944000E-04
					-3.08987000E-03	 7.27911000E-02	-1.13779000E-02
					-5.30664000E-05	 6.43281000E-02	-4.44237000E-04
					-1.60917000E-03	 7.59576000E-02	-5.88976000E-03
					-2.57027000E-03	 6.42120000E-02	-1.13829000E-02
					-4.89838000E-05	 7.44807000E-02	-5.26478000E-04
					-3.12683000E-03	 7.43183000E-02	-1.14880000E-02
					-4.14110000E-05	 6.18005000E-02	-3.88093000E-04
					-1.56581000E-03	 7.28811000E-02	-5.91278000E-03
					-2.58251000E-03	 6.16843000E-02	-1.13472000E-02
					 3.05126000E-03	 7.61377000E-02	 1.03142000E-02
					 3.00880000E-03	 7.30586000E-02	 1.03912000E-02
					 2.46372000E-03	 6.44760000E-02	 1.04942000E-02
					 1.49498000E-03	 7.60878000E-02	 4.77160000E-03
					 3.03005000E-03	 7.45908000E-02	 1.04364000E-02
					 2.50009000E-03	 6.19491000E-02	 1.05703000E-02
					 1.48349000E-03	 7.30140000E-02	 4.92504000E-03
					-2.71916000E-05	 6.99273000E-02	-4.29767000E-04
					-3.01689000E-03	 6.97731000E-02	-1.13011000E-02
					-3.39556000E-05	 7.14317000E-02	-4.61575000E-04
					-3.05328000E-03	 7.12744000E-02	-1.12686000E-02
					-2.98938000E-05	 5.92467000E-02	-3.30344000E-04
					-1.52393000E-03	 6.98579000E-02	-5.91390000E-03
					-2.58686000E-03	 5.91393000E-02	-1.12690000E-02
					 2.96490000E-03	 7.00361000E-02	 1.04425000E-02
					 2.98740000E-03	 7.15368000E-02	 1.03464000E-02
					 2.52840000E-03	 5.94014000E-02	 1.06067000E-02
					 1.47012000E-03	 6.99916000E-02	 5.05445000E-03
					-7.40146000E-05	 9.83108000E-02	-7.65165000E-04
					-4.16439000E-03	 9.81415000E-02	-1.10393000E-02
					-5.31893000E-05	 9.42779000E-02	-6.86148000E-04
					-4.03798000E-03	 9.41022000E-02	-1.09575000E-02
					-6.51518000E-05	 8.74016000E-02	-6.66145000E-04
					-2.11716000E-03	 9.82410000E-02	-5.85243000E-03
					-3.70810000E-03	 8.72373000E-02	-1.12740000E-02
					-6.33524000E-05	 9.62823000E-02	-7.25570000E-04
					-4.10120000E-03	 9.61061000E-02	-1.10549000E-02
					-4.65974000E-05	 8.38118000E-02	-5.93455000E-04
					-2.04589000E-03	 9.42039000E-02	-5.82906000E-03
					-3.59276000E-03	 8.36407000E-02	-1.12056000E-02
					 4.01718000E-03	 9.83982000E-02	 9.51036000E-03
					 3.93373000E-03	 9.43560000E-02	 9.58679000E-03
					 3.57866000E-03	 8.75021000E-02	 9.94293000E-03
					 1.96926000E-03	 9.83675000E-02	 4.32233000E-03
					 3.97590000E-03	 9.63639000E-02	 9.60544000E-03
					 3.50138000E-03	 8.39027000E-02	 1.00203000E-02
					 1.94010000E-03	 9.43314000E-02	 4.45712000E-03
					-3.37064000E-05	 9.03380000E-02	-6.10571000E-04
					-3.92170000E-03	 9.01633000E-02	-1.08839000E-02
					-4.33667000E-05	 9.22942000E-02	-6.47559000E-04
					-3.97988000E-03	 9.21206000E-02	-1.08588000E-02
					-2.96179000E-05	 8.03080000E-02	-5.23559000E-04
					-1.97803000E-03	 9.02627000E-02	-5.81499000E-03
					-3.48681000E-03	 8.01389000E-02	-1.11300000E-02
					 3.85741000E-03	 9.04125000E-02	 9.66441000E-03
					 3.89596000E-03	 9.23700000E-02	 9.56516000E-03
					 3.43023000E-03	 8.03964000E-02	 1.00845000E-02
					 1.91147000E-03	 9.03901000E-02	 4.59438000E-03
					-8.70970000E-05	 1.18751000E-01	-9.43323000E-04
					-4.75035000E-03	 1.18624000E-01	-1.07863000E-02
					-6.34194000E-05	 1.14100000E-01	-8.57919000E-04
					-4.70188000E-03	 1.13969000E-01	-1.06968000E-02
					-8.05953000E-05	 1.08703000E-01	-8.56259000E-04
					-2.41729000E-03	 1.18690000E-01	-5.85161000E-03
					-4.50275000E-03	 1.08554000E-01	-1.08547000E-02
					-7.49528000E-05	 1.16425000E-01	-9.00629000E-04
					-4.72566000E-03	 1.16294000E-01	-1.07704000E-02
					-5.81961000E-05	 1.04318000E-01	-7.72766000E-04
					-2.38223000E-03	 1.14036000E-01	-5.79571000E-03
					-4.40903000E-03	 1.04164000E-01	-1.07620000E-02
					 4.57668000E-03	 1.18870000E-01	 8.89756000E-03
					 4.57659000E-03	 1.14213000E-01	 8.97928000E-03
					 4.34223000E-03	 1.08804000E-01	 9.14223000E-03
					 2.24318000E-03	 1.18813000E-01	 3.96420000E-03
					 4.57674000E-03	 1.16540000E-01	 8.96739000E-03
					 4.29471000E-03	 1.04411000E-01	 9.21678000E-03
					 2.25584000E-03	 1.14159000E-01	 4.07936000E-03
					-4.06816000E-05	 1.09470000E-01	-7.73727000E-04
					-4.66743000E-03	 1.09333000E-01	-1.06246000E-02
					-5.21447000E-05	 1.11781000E-01	-8.15459000E-04
					-4.68489000E-03	 1.11650000E-01	-1.06208000E-02
					-3.70136000E-05	 9.99955000E-02	-6.92099000E-04
					-2.35232000E-03	 1.09401000E-01	-5.75758000E-03
					-4.32707000E-03	 9.98399000E-02	-1.06917000E-02
					 4.58851000E-03	 1.09574000E-01	 9.07599000E-03
					 4.58270000E-03	 1.11891000E-01	 8.98863000E-03
					 4.25632000E-03	 1.00083000E-01	 9.30793000E-03
					 2.27167000E-03	 1.09524000E-01	 4.20973000E-03
					-1.07337000E-04	 1.38576000E-01	-1.12732000E-03
					-5.00830000E-03	 1.38465000E-01	-1.09739000E-02
					-8.17381000E-05	 1.33698000E-01	-1.04150000E-03
					-4.98178000E-03	 1.33581000E-01	-1.09046000E-02
					-9.63455000E-05	 1.28689000E-01	-1.03266000E-03
					-2.56146000E-03	 1.38519000E-01	-6.04081000E-03
					-4.92389000E-03	 1.28565000E-01	-1.08600000E-02
					-9.46346000E-05	 1.36135000E-01	-1.08469000E-03
					-4.99459000E-03	 1.36023000E-01	-1.09434000E-02
					-7.17909000E-05	 1.23864000E-01	-9.46775000E-04
					-2.53565000E-03	 1.33638000E-01	-5.96906000E-03
					-4.89842000E-03	 1.23739000E-01	-1.07821000E-02
					 4.79481000E-03	 1.38704000E-01	 8.71407000E-03
					 4.81798000E-03	 1.33820000E-01	 8.81714000E-03
					 4.73222000E-03	 1.28809000E-01	 8.79050000E-03
					 2.34711000E-03	 1.38637000E-01	 3.78479000E-03
					 4.80582000E-03	 1.36262000E-01	 8.76910000E-03
					 4.75530000E-03	 1.23982000E-01	 8.88503000E-03
					 2.37214000E-03	 1.33756000E-01	 3.88492000E-03
					-5.65064000E-05	 1.28808000E-01	-9.53972000E-04
					-4.97948000E-03	 1.28681000E-01	-1.08320000E-02
					-6.90126000E-05	 1.31257000E-01	-9.97794000E-04
					-4.98155000E-03	 1.31138000E-01	-1.08675000E-02
					-4.75754000E-05	 1.19035000E-01	-8.60180000E-04
					-2.51693000E-03	 1.28742000E-01	-5.89301000E-03
					-4.89006000E-03	 1.18903000E-01	-1.07091000E-02
					 4.86475000E-03	 1.28923000E-01	 8.92038000E-03
					 4.84232000E-03	 1.31378000E-01	 8.86808000E-03
					 4.79500000E-03	 1.19146000E-01	 8.98602000E-03
					 2.40353000E-03	 1.28863000E-01	 3.98400000E-03
					 0.00000000E+00	 0.00000000E+00	 0.00000000E+00
					 0.00000000E+00	 0.00000000E+00	 0.00000000E+00
					-7.29468000E-05	-6.56305000E-03	 8.77324000E-05
					-2.19528000E-03	-6.95648000E-03	 6.64817000E-03
					 0.00000000E+00	 0.00000000E+00	 0.00000000E+00
					 0.00000000E+00	 0.00000000E+00	 0.00000000E+00
					-5.65972000E-05	-8.32156000E-03	 7.32637000E-06
					-1.44065000E-03	-8.72735000E-03	 6.66146000E-03
					 0.00000000E+00	 0.00000000E+00	 0.00000000E+00
					-2.48346000E-05	-1.37300000E-03	 4.91309000E-05
					-1.13962000E-03	-6.62097000E-03	 3.36533000E-03
					-1.67700000E-03	-1.98387000E-03	 3.54172000E-03
					 0.00000000E+00	 0.00000000E+00	 0.00000000E+00
					 0.00000000E+00	 0.00000000E+00	 0.00000000E+00
					-6.26704000E-05	-7.57711000E-03	 4.53870000E-05
					-1.80927000E-03	-7.97134000E-03	 6.53990000E-03
					 0.00000000E+00	 0.00000000E+00	 0.00000000E+00
					-1.32431000E-05	-2.49190000E-03	 9.73675000E-06
					-7.49721000E-04	-8.37865000E-03	 3.21074000E-03
					-6.94129000E-04	-3.07690000E-03	 3.42467000E-03
					 0.00000000E+00	 0.00000000E+00	 0.00000000E+00
					 2.05333000E-03	-6.81910000E-03	-6.48928000E-03
					 0.00000000E+00	 0.00000000E+00	 0.00000000E+00
					 1.33662000E-03	-8.60352000E-03	-6.66281000E-03
					 0.00000000E+00	 0.00000000E+00	 0.00000000E+00
					 1.63273000E-03	-1.90790000E-03	-3.44746000E-03
					 9.93937000E-04	-6.55190000E-03	-3.19612000E-03
					 0.00000000E+00	 0.00000000E+00	 0.00000000E+00
					 1.69082000E-03	-7.84076000E-03	-6.46445000E-03
					 0.00000000E+00	 0.00000000E+00	 0.00000000E+00
					 6.76838000E-04	-3.02299000E-03	-3.40770000E-03
					 6.36843000E-04	-8.31835000E-03	-3.20214000E-03
					 0.00000000E+00	 0.00000000E+00	 0.00000000E+00
					 0.00000000E+00	 0.00000000E+00	 0.00000000E+00
					-5.04370000E-05	-9.33740000E-03	-6.06048000E-05
					-6.78760000E-04	-9.69794000E-03	 6.50408000E-03
					 0.00000000E+00	 0.00000000E+00	 0.00000000E+00
					 0.00000000E+00	 0.00000000E+00	 0.00000000E+00
					-5.16617000E-05	-8.96170000E-03	-2.88132000E-05
					-1.06334000E-03	-9.34339000E-03	 6.71804000E-03
					 0.00000000E+00	 0.00000000E+00	 0.00000000E+00
					-1.37770000E-05	-2.74255000E-03	-1.76170000E-05
					-3.65965000E-04	-9.37534000E-03	 2.96729000E-03
					 3.27243000E-04	-3.28231000E-03	 3.47526000E-03
					 0.00000000E+00	 0.00000000E+00	 0.00000000E+00
					 5.88653000E-04	-9.59280000E-03	-6.63631000E-03
					 0.00000000E+00	 0.00000000E+00	 0.00000000E+00
					 9.68378000E-04	-9.23103000E-03	-6.79051000E-03
					 0.00000000E+00	 0.00000000E+00	 0.00000000E+00
					-3.45025000E-04	-3.24542000E-03	-3.51508000E-03
					 2.68364000E-04	-9.32770000E-03	-3.09152000E-03
					-2.34226000E-04	-2.37600000E-02	 6.03264000E-05
					-3.62755000E-03	-2.41557000E-02	 1.08724000E-02
					-2.08252000E-04	-2.68917000E-02	-9.86958000E-05
					-3.08504000E-03	-2.72797000E-02	 1.07373000E-02
					-1.43418000E-04	-1.41624000E-02	 9.14373000E-05
					-1.93311000E-03	-2.39059000E-02	 5.52479000E-03
					-2.88769000E-03	-1.46158000E-02	 9.00429000E-03
					-2.20728000E-04	-2.53803000E-02	-2.23042000E-05
					-3.35546000E-03	-2.57682000E-02	 1.07059000E-02
					-1.24410000E-04	-1.65998000E-02	-2.89095000E-05
					-1.64243000E-03	-2.70319000E-02	 5.28361000E-03
					-2.24001000E-03	-1.70371000E-02	 8.91605000E-03
					 3.16999000E-03	-2.38549000E-02	-1.07649000E-02
					 2.67277000E-03	-2.70050000E-02	-1.09460000E-02
					 2.60576000E-03	-1.44016000E-02	-8.83876000E-03
					 1.46673000E-03	-2.37524000E-02	-5.40820000E-03
					 2.92410000E-03	-2.54893000E-02	-1.07598000E-02
					 1.99990000E-03	-1.68423000E-02	-8.99038000E-03
					 1.23166000E-03	-2.68963000E-02	-5.48097000E-03
					-1.96056000E-04	-2.95126000E-02	-2.44306000E-04
					-2.53435000E-03	-2.98719000E-02	 1.05675000E-02
					-2.01204000E-04	-2.82543000E-02	-1.71347000E-04
					-2.80766000E-03	-2.86616000E-02	 1.07681000E-02
					-1.15996000E-04	-1.84008000E-02	-1.36017000E-04
					-1.37202000E-03	-2.96327000E-02	 5.01027000E-03
					-1.60017000E-03	-1.88298000E-02	 8.77825000E-03
					 2.17555000E-03	-2.96327000E-02	-1.10679000E-02
					 2.42467000E-03	-2.83718000E-02	-1.11256000E-02
					 1.39005000E-03	-1.86627000E-02	-9.06430000E-03
					 9.89086000E-04	-2.95196000E-02	-5.49731000E-03
					-4.31407000E-04	-4.78931000E-02	-1.15875000E-04
					-5.08483000E-03	-4.81805000E-02	 1.33709000E-02
					-3.92530000E-04	-5.23663000E-02	-3.24542000E-04
					-4.75985000E-03	-5.27705000E-02	 1.32003000E-02
					-3.31272000E-04	-3.50565000E-02	-7.30318000E-06
					-2.75019000E-03	-4.79991000E-02	 6.62566000E-03
					-4.39219000E-03	-3.54281000E-02	 1.23562000E-02
					-4.09869000E-04	-5.01669000E-02	-2.18022000E-04
					-4.92467000E-03	-5.05282000E-02	 1.31980000E-02
					-3.00485000E-04	-3.88993000E-02	-1.98350000E-04
					-2.60159000E-03	-5.25333000E-02	 6.33607000E-03
					-3.94470000E-03	-3.92795000E-02	 1.21979000E-02
					 4.18799000E-03	-4.77838000E-02	-1.35927000E-02
					 3.97720000E-03	-5.22889000E-02	-1.38739000E-02
					 3.73001000E-03	-3.50555000E-02	-1.23796000E-02
					 1.87542000E-03	-4.78033000E-02	-6.84694000E-03
					 4.08214000E-03	-5.00719000E-02	-1.36533000E-02
					 3.35310000E-03	-3.89076000E-02	-1.26038000E-02
					 1.79369000E-03	-5.22983000E-02	-7.00622000E-03
					-3.66066000E-04	-5.66075000E-02	-5.28435000E-04
					-4.55562000E-03	-5.71250000E-02	 1.29553000E-02
					-3.77937000E-04	-5.45351000E-02	-4.29417000E-04
					-4.65973000E-03	-5.48696000E-02	 1.32160000E-02
					-2.71352000E-04	-4.23415000E-02	-3.78017000E-04
					-2.43175000E-03	-5.68343000E-02	 5.97115000E-03
					-3.53842000E-03	-4.27373000E-02	 1.19895000E-02
					 3.78530000E-03	-5.65649000E-02	-1.40627000E-02
					 3.88245000E-03	-5.44533000E-02	-1.41002000E-02
					 2.96463000E-03	-4.23523000E-02	-1.27565000E-02
					 1.70206000E-03	-5.65692000E-02	-7.07308000E-03
					-5.61664000E-04	-7.59983000E-02	-4.18204000E-04
					-5.72858000E-03	-7.60011000E-02	 1.31360000E-02