# vtk DataFile Version 3.0

ASCII
DATASET UNSTRUCTURED_GRID

POINTS 522 double
	 1.00000000E+00	 1.00000000E+00	-5.96046000E-08
	 1.00000000E+00	 5.00000000E-01	-5.96046000E-08
	 1.00000000E+00	 5.00000000E-01	 1.00000000E+00
	 1.00000000E+00	 1.00000000E+00	 1.00000000E+00
	 5.00000000E-01	 1.00000000E+00	-5.96046000E-08
	 5.00000000E-01	 5.00000000E-01	-5.96046000E-08
	 5.00000000E-01	 5.00000000E-01	 1.00000000E+00
	 5.00000000E-01	 1.00000000E+00	 1.00000000E+00
	 1.00000000E+00	 7.50000000E-01	-5.96046000E-08
	 1.00000000E+00	 5.00000000E-01	 5.00000000E-01
	 1.00000000E+00	 7.50000000E-01	 1.00000000E+00
	 1.00000000E+00	 1.00000000E+00	 5.00000000E-01
	 7.50000000E-01	 1.00000000E+00	-5.96046000E-08
	 7.50000000E-01	 5.00000000E-01	-5.96046000E-08
	 7.50000000E-01	 5.00000000E-01	 1.00000000E+00
	 7.50000000E-01	 1.00000000E+00	 1.00000000E+00
	 5.00000000E-01	 7.50000000E-01	-5.96046000E-08
	 5.00000000E-01	 5.00000000E-01	 5.00000000E-01
	 5.00000000E-01	 7.50000000E-01	 1.00000000E+00
	 5.00000000E-01	 1.00000000E+00	 5.00000000E-01
	 1.00000000E+00	-1.49012000E-08	-5.96046000E-08
	 1.00000000E+00	-1.49012000E-08	 1.00000000E+00
	 5.00000000E-01	-1.49012000E-08	-5.96046000E-08
	 5.00000000E-01	-1.49012000E-08	 1.00000000E+00
	 1.00000000E+00	 2.50000000E-01	-5.96046000E-08
	 1.00000000E+00	-1.49012000E-08	 5.00000000E-01
	 1.00000000E+00	 2.50000000E-01	 1.00000000E+00
	 7.50000000E-01	-1.49012000E-08	-5.96046000E-08
	 7.50000000E-01	-1.49012000E-08	 1.00000000E+00
	 5.00000000E-01	 2.50000000E-01	-5.96046000E-08
	 5.00000000E-01	-1.49012000E-08	 5.00000000E-01
	 5.00000000E-01	 2.50000000E-01	 1.00000000E+00
	-7.45058000E-09	 1.00000000E+00	-5.96046000E-08
	-7.45058000E-09	 5.00000000E-01	-5.96046000E-08
	-7.45058000E-09	 5.00000000E-01	 1.00000000E+00
	-7.45058000E-09	 1.00000000E+00	 1.00000000E+00
	 2.50000000E-01	 1.00000000E+00	-5.96046000E-08
	 2.50000000E-01	 5.00000000E-01	-5.96046000E-08
	 2.50000000E-01	 5.00000000E-01	 1.00000000E+00
	 2.50000000E-01	 1.00000000E+00	 1.00000000E+00
	-7.45058000E-09	 7.50000000E-01	-5.96046000E-08
	-7.45058000E-09	 5.00000000E-01	 5.00000000E-01
	-7.45058000E-09	 7.50000000E-01	 1.00000000E+00
	-7.45058000E-09	 1.00000000E+00	 5.00000000E-01
	-7.45058000E-09	-1.49012000E-08	-5.96046000E-08
	-7.45058000E-09	-1.49012000E-08	 1.00000000E+00
	 2.50000000E-01	-1.49012000E-08	-5.96046000E-08
	 2.50000000E-01	-1.49012000E-08	 1.00000000E+00
	-7.45058000E-09	 2.50000000E-01	-5.96046000E-08
	-7.45058000E-09	-1.49012000E-08	 5.00000000E-01
	-7.45058000E-09	 2.50000000E-01	 1.00000000E+00
	 1.00000000E+00	 5.00000000E-01	 2.00000000E+00
	 1.00000000E+00	 1.00000000E+00	 2.00000000E+00
	 5.00000000E-01	 5.00000000E-01	 2.00000000E+00
	 5.00000000E-01	 1.00000000E+00	 2.00000000E+00
	 1.00000000E+00	 5.00000000E-01	 1.50000000E+00
	 1.00000000E+00	 7.50000000E-01	 2.00000000E+00
	 1.00000000E+00	 1.00000000E+00	 1.50000000E+00
	 7.50000000E-01	 5.00000000E-01	 2.00000000E+00
	 7.50000000E-01	 1.00000000E+00	 2.00000000E+00
	 5.00000000E-01	 5.00000000E-01	 1.50000000E+00
	 5.00000000E-01	 7.50000000E-01	 2.00000000E+00
	 5.00000000E-01	 1.00000000E+00	 1.50000000E+00
	 1.00000000E+00	-1.49012000E-08	 2.00000000E+00
	 5.00000000E-01	-1.49012000E-08	 2.00000000E+00
	 1.00000000E+00	-1.49012000E-08	 1.50000000E+00
	 1.00000000E+00	 2.50000000E-01	 2.00000000E+00
	 7.50000000E-01	-1.49012000E-08	 2.00000000E+00
	 5.00000000E-01	-1.49012000E-08	 1.50000000E+00
	 5.00000000E-01	 2.50000000E-01	 2.00000000E+00
	-7.45058000E-09	 5.00000000E-01	 2.00000000E+00
	-7.45058000E-09	 1.00000000E+00	 2.00000000E+00
	 2.50000000E-01	 5.00000000E-01	 2.00000000E+00
	 2.50000000E-01	 1.00000000E+00	 2.00000000E+00
	-7.45058000E-09	 5.00000000E-01	 1.50000000E+00
	-7.45058000E-09	 7.50000000E-01	 2.00000000E+00
	-7.45058000E-09	 1.00000000E+00	 1.50000000E+00
	-7.45058000E-09	-1.49012000E-08	 2.00000000E+00
	 2.50000000E-01	-1.49012000E-08	 2.00000000E+00
	-7.45058000E-09	-1.49012000E-08	 1.50000000E+00
	-7.45058000E-09	 2.50000000E-01	 2.00000000E+00
	 1.00000000E+00	 5.00000000E-01	 3.00000000E+00
	 1.00000000E+00	 1.00000000E+00	 3.00000000E+00
	 5.00000000E-01	 5.00000000E-01	 3.00000000E+00
	 5.00000000E-01	 1.00000000E+00	 3.00000000E+00
	 1.00000000E+00	 5.00000000E-01	 2.50000000E+00
	 1.00000000E+00	 7.50000000E-01	 3.00000000E+00
	 1.00000000E+00	 1.00000000E+00	 2.50000000E+00
	 7.50000000E-01	 5.00000000E-01	 3.00000000E+00
	 7.50000000E-01	 1.00000000E+00	 3.00000000E+00
	 5.00000000E-01	 5.00000000E-01	 2.50000000E+00
	 5.00000000E-01	 7.50000000E-01	 3.00000000E+00
	 5.00000000E-01	 1.00000000E+00	 2.50000000E+00
	 1.00000000E+00	-1.49012000E-08	 3.00000000E+00
	 5.00000000E-01	-1.49012000E-08	 3.00000000E+00
	 1.00000000E+00	-1.49012000E-08	 2.50000000E+00
	 1.00000000E+00	 2.50000000E-01	 3.00000000E+00
	 7.50000000E-01	-1.49012000E-08	 3.00000000E+00
	 5.00000000E-01	-1.49012000E-08	 2.50000000E+00
	 5.00000000E-01	 2.50000000E-01	 3.00000000E+00
	-7.45058000E-09	 5.00000000E-01	 3.00000000E+00
	-7.45058000E-09	 1.00000000E+00	 3.00000000E+00
	 2.50000000E-01	 5.00000000E-01	 3.00000000E+00
	 2.50000000E-01	 1.00000000E+00	 3.00000000E+00
	-7.45058000E-09	 5.00000000E-01	 2.50000000E+00
	-7.45058000E-09	 7.50000000E-01	 3.00000000E+00
	-7.45058000E-09	 1.00000000E+00	 2.50000000E+00
	-7.45058000E-09	-1.49012000E-08	 3.00000000E+00
	 2.50000000E-01	-1.49012000E-08	 3.00000000E+00
	-7.45058000E-09	-1.49012000E-08	 2.50000000E+00
	-7.45058000E-09	 2.50000000E-01	 3.00000000E+00
	 1.00000000E+00	 5.00000000E-01	 4.00000000E+00
	 1.00000000E+00	 1.00000000E+00	 4.00000000E+00
	 5.00000000E-01	 5.00000000E-01	 4.00000000E+00
	 5.00000000E-01	 1.00000000E+00	 4.00000000E+00
	 1.00000000E+00	 5.00000000E-01	 3.50000000E+00
	 1.00000000E+00	 7.50000000E-01	 4.00000000E+00
	 1.00000000E+00	 1.00000000E+00	 3.50000000E+00
	 7.50000000E-01	 5.00000000E-01	 4.00000000E+00
	 7.50000000E-01	 1.00000000E+00	 4.00000000E+00
	 5.00000000E-01	 5.00000000E-01	 3.50000000E+00
	 5.00000000E-01	 7.50000000E-01	 4.00000000E+00
	 5.00000000E-01	 1.00000000E+00	 3.50000000E+00
	 1.00000000E+00	-1.49012000E-08	 4.00000000E+00
	 5.00000000E-01	-1.49012000E-08	 4.00000000E+00
	 1.00000000E+00	-1.49012000E-08	 3.50000000E+00
	 1.00000000E+00	 2.50000000E-01	 4.00000000E+00
	 7.50000000E-01	-1.49012000E-08	 4.00000000E+00
	 5.00000000E-01	-1.49012000E-08	 3.50000000E+00
	 5.00000000E-01	 2.50000000E-01	 4.00000000E+00
	-7.45058000E-09	 5.00000000E-01	 4.00000000E+00
	-7.45058000E-09	 1.00000000E+00	 4.00000000E+00
	 2.50000000E-01	 5.00000000E-01	 4.00000000E+00
	 2.50000000E-01	 1.00000000E+00	 4.00000000E+00
	-7.45058000E-09	 5.00000000E-01	 3.50000000E+00
	-7.45058000E-09	 7.50000000E-01	 4.00000000E+00
	-7.45058000E-09	 1.00000000E+00	 3.50000000E+00
	-7.45058000E-09	-1.49012000E-08	 4.00000000E+00
	 2.50000000E-01	-1.49012000E-08	 4.00000000E+00
	-7.45058000E-09	-1.49012000E-08	 3.50000000E+00
	-7.45058000E-09	 2.50000000E-01	 4.00000000E+00
	 1.00000000E+00	 5.00000000E-01	 5.00000000E+00
	 1.00000000E+00	 1.00000000E+00	 5.00000000E+00
	 5.00000000E-01	 5.00000000E-01	 5.00000000E+00
	 5.00000000E-01	 1.00000000E+00	 5.00000000E+00
	 1.00000000E+00	 5.00000000E-01	 4.50000000E+00
	 1.00000000E+00	 7.50000000E-01	 5.00000000E+00
	 1.00000000E+00	 1.00000000E+00	 4.50000000E+00
	 7.50000000E-01	 5.00000000E-01	 5.00000000E+00
	 7.50000000E-01	 1.00000000E+00	 5.00000000E+00
	 5.00000000E-01	 5.00000000E-01	 4.50000000E+00
	 5.00000000E-01	 7.50000000E-01	 5.00000000E+00
	 5.00000000E-01	 1.00000000E+00	 4.50000000E+00
	 1.00000000E+00	-1.49012000E-08	 5.00000000E+00
	 5.00000000E-01	-1.49012000E-08	 5.00000000E+00
	 1.00000000E+00	-1.49012000E-08	 4.50000000E+00
	 1.00000000E+00	 2.50000000E-01	 5.00000000E+00
	 7.50000000E-01	-1.49012000E-08	 5.00000000E+00
	 5.00000000E-01	-1.49012000E-08	 4.50000000E+00
	 5.00000000E-01	 2.50000000E-01	 5.00000000E+00
	-7.45058000E-09	 5.00000000E-01	 5.00000000E+00
	-7.45058000E-09	 1.00000000E+00	 5.00000000E+00
	 2.50000000E-01	 5.00000000E-01	 5.00000000E+00
	 2.50000000E-01	 1.00000000E+00	 5.00000000E+00
	-7.45058000E-09	 5.00000000E-01	 4.50000000E+00
	-7.45058000E-09	 7.50000000E-01	 5.00000000E+00
	-7.45058000E-09	 1.00000000E+00	 4.50000000E+00
	-7.45058000E-09	-1.49012000E-08	 5.00000000E+00
	 2.50000000E-01	-1.49012000E-08	 5.00000000E+00
	-7.45058000E-09	-1.49012000E-08	 4.50000000E+00
	-7.45058000E-09	 2.50000000E-01	 5.00000000E+00
	 1.00000000E+00	 5.00000000E-01	 6.00000000E+00
	 1.00000000E+00	 1.00000000E+00	 6.00000000E+00
	 5.00000000E-01	 5.00000000E-01	 6.00000000E+00
	 5.00000000E-01	 1.00000000E+00	 6.00000000E+00
	 1.00000000E+00	 5.00000000E-01	 5.50000000E+00
	 1.00000000E+00	 7.50000000E-01	 6.00000000E+00
	 1.00000000E+00	 1.00000000E+00	 5.50000000E+00
	 7.50000000E-01	 5.00000000E-01	 6.00000000E+00
	 7.50000000E-01	 1.00000000E+00	 6.00000000E+00
	 5.00000000E-01	 5.00000000E-01	 5.50000000E+00
	 5.00000000E-01	 7.50000000E-01	 6.00000000E+00
	 5.00000000E-01	 1.00000000E+00	 5.50000000E+00
	 1.00000000E+00	-1.49012000E-08	 6.00000000E+00
	 5.00000000E-01	-1.49012000E-08	 6.00000000E+00
	 1.00000000E+00	-1.49012000E-08	 5.50000000E+00
	 1.00000000E+00	 2.50000000E-01	 6.00000000E+00
	 7.50000000E-01	-1.49012000E-08	 6.00000000E+00
	 5.00000000E-01	-1.49012000E-08	 5.50000000E+00
	 5.00000000E-01	 2.50000000E-01	 6.00000000E+00
	-7.45058000E-09	 5.00000000E-01	 6.00000000E+00
	-7.45058000E-09	 1.00000000E+00	 6.00000000E+00
	 2.50000000E-01	 5.00000000E-01	 6.00000000E+00
	 2.50000000E-01	 1.00000000E+00	 6.00000000E+00
	-7.45058000E-09	 5.00000000E-01	 5.50000000E+00
	-7.45058000E-09	 7.50000000E-01	 6.00000000E+00
	-7.45058000E-09	 1.00000000E+00	 5.50000000E+00
	-7.45058000E-09	-1.49012000E-08	 6.00000000E+00
	 2.50000000E-01	-1.49012000E-08	 6.00000000E+00
	-7.45058000E-09	-1.49012000E-08	 5.50000000E+00
	-7.45058000E-09	 2.50000000E-01	 6.00000000E+00
	 1.00000000E+00	 5.00000000E-01	 7.00000000E+00
[...]
POINT_DATA 522
FIELD U 1
	U 3 522 double
		 0.00000000E+00	 0.00000000E+00	 0.00000000E+00
		 0.00000000E+00	 0.00000000E+00	 0.00000000E+00
		-4.46679000E-06	 1.43868000E-03	-6.55739000E-06
		 1.16278000E-03	 1.54381000E-03	-2.06587000E-03
		 0.00000000E+00	 0.00000000E+00	 0.00000000E+00
		 0.00000000E+00	 0.00000000E+00	 0.00000000E+00
		-4.82892000E-06	 2.48628000E-03	-1.29600000E-05
		 9.22238000E-04	 2.59596000E-03	-2.09938000E-03
		 0.00000000E+00	 0.00000000E+00	 0.00000000E+00
		-1.15009000E-07	 1.14039000E-04	-2.51580000E-06
		 5.81146000E-04	 1.44589000E-03	-1.08457000E-03
		 7.52433000E-04	 3.01734000E-04	-1.07727000E-03
		 0.00000000E+00	 0.00000000E+00	 0.00000000E+00
		 0.00000000E+00	 0.00000000E+00	 0.00000000E+00
		-4.48416000E-06	 2.00656000E-03	-1.00739000E-05
		 1.04032000E-03	 2.11143000E-03	-2.00180000E-03
		 0.00000000E+00	 0.00000000E+00	 0.00000000E+00
		-1.37328000E-06	 7.09363000E-04	-5.55818000E-06
		 4.57667000E-04	 2.49354000E-03	-1.02148000E-03
		 4.57875000E-04	 8.83354000E-04	-1.05383000E-03
		 0.00000000E+00	 0.00000000E+00	 0.00000000E+00
		-1.17275000E-03	 1.55486000E-03	 2.05190000E-03
		 0.00000000E+00	 0.00000000E+00	 0.00000000E+00
		-9.30947000E-04	 2.60707000E-03	 2.07300000E-03
		 0.00000000E+00	 0.00000000E+00	 0.00000000E+00
		-7.52875000E-04	 3.04803000E-04	 1.07155000E-03
		-5.90414000E-04	 1.45201000E-03	 1.07102000E-03
		 0.00000000E+00	 0.00000000E+00	 0.00000000E+00
		-1.04935000E-03	 2.12242000E-03	 1.98126000E-03
		 0.00000000E+00	 0.00000000E+00	 0.00000000E+00
		-4.59600000E-04	 8.84999000E-04	 1.04248000E-03
		-4.67021000E-04	 2.49928000E-03	 9.95397000E-04
		 0.00000000E+00	 0.00000000E+00	 0.00000000E+00
		 0.00000000E+00	 0.00000000E+00	 0.00000000E+00
		-5.42709000E-06	 3.29173000E-03	-1.83362000E-05
		 6.71030000E-04	 3.38778000E-03	-2.07706000E-03
		 0.00000000E+00	 0.00000000E+00	 0.00000000E+00
		 0.00000000E+00	 0.00000000E+00	 0.00000000E+00
		-5.17049000E-06	 2.93111000E-03	-1.56263000E-05
		 7.97942000E-04	 3.03626000E-03	-2.17545000E-03
		 0.00000000E+00	 0.00000000E+00	 0.00000000E+00
		-3.41013000E-06	 1.03150000E-03	-8.25147000E-06
		 3.34151000E-04	 3.29409000E-03	-9.27888000E-04
		 1.26895000E-04	 1.18554000E-03	-1.08273000E-03
		 0.00000000E+00	 0.00000000E+00	 0.00000000E+00
		-6.79289000E-04	 3.39638000E-03	 2.04065000E-03
		 0.00000000E+00	 0.00000000E+00	 0.00000000E+00
		-8.06402000E-04	 3.04718000E-03	 2.14370000E-03
		 0.00000000E+00	 0.00000000E+00	 0.00000000E+00
		-1.31677000E-04	 1.18479000E-03	 1.06605000E-03
		-3.44148000E-04	 3.29752000E-03	 8.91604000E-04
		-4.03865000E-06	 6.52807000E-03	-2.25345000E-05
		 1.93974000E-03	 6.58684000E-03	-3.46649000E-03
		-1.61552000E-06	 8.38986000E-03	-3.51395000E-05
		 1.77995000E-03	 8.45310000E-03	-3.48569000E-03
		-5.74910000E-06	 3.62297000E-03	-1.38779000E-05
		 9.67666000E-04	 6.54151000E-03	-1.77469000E-03
		 1.58326000E-03	 3.71660000E-03	-2.84703000E-03
		-2.44352000E-06	 7.47468000E-03	-2.86068000E-05
		 1.86108000E-03	 7.53732000E-03	-3.43028000E-03
		-5.07319000E-06	 5.10464000E-03	-2.21502000E-05
		 8.89977000E-04	 8.40716000E-03	-1.74454000E-03
		 1.37392000E-03	 5.20320000E-03	-2.86720000E-03
		-1.94754000E-03	 6.62017000E-03	 3.41929000E-03
		-1.78192000E-03	 8.48447000E-03	 3.41304000E-03
		-1.59561000E-03	 3.73818000E-03	 2.81804000E-03
		-9.75763000E-04	 6.55892000E-03	 1.72889000E-03
		-1.86531000E-03	 7.56924000E-03	 3.37101000E-03
		-1.38311000E-03	 5.22466000E-03	 2.82155000E-03
		-8.92936000E-04	 8.42305000E-03	 1.67363000E-03
		-9.08083000E-07	 1.00895000E-02	-4.63227000E-05
		 1.62819000E-03	 1.01608000E-02	-3.49088000E-03
		-1.27052000E-06	 9.25713000E-03	-4.12904000E-05
		 1.70420000E-03	 9.32020000E-03	-3.54423000E-03
		-5.23664000E-06	 6.37964000E-03	-2.96708000E-05
		 8.10297000E-04	 1.01109000E-02	-1.69790000E-03
		 1.17719000E-03	 6.48830000E-03	-2.86297000E-03
		-1.62764000E-03	 1.01884000E-02	 3.39571000E-03
		-1.70488000E-03	 9.35073000E-03	 3.45923000E-03
		-1.18511000E-03	 6.50684000E-03	 2.80226000E-03
		-8.11436000E-04	 1.01240000E-02	 1.60461000E-03
		-9.04284000E-06	 1.37417000E-02	-4.87288000E-05
		 2.56281000E-03	 1.38004000E-02	-4.45834000E-03
		-3.29223000E-06	 1.62354000E-02	-7.38753000E-05
		 2.40700000E-03	 1.62936000E-02	-4.47524000E-03
		-4.84788000E-06	 9.93167000E-03	-3.26739000E-05
		 1.27780000E-03	 1.37512000E-02	-2.31513000E-03
		 2.26228000E-03	 9.99037000E-03	-3.95735000E-03
		-6.15604000E-06	 1.50088000E-02	-6.11862000E-05
		 2.48499000E-03	 1.50666000E-02	-4.42301000E-03
		-7.48943000E-07	 1.21276000E-02	-5.21176000E-05
		 1.20160000E-03	 1.62455000E-02	-2.29369000E-03
		 2.12111000E-03	 1.21864000E-02	-3.97696000E-03
		-2.57876000E-03	 1.38500000E-02	 4.35757000E-03
		-2.41225000E-03	 1.63392000E-02	 4.32429000E-03
		-2.27061000E-03	 1.00317000E-02	 3.88835000E-03
		-1.29533000E-03	 1.37767000E-02	 2.21655000E-03
		-2.49538000E-03	 1.51134000E-02	 4.29759000E-03
		-2.12126000E-03	 1.22245000E-02	 3.86932000E-03
		-1.20786000E-03	 1.62682000E-02	 2.14503000E-03
		 6.91758000E-07	 1.85609000E-02	-9.71968000E-05
		 2.25069000E-03	 1.86239000E-02	-4.50732000E-03
		-8.90689000E-07	 1.74185000E-02	-8.59714000E-05
		 2.32910000E-03	 1.74778000E-02	-4.52376000E-03
		 1.49140000E-06	 1.41738000E-02	-6.94189000E-05
		 1.12438000E-03	 1.85731000E-02	-2.28839000E-03
		 1.98473000E-03	 1.42422000E-02	-3.99459000E-03
		-2.24877000E-03	 1.86677000E-02	 4.30971000E-03
		-2.33017000E-03	 1.75229000E-02	 4.34855000E-03
		-1.98025000E-03	 1.42773000E-02	 3.85244000E-03
		-1.12285000E-03	 1.85946000E-02	 2.09313000E-03
		-1.50035000E-05	 2.29750000E-02	-9.71056000E-05
		 3.23345000E-03	 2.30722000E-02	-5.99893000E-03
		-6.11839000E-06	 2.60743000E-02	-1.40405000E-04
		 2.95475000E-03	 2.61782000E-02	-6.03314000E-03
		-1.13857000E-05	 1.79978000E-02	-7.05888000E-05
		 1.60791000E-03	 2.29858000E-02	-3.11714000E-03
		 2.88758000E-03	 1.80790000E-02	-5.12956000E-03
		-1.00394000E-05	 2.45616000E-02	-1.18630000E-04
		 3.09456000E-03	 2.46628000E-02	-5.96628000E-03
		-4.13620000E-06	 2.07849000E-02	-1.02157000E-04
		 1.47335000E-03	 2.60883000E-02	-3.10777000E-03
		 2.67220000E-03	 2.08681000E-02	-5.14675000E-03
		-3.25809000E-03	 2.31626000E-02	 5.80195000E-03
		-2.96330000E-03	 2.62576000E-02	 5.74939000E-03
		-2.90681000E-03	 1.81442000E-02	 4.98605000E-03
		-1.63677000E-03	 2.30323000E-02	 2.92202000E-03
		-3.10978000E-03	 2.47463000E-02	 5.72646000E-03
		-2.67809000E-03	 2.09262000E-02	 4.93977000E-03
		-1.48489000E-03	 2.61281000E-02	 2.82625000E-03
		-2.45933000E-06	 2.88925000E-02	-1.81244000E-04
		 2.66618000E-03	 2.89936000E-02	-6.08320000E-03
		-3.39472000E-06	 2.75195000E-02	-1.61542000E-04
		 2.81091000E-03	 2.76241000E-02	-6.09568000E-03
		-2.31780000E-07	 2.33481000E-02	-1.32212000E-04
		 1.33355000E-03	 2.89056000E-02	-3.11508000E-03
		 2.45071000E-03	 2.34319000E-02	-5.19180000E-03
		-2.66844000E-03	 2.90662000E-02	 5.71767000E-03
		-2.81506000E-03	 2.77005000E-02	 5.76935000E-03
		-2.44972000E-03	 2.34862000E-02	 4.92433000E-03
		-1.33788000E-03	 2.89417000E-02	 2.75203000E-03
		-4.54315000E-05	 3.60858000E-02	-1.85956000E-04
		 3.94486000E-03	 3.61443000E-02	-8.12187000E-03
		-3.23888000E-05	 3.99238000E-02	-2.60564000E-04
		 3.66934000E-03	 3.99919000E-02	-8.20599000E-03
		-2.70155000E-05	 2.89729000E-02	-1.32956000E-04
		 1.94757000E-03	 3.60772000E-02	-4.19172000E-03
		 3.58071000E-03	 2.90578000E-02	-7.05489000E-03
		-3.85775000E-05	 3.80411000E-02	-2.24421000E-04
		 3.80747000E-03	 3.81069000E-02	-8.10688000E-03
		-1.66011000E-05	 3.24229000E-02	-1.92594000E-04
		 1.81820000E-03	 3.99205000E-02	-4.21166000E-03
		 3.28574000E-03	 3.25135000E-02	-7.11492000E-03
		-4.03123000E-03	 3.62997000E-02	 7.74522000E-03
		-3.73060000E-03	 4.01385000E-02	 7.68014000E-03
		-3.62933000E-03	 2.91791000E-02	 6.78483000E-03
		-2.03744000E-03	 3.61560000E-02	 3.81869000E-03
		-3.88016000E-03	 3.82557000E-02	 7.65352000E-03
		-3.31517000E-03	 3.26238000E-02	 6.72602000E-03
		-1.88216000E-03	 3.99929000E-02	 3.68946000E-03
		-2.32840000E-05	 4.34837000E-02	-3.30346000E-04
		 3.39299000E-03	 4.35524000E-02	-8.26608000E-03
		-2.71646000E-05	 4.17399000E-02	-2.95601000E-04
		 3.53190000E-03	 4.18085000E-02	-8.30668000E-03
		-1.10803000E-05	 3.55724000E-02	-2.48138000E-04
		 1.68608000E-03	 4.34820000E-02	-4.20756000E-03
		 2.97659000E-03	 3.56567000E-02	-7.16945000E-03
		-3.43716000E-03	 4.36929000E-02	 7.60102000E-03
		-3.58369000E-03	 4.19540000E-02	 7.71054000E-03
		-2.99627000E-03	 3.57599000E-02	 6.67013000E-03
		-1.73198000E-03	 4.35496000E-02	 3.54605000E-03
		-7.46231000E-05	 5.33354000E-02	-3.40468000E-04
		 4.46814000E-03	 5.32964000E-02	-9.77148000E-03
		-5.49253000E-05	 5.77852000E-02	-4.40037000E-04
		 4.32030000E-03	 5.77594000E-02	-9.88522000E-03
		-6.11322000E-05	 4.42664000E-02	-2.57513000E-04
		 2.19439000E-03	 5.32958000E-02	-5.04860000E-03
		 4.26488000E-03	 4.42731000E-02	-9.03797000E-03
		-6.44027000E-05	 5.55793000E-02	-3.90529000E-04
		 4.39523000E-03	 5.55502000E-02	-9.80722000E-03
		-4.46052000E-05	 4.84671000E-02	-3.44133000E-04
		 2.13338000E-03	 5.77534000E-02	-5.13248000E-03
		 4.04869000E-03	 4.84875000E-02	-9.13925000E-03
		-4.61070000E-03	 5.35185000E-02	 9.08870000E-03
		-4.42462000E-03	 5.79702000E-02	 9.00265000E-03
		-4.38197000E-03	 4.44635000E-02	 8.51979000E-03
		-2.34196000E-03	 5.34067000E-02	 4.36713000E-03
		-4.51753000E-03	 5.57653000E-02	 9.02414000E-03
		-4.13357000E-03	 4.86687000E-02	 8.44681000E-03
		-2.24175000E-03	 5.78572000E-02	 4.25179000E-03
		-3.93951000E-05	 6.20760000E-02	-5.35836000E-04
		 4.18411000E-03	 6.20626000E-02	-9.96785000E-03
		-4.64662000E-05	 5.99510000E-02	-4.88630000E-04
		 4.25337000E-03	 5.99279000E-02	-9.96415000E-03
		-3.20537000E-05	 5.24459000E-02	-4.26369000E-04
		 2.06995000E-03	 6.20517000E-02	-5.18619000E-03
		 3.84434000E-03	 5.24761000E-02	-9.20766000E-03
		-4.25868000E-03	 6.22644000E-02	 8.89309000E-03
		-4.34173000E-03	 6.01353000E-02	 8.98397000E-03
		-3.90529000E-03	 5.26504000E-02	 8.34994000E-03
		-2.14765000E-03	 6.21496000E-02	 4.11384000E-03
		-1.21142000E-04	 7.32928000E-02	-5.33402000E-04
		 4.39288000E-03	 7.31894000E-02	-1.06017000E-02
		-1.00992000E-04	 7.77826000E-02	-6.50105000E-04
		 4.37167000E-03	 7.76823000E-02	-1.07332000E-02
		-9.40762000E-05	 6.31024000E-02	-4.31750000E-04
		 2.13629000E-03	 7.32378000E-02	-5.52930000E-03
		 4.50024000E-03	 6.30242000E-02	-1.02764000E-02
		-1.11178000E-04	 7.55432000E-02	-5.92742000E-04
		 4.38298000E-03	 7.54411000E-02	-1.06840000E-02
		-7.34266000E-05	 6.76340000E-02	-5.43423000E-04
		 2.13656000E-03	 7.77292000E-02	-5.66998000E-03
		 4.41550000E-03	 6.75684000E-02	-1.04027000E-02
		-4.63154000E-03	 7.34339000E-02	 9.53371000E-03
		-4.57111000E-03	 7.79227000E-02	 9.43234000E-03
		-4.68249000E-03	 6.32637000E-02	 9.41136000E-03
		-2.37760000E-03	 7.33588000E-02	 4.46245000E-03
		-4.60189000E-03	 7.56837000E-02	 9.49720000E-03
		-4.55770000E-03	 6.77987000E-02	 9.31461000E-03
		-2.33767000E-03	 7.78483000E-02	 4.36949000E-03
		-8.13395000E-05	 8.22286000E-02	-7.65652000E-04
		 4.35529000E-03	 8.21351000E-02	-1.08438000E-02
		-9.08874000E-05	 8.00095000E-02	-7.07202000E-04
		 4.36402000E-03	 7.99118000E-02	-1.07828000E-02
		-5.53169000E-05	 7.20682000E-02	-6.52416000E-04
		 2.13627000E-03	 8.21779000E-02	-5.79104000E-03
		 4.34624000E-03	 7.20163000E-02	-1.04991000E-02
		-4.51693000E-03	 8.23735000E-02	 9.31217000E-03
		-4.54414000E-03	 8.01509000E-02	 9.36830000E-03
		-4.45340000E-03	 7.22395000E-02	 9.19342000E-03
		-2.29865000E-03	 8.22964000E-02	 4.25915000E-03
		-1.71771000E-04	 9.37672000E-02	-7.48288000E-04
		 4.20805000E-03	 9.36475000E-02	-1.08612000E-02
		-1.52389000E-04	 9.81746000E-02	-8.61286000E-04
		 4.23857000E-03	 9.80545000E-02	-1.09973000E-02
		-1.48021000E-04	 8.35762000E-02	-6.41982000E-04
		 2.01694000E-03	 9.37094000E-02	-5.80197000E-03
		 4.27676000E-03	 8.34646000E-02	-1.07642000E-02
		-1.62406000E-04	 9.59659000E-02	-8.04415000E-04
		 4.22312000E-03	 9.58455000E-02	-1.09283000E-02
		-1.28363000E-04	 8.80007000E-02	-7.56548000E-04
		 2.03827000E-03	 9.81168000E-02	-5.92898000E-03
		 4.29329000E-03	 8.78876000E-02	-1.08974000E-02
		-4.54825000E-03	 9.38905000E-02	 9.36394000E-03
		-4.54124000E-03	 9.82957000E-02	 9.27431000E-03
		-4.56995000E-03	 8.37082000E-02	 9.47932000E-03
		-2.35907000E-03	 9.38308000E-02	 4.30475000E-03
		-4.54491000E-03	 9.60873000E-02	 9.31927000E-03
		-4.54813000E-03	 8.81297000E-02	 9.38333000E-03
		-2.34208000E-03	 9.82367000E-02	 4.20625000E-03
		-1.31762000E-04	 1.02582000E-01	-9.74224000E-04
		 4.25886000E-03	 1.02464000E-01	-1.11261000E-02
		-1.42231000E-04	 1.00381000E-01	-9.18140000E-04
		 4.24821000E-03	 1.00261000E-01	-1.10630000E-02
		-1.08416000E-04	 9.24138000E-02	-8.71024000E-04
		 2.06059000E-03	 1.02525000E-01	-6.05177000E-03
		 4.29978000E-03	 9.23028000E-02	-1.10203000E-02
		-4.52237000E-03	 1.02705000E-01	 9.17698000E-03
		-4.53164000E-03	 1.00502000E-01	 9.22605000E-03
		-4.51676000E-03	 9.25454000E-02	 9.27701000E-03
		-2.32381000E-03	 1.02645000E-01	 4.10340000E-03
		 0.00000000E+00	 0.00000000E+00	 0.00000000E+00
		 0.00000000E+00	 0.00000000E+00	 0.00000000E+00
		-3.92704000E-05	-3.39678000E-03	 2.16166000E-04
		-1.99203000E-03	-3.64339000E-03	 4.22151000E-03
		 0.00000000E+00	 0.00000000E+00	 0.00000000E+00
		 0.00000000E+00	 0.00000000E+00	 0.00000000E+00
		-4.19300000E-06	-5.13188000E-03	 1.85236000E-04
		-1.52075000E-03	-5.38945000E-03	 4.25562000E-03
		 0.00000000E+00	 0.00000000E+00	 0.00000000E+00
		-2.91922000E-05	-5.05279000E-04	 1.02846000E-04
		-1.01836000E-03	-3.43571000E-03	 2.26274000E-03
		-1.35386000E-03	-9.08066000E-04	 2.24958000E-03
		 0.00000000E+00	 0.00000000E+00	 0.00000000E+00
		 0.00000000E+00	 0.00000000E+00	 0.00000000E+00
		-2.05750000E-05	-4.34660000E-03	 2.00901000E-04
		-1.75108000E-03	-4.59506000E-03	 4.11096000E-03
		 0.00000000E+00	 0.00000000E+00	 0.00000000E+00
		 4.12682000E-06	-1.51431000E-03	 8.53255000E-05
		-7.62993000E-04	-5.17108000E-03	 2.13100000E-03
		-7.39417000E-04	-1.89323000E-03	 2.18552000E-03
		 0.00000000E+00	 0.00000000E+00	 0.00000000E+00
		 1.91751000E-03	-3.53227000E-03	-3.79929000E-03
		 0.00000000E+00	 0.00000000E+00	 0.00000000E+00
		 1.51842000E-03	-5.28390000E-03	-3.89544000E-03
		 0.00000000E+00	 0.00000000E+00	 0.00000000E+00
		 1.29731000E-03	-8.20760000E-04	-2.03566000E-03
		 9.41129000E-04	-3.37881000E-03	-1.83537000E-03
		 0.00000000E+00	 0.00000000E+00	 0.00000000E+00
		 1.71432000E-03	-4.48676000E-03	-3.71860000E-03
		 0.00000000E+00	 0.00000000E+00	 0.00000000E+00
		 7.52249000E-04	-1.81386000E-03	-2.00593000E-03
		 7.54649000E-04	-5.11838000E-03	-1.76551000E-03
		 0.00000000E+00	 0.00000000E+00	 0.00000000E+00
		 0.00000000E+00	 0.00000000E+00	 0.00000000E+00
		 2.47108000E-05	-6.43421000E-03	 1.53304000E-04
		-1.04107000E-03	-6.65741000E-03	 4.16073000E-03
		 0.00000000E+00	 0.00000000E+00	 0.00000000E+00
		 0.00000000E+00	 0.00000000E+00	 0.00000000E+00
		 1.12257000E-05	-5.86279000E-03	 1.67245000E-04
		-1.28289000E-03	-6.10248000E-03	 4.35580000E-03
		 0.00000000E+00	 0.00000000E+00	 0.00000000E+00
		 3.24821000E-05	-1.99589000E-03	 8.12317000E-05
		-5.10997000E-04	-6.45858000E-03	 1.92226000E-03
		-7.39115000E-05	-2.33386000E-03	 2.22792000E-03
		 0.00000000E+00	 0.00000000E+00	 0.00000000E+00
		 1.09429000E-03	-6.56474000E-03	-3.86253000E-03
		 0.00000000E+00	 0.00000000E+00	 0.00000000E+00
		 1.30996000E-03	-6.00684000E-03	-4.03161000E-03
		 0.00000000E+00	 0.00000000E+00	 0.00000000E+00
		 1.42525000E-04	-2.26191000E-03	-2.05794000E-03
		 5.61442000E-04	-6.41492000E-03	-1.61904000E-03
		-1.02559000E-04	-1.34654000E-02	 3.83287000E-04
		-3.26729000E-03	-1.36085000E-02	 6.48065000E-03
		-6.65137000E-05	-1.65534000E-02	 2.97348000E-04
		-3.08078000E-03	-1.66926000E-02	 6.42757000E-03
		-6.19904000E-05	-7.86541000E-03	 3.10700000E-04
		-1.68577000E-03	-1.35259000E-02	 3.44385000E-03
		-2.66853000E-03	-8.09347000E-03	 5.61826000E-03
		-8.38915000E-05	-1.50205000E-02	 3.38908000E-04
		-3.17330000E-03	-1.51603000E-02	 6.37845000E-03
		-2.80616000E-05	-1.03129000E-02	 2.52704000E-04
		-1.56959000E-03	-1.66110000E-02	 3.29907000E-03
		-2.31742000E-03	-1.05394000E-02	 5.59687000E-03
		 3.06934000E-03	-1.34527000E-02	-5.72270000E-03
		 2.94786000E-03	-1.65543000E-02	-5.83955000E-03
		 2.54828000E-03	-7.95534000E-03	-5.00722000E-03
		 1.48189000E-03	-1.34470000E-02	-2.67989000E-03
		 3.01133000E-03	-1.50195000E-02	-5.70625000E-03
		 2.26685000E-03	-1.04147000E-02	-5.10184000E-03
		 1.44108000E-03	-1.65432000E-02	-2.70322000E-03
		-4.15807000E-05	-1.94929000E-02	 2.11062000E-04
		-2.89031000E-03	-1.96136000E-02	 6.30753000E-03
		-5.36389000E-05	-1.80331000E-02	 2.56395000E-04
		-2.98455000E-03	-1.81936000E-02	 6.48132000E-03
		-7.34862000E-07	-1.24507000E-02	 1.93861000E-04
		-1.47109000E-03	-1.95375000E-02	 3.08766000E-03
		-1.98184000E-03	-1.26722000E-02	 5.50196000E-03
		 2.83650000E-03	-1.95055000E-02	-5.89303000E-03
		 2.89282000E-03	-1.80397000E-02	-5.97825000E-03
		 1.99744000E-03	-1.25692000E-02	-5.12256000E-03
		 1.39570000E-03	-1.94872000E-02	-2.66351000E-03
		-2.21422000E-04	-2.56579000E-02	 4.60805000E-04
		-4.40125000E-03	-2.56377000E-02	 6.62721000E-03
		-1.82478000E-04	-2.98484000E-02	 3.57457000E-04
		-4.43242000E-03	-2.99355000E-02	 6.53816000E-03
		-1.57707000E-04	-1.95718000E-02	 4.32871000E-04
		-2.30745000E-03	-2.56597000E-02	 3.58124000E-03
		-3.84173000E-03	-1.96544000E-02	 6.76126000E-03
		-2.00726000E-04	-2.77442000E-02	 4.12745000E-04
		-4.41993000E-03	-2.77900000E-02	 6.50491000E-03
		-1.21805000E-04	-2.32429000E-02	 3.28674000E-04
		-2.33161000E-03	-2.99098000E-02	 3.39566000E-03
		-3.78761000E-03	-2.33334000E-02	 6.68818000E-03
		 3.92009000E-03	-2.55399000E-02	-5.69177000E-03
		 4.06326000E-03	-2.97439000E-02	-5.84243000E-03
		 3.52200000E-03	-1.95062000E-02	-5.89990000E-03
		 1.85185000E-03	-2.56130000E-02	-2.64859000E-03
		 3.99016000E-03	-2.76258000E-02	-5.69407000E-03
		 3.54778000E-03	-2.31759000E-02	-6.03556000E-03
		 1.94209000E-03	-2.98164000E-02	-2.70113000E-03
		-1.50612000E-04	-3.41363000E-02	 2.49560000E-04
		-4.57017000E-03	-3.43515000E-02	 6.41474000E-03
		-1.65857000E-04	-3.19940000E-02	 3.01853000E-04
		-4.50372000E-03	-3.20132000E-02	 6.57936000E-03
		-8.33208000E-05	-2.68993000E-02	 2.23369000E-04
		-2.32672000E-03	-3.42657000E-02	 3.17270000E-03
		-3.77435000E-03	-2.70211000E-02	 6.55577000E-03
		 4.22299000E-03	-3.40663000E-02	-5.96055000E-03
		 4.14325000E-03	-3.18851000E-02	-5.99451000E-03
		 3.57100000E-03	-2.68395000E-02	-6.11550000E-03
		 2.02624000E-03	-3.41293000E-02	-2.71877000E-03
		-2.82669000E-04	-3.63205000E-02	 4.94916000E-04
		-5.36080000E-03	-3.61886000E-02	 5.58329000E-03
		-2.43445000E-04	-4.15391000E-02	 4.29671000E-04
		-5.62658000E-03	-4.18666000E-02	 5.51164000E-03
		-2.96104000E-04	-3.12838000E-02	 4.79435000E-04
		-2.82203000E-03	-3.62778000E-02	 3.10028000E-03
		-4.92703000E-03	-3.12972000E-02	 6.15118000E-03
		-2.62458000E-04	-3.88719000E-02	 4.62844000E-04
		-5.48415000E-03	-3.89147000E-02	 5.50328000E-03
		-2.61860000E-04	-3.60365000E-02	 3.46856000E-04
		-2.81102000E-03	-4.17111000E-02	 2.98764000E-03
		-5.10709000E-03	-3.59949000E-02	 6.10284000E-03
		 4.62691000E-03	-3.61803000E-02	-4.59155000E-03
		 4.83888000E-03	-4.12440000E-02	-4.64896000E-03
		 4.30837000E-03	-3.11494000E-02	-5.18919000E-03
		 2.17152000E-03	-3.62796000E-02	-2.10941000E-03
		 4.73589000E-03	-3.86841000E-02	-4.57571000E-03
		 4.51270000E-03	-3.58588000E-02	-5.30360000E-03
		 2.28571000E-03	-4.13933000E-02	-2.12797000E-03
		-3.42128000E-04	-4.69704000E-02	 3.61517000E-04
		-5.75806000E-03	-4.76622000E-02	 5.45176000E-03
		-2.90863000E-04	-4.41931000E-02	 3.95407000E-04
		-5.69052000E-03	-4.52242000E-02	 5.51541000E-03
		-2.51730000E-04	-4.09562000E-02	 1.84586000E-04
		-3.16653000E-03	-4.73109000E-02	 2.88765000E-03
		-5.13540000E-03	-4.08079000E-02	 5.99122000E-03
		 5.06764000E-03	-4.65139000E-02	-4.72338000E-03