<?xml version="1.0"?>
<VTKFile type="UnstructuredGrid" version="0.1" byte_order="LittleEndian">
	<UnstructuredGrid>
		<Piece NumberOfPoints="522" NumberOfCells="64">
			<Points>
				<DataArray type="Float64" NumberOfComponents="3" format="ascii">
					 1.00000000E+00	 1.00000000E+00	-5.96046000E-08
					 1.00000000E+00	 5.00000000E-01	-5.96046000E-08
					 1.00000000E+00	 5.00000000E-01	 1.00000000E+00
					 1.00000000E+00	 1.00000000E+00	 1.00000000E+00
					 5.00000000E-01	 1.00000000E+00	-5.96046000E-08
					 5.00000000E-01	 5.00000000E-01	-5.96046000E-08
					 5.00000000E-01	 5.00000000E-01	 1.00000000E+00
					 5.00000000E-01	 1.00000000E+00	 1.00000000E+00
					 1.00000000E+00	 7.50000000E-01	-5.96046000E-08
					 1.00000000E+00	 5.00000000E-01	 5.00000000E-01
					 1.00000000E+00	 7.50000000E-01	 1.00000000E+00
					 1.00000000E+00	 1.00000000E+00	 5.00000000E-01
					 7.50000000E-01	 1.00000000E+00	-5.96046000E-08
					 7.50000000E-01	 5.00000000E-01	-5.96046000E-08
					 7.50000000E-01	 5.00000000E-01	 1.00000000E+00
					 7.50000000E-01	 1.00000000E+00	 1.00000000E+00
					 5.00000000E-01	 7.50000000E-01	-5.96046000E-08
					 5.00000000E-01	 5.00000000E-01	 5.00000000E-01
					 5.00000000E-01	 7.50000000E-01	 1.00000000E+00
					 5.00000000E-01	 1.00000000E+00	 5.00000000E-01
					 1.00000000E+00	-1.49012000E-08	-5.96046000E-08
					 1.00000000E+00	-1.49012000E-08	 1.00000000E+00
					 5.00000000E-01	-1.49012000E-08	-5.96046000E-08
					 5.00000000E-01	-1.49012000E-08	 1.00000000E+00
					 1.00000000E+00	 2.50000000E-01	-5.96046000E-08
					 1.00000000E+00	-1.49012000E-08	 5.00000000E-01
					 1.00000000E+00	 2.50000000E-01	 1.00000000E+00
					 7.50000000E-01	-1.49012000E-08	-5.96046000E-08
					 7.50000000E-01	-1.49012000E-08	 1.00000000E+00
					 5.00000000E-01	 2.50000000E-01	-5.96046000E-08
					 5.00000000E-01	-1.49012000E-08	 5.00000000E-01
					 5.00000000E-01	 2.50000000E-01	 1.00000000E+00
					-7.45058000E-09	 1.00000000E+00	-5.96046000E-08
					-7.45058000E-09	 5.00000000E-01	-5.96046000E-08
					-7.45058000E-09	 5.00000000E-01	 1.00000000E+00
					-7.45058000E-09	 1.00000000E+00	 1.00000000E+00
					 2.50000000E-01	 1.00000000E+00	-5.96046000E-08
					 2.50000000E-01	 5.00000000E-01	-5.96046000E-08
					 2.50000000E-01	 5.00000000E-01	 1.00000000E+00
					 2.50000000E-01	 1.00000000E+00	 1.00000000E+00
					-7.45058000E-09	 7.50000000E-01	-5.96046000E-08
					-7.45058000E-09	 5.00000000E-01	 5.00000000E-01
					-7.45058000E-09	 7.50000000E-01	 1.00000000E+00
					-7.45058000E-09	 1.00000000E+00	 5.00000000E-01
					-7.45058000E-09	-1.49012000E-08	-5.96046000E-08
					-7.45058000E-09	-1.49012000E-08	 1.00000000E+00
					 2.50000000E-01	-1.49012000E-08	-5.96046000E-08
					 2.50000000E-01	-1.49012000E-08	 1.00000000E+00
					-7.45058000E-09	 2.50000000E-01	-5.96046000E-08
					-7.45058000E-09	-1.49012000E-08	 5.00000000E-01
					-7.45058000E-09	 2.50000000E-01	 1.00000000E+00
					 1.00000000E+00	 5.00000000E-01	 2.00000000E+00
					 1.00000000E+00	 1.00000000E+00	 2.00000000E+00
					 5.00000000E-01	 5.00000000E-01	 2.00000000E+00
					 5.00000000E-01	 1.00000000E+00	 2.00000000E+00
					 1.00000000E+00	 5.00000000E-01	 1.50000000E+00
					 1.00000000E+00	 7.50000000E-01	 2.00000000E+00
					 1.00000000E+00	 1.00000000E+00	 1.50000000E+00
					 7.50000000E-01	 5.00000000E-01	 2.00000000E+00
					 7.50000000E-01	 1.00000000E+00	 2.00000000E+00
					 5.00000000E-01	 5.00000000E-01	 1.50000000E+00
					 5.00000000E-01	 7.50000000E-01	 2.00000000E+00
					 5.00000000E-01	 1.00000000E+00	 1.50000000E+00
					 1.00000000E+00	-1.49012000E-08	 2.00000000E+00
					 5.00000000E-01	-1.49012000E-08	 2.00000000E+00
					 1.00000000E+00	-1.49012000E-08	 1.50000000E+00
					 1.00000000E+00	 2.50000000E-01	 2.00000000E+00
					 7.50000000E-01	-1.49012000E-08	 2.00000000E+00
					 5.00000000E-01	-1.49012000E-08	 1.50000000E+00
					 5.00000000E-01	 2.50000000E-01	 2.00000000E+00
					-7.45058000E-09	 5.00000000E-01	 2.00000000E+00
					-7.45058000E-09	 1.00000000E+00	 2.00000000E+00
					 2.50000000E-01	 5.00000000E-01	 2.00000000E+00
					 2.50000000E-01	 1.00000000E+00	 2.00000000E+00
					-7.45058000E-09	 5.00000000E-01	 1.50000000E+00
					-7.45058000E-09	 7.50000000E-01	 2.00000000E+00
					-7.45058000E-09	 1.00000000E+00	 1.50000000E+00
					-7.45058000E-09	-1.49012000E-08	 2.00000000E+00
					 2.50000000E-01	-1.49012000E-08	 2.00000000E+00
					-7.45058000E-09	-1.49012000E-08	 1.50000000E+00
					-7.45058000E-09	 2.50000000E-01	 2.00000000E+00
					 1.00000000E+00	 5.00000000E-01	 3.00000000E+00
					 1.00000000E+00	 1.00000000E+00	 3.00000000E+00
					 5.00000000E-01	 5.00000000E-01	 3.00000000E+00
					 5.00000000E-01	 1.00000000E+00	 3.00000000E+00
					 1.00000000E+00	 5.00000000E-01	 2.50000000E+00
					 1.00000000E+00	 7.50000000E-01	 3.00000000E+00
					 1.00000000E+00	 1.00000000E+00	 2.50000000E+00
					 7.50000000E-01	 5.00000000E-01	 3.00000000E+00
					 7.50000000E-01	 1.00000000E+00	 3.00000000E+00
					 5.00000000E-01	 5.00000000E-01	 2.50000000E+00
					 5.00000000E-01	 7.50000000E-01	 3.00000000E+00
					 5.00000000E-01	 1.00000000E+00	 2.50000000E+00
					 1.00000000E+00	-1.49012000E-08	 3.00000000E+00
					 5.00000000E-01	-1.49012000E-08	 3.00000000E+00
					 1.00000000E+00	-1.49012000E-08	 2.50000000E+00
					 1.00000000E+00	 2.50000000E-01	 3.00000000E+00
					 7.50000000E-01	-1.49012000E-08	 3.00000000E+00
					 5.00000000E-01	-1.49012000E-08	 2.50000000E+00
					 5.00000000E-01	 2.50000000E-01	 3.00000000E+00
					-7.45058000E-09	 5.00000000E-01	 3.00000000E+00
					-7.45058000E-09	 1.00000000E+00	 3.00000000E+00
					 2.50000000E-01	 5.00000000E-01	 3.00000000E+00
					 2.50000000E-01	 1.00000000E+00	 3.00000000E+00
					-7.45058000E-09	 5.00000000E-01	 2.50000000E+00
					-7.45058000E-09	 7.50000000E-01	 3.00000000E+00
					-7.45058000E-09	 1.00000000E+00	 2.50000000E+00
					-7.45058000E-09	-1.49012000E-08	 3.00000000E+00
					 2.50000000E-01	-1.49012000E-08	 3.00000000E+00
					-7.45058000E-09	-1.49012000E-08	 2.50000000E+00
					-7.45058000E-09	 2.50000000E-01	 3.00000000E+00
					 1.00000000E+00	 5.00000000E-01	 4.00000000E+00
					 1.00000000E+00	 1.00000000E+00	 4.00000000E+00
					 5.00000000E-01	 5.00000000E-01	 4.00000000E+00
					 5.00000000E-01	 1.00000000E+00	 4.00000000E+00
					 1.00000000E+00	 5.00000000E-01	 3.50000000E+00
					 1.00000000E+00	 7.50000000E-01	 4.00000000E+00
					 1.00000000E+00	 1.00000000E+00	 3.50000000E+00
					 7.50000000E-01	 5.00000000E-01	 4.00000000E+00
					 7.50000000E-01	 1.00000000E+00	 4.00000000E+00
					 5.00000000E-01	 5.00000000E-01	 3.50000000E+00
					 5.00000000E-01	 7.50000000E-01	 4.00000000E+00
					 5.00000000E-01	 1.00000000E+00	 3.50000000E+00
					 1.00000000E+00	-1.49012000E-08	 4.00000000E+00
					 5.00000000E-01	-1.49012000E-08	 4.00000000E+00
					 1.00000000E+00	-1.49012000E-08	 3.50000000E+00
					 1.00000000E+00	 2.50000000E-01	 4.00000000E+00
					 7.50000000E-01	-1.49012000E-08	 4.00000000E+00
					 5.00000000E-01	-1.49012000E-08	 3.50000000E+00
					 5.00000000E-01	 2.50000000E-01	 4.00000000E+00
					-7.45058000E-09	 5.00000000E-01	 4.00000000E+00
					-7.45058000E-09	 1.00000000E+00	 4.00000000E+00
					 2.50000000E-01	 5.00000000E-01	 4.00000000E+00
					 2.50000000E-01	 1.00000000E+00	 4.00000000E+00
					-7.45058000E-09	 5.00000000E-01	 3.50000000E+00
					-7.45058000E-09	 7.50000000E-01	 4.00000000E+00
					-7.45058000E-09	 1.00000000E+00	 3.50000000E+00
					-7.45058000E-09	-1.49012000E-08	 4.00000000E+00
					 2.50000000E-01	-1.49012000E-08	 4.00000000E+00
					-7.45058000E-09	-1.49012000E-08	 3.50000000E+00
					-7.45058000E-09	 2.50000000E-01	 4.00000000E+00
					 1.00000000E+00	 5.00000000E-01	 5.00000000E+00
					 1.00000000E+00	 1.00000000E+00	 5.00000000E+00
					 5.00000000E-01	 5.00000000E-01	 5.00000000E+00
					 5.00000000E-01	 1.00000000E+00	 5.00000000E+00
					 1.00000000E+00	 5.00000000E-01	 4.50000000E+00
					 1.00000000E+00	 7.50000000E-01	 5.00000000E+00
					 1.00000000E+00	 1.00000000E+00	 4.50000000E+00
					 7.50000000E-01	 5.00000000E-01	 5.00000000E+00
					 7.50000000E-01	 1.00000000E+00	 5.00000000E+00
					 5.00000000E-01	 5.00000000E-01	 4.50000000E+00
					 5.00000000E-01	 7.50000000E-01	 5.00000000E+00
					 5.00000000E-01	 1.00000000E+00	 4.50000000E+00
					 1.00000000E+00	-1.49012000E-08	 5.00000000E+00
					 5.00000000E-01	-1.49012000E-08	 5.00000000E+00
					 1.00000000E+00	-1.49012000E-08	 4.50000000E+00
					 1.00000000E+00	 2.50000000E-01	 5.00000000E+00
					 7.50000000E-01	-1.49012000E-08	 5.00000000E+00
					 5.00000000E-01	-1.49012000E-08	 4.50000000E+00
					 5.00000000E-01	 2.50000000E-01	 5.00000000E+00
					-7.45058000E-09	 5.00000000E-01	 5.00000000E+00
					-7.45058000E-09	 1.00000000E+00	 5.00000000E+00
					 2.50000000E-01	 5.00000000E-01	 5.00000000E+00
					 2.50000000E-01	 1.00000000E+00	 5.00000000E+00
					-7.45058000E-09	 5.00000000E-01	 4.50000000E+00
					-7.45058000E-09	 7.50000000E-01	 5.00000000E+00
					-7.45058000E-09	 1.00000000E+00	 4.50000000E+00
					-7.45058000E-09	-1.49012000E-08	 5.00000000E+00
					 2.50000000E-01	-1.49012000E-08	 5.00000000E+00
					-7.45058000E-09	-1.49012000E-08	 4.50000000E+00
					-7.45058000E-09	 2.50000000E-01	 5.00000000E+00
					 1.00000000E+00	 5.00000000E-01	 6.00000000E+00
					 1.00000000E+00	 1.00000000E+00	 6.00000000E+00
					 5.00000000E-01	 5.00000000E-01	 6.00000000E+00
					 5.00000000E-01	 1.00000000E+00	 6.00000000E+00
					 1.00000000E+00	 5.00000000E-01	 5.50000000E+00
					 1.00000000E+00	 7.50000000E-01	 6.00000000E+00
					 1.00000000E+00	 1.00000000E+00	 5.50000000E+00
					 7.50000000E-01	 5.00000000E-01	 6.00000000E+00
					 7.50000000E-01	 1.00000000E+00	 6.00000000E+00
					 5.00000000E-01	 5.00000000E-01	 5.50000000E+00
					 5.00000000E-01	 7.50000000E-01	 6.00000000E+00
					 5.00000000E-01	 1.00000000E+00	 5.50000000E+00
					 1.00000000E+00	-1.49012000E-08	 6.00000000E+00
[...]
			<PointData>
				<DataArray type="Float32" Name="U" NumberOfComponents="3" ComponentName0="D1" ComponentName1="D2" ComponentName2="D3" format="ascii">
					 0.00000000E+00	 0.00000000E+00	 0.00000000E+00
					 0.00000000E+00	 0.00000000E+00	 0.00000000E+00
					-1.11540000E-05	 3.71282000E-03	 9.57965000E-05
					 6.44917000E-04	 3.82177000E-03	-3.10346000E-03
					 0.00000000E+00	 0.00000000E+00	 0.00000000E+00
					 0.00000000E+00	 0.00000000E+00	 0.00000000E+00
					-2.61414000E-05	 4.16220000E-03	 1.28385000E-04
					 3.06456000E-04	 4.35678000E-03	-3.17230000E-03
					 0.00000000E+00	 0.00000000E+00	 0.00000000E+00
					-4.15595000E-06	 8.62783000E-04	 5.69847000E-05
					 3.11086000E-04	 3.69943000E-03	-1.48513000E-03
					 6.28896000E-04	 1.11351000E-03	-1.66514000E-03
					 0.00000000E+00	 0.00000000E+00	 0.00000000E+00
					 0.00000000E+00	 0.00000000E+00	 0.00000000E+00
					-1.75610000E-05	 3.97320000E-03	 9.87416000E-05
					 4.69009000E-04	 4.12613000E-03	-3.12970000E-03
					 0.00000000E+00	 0.00000000E+00	 0.00000000E+00
					-3.61251000E-06	 1.25427000E-03	 6.12294000E-05
					 1.23981000E-04	 4.17920000E-03	-1.47714000E-03
					 1.90555000E-04	 1.49405000E-03	-1.63640000E-03
					 0.00000000E+00	 0.00000000E+00	 0.00000000E+00
					-6.85866000E-04	 3.90540000E-03	 3.31340000E-03
					 0.00000000E+00	 0.00000000E+00	 0.00000000E+00
					-3.12185000E-04	 4.27364000E-03	 3.31999000E-03
					 0.00000000E+00	 0.00000000E+00	 0.00000000E+00
					-6.18893000E-04	 1.17993000E-03	 1.78031000E-03
					-3.81281000E-04	 3.73333000E-03	 1.65209000E-03
					 0.00000000E+00	 0.00000000E+00	 0.00000000E+00
					-5.02039000E-04	 4.12494000E-03	 3.30371000E-03
					 0.00000000E+00	 0.00000000E+00	 0.00000000E+00
					-1.59480000E-04	 1.53382000E-03	 1.71826000E-03
					-1.48215000E-04	 4.14606000E-03	 1.67270000E-03
					 0.00000000E+00	 0.00000000E+00	 0.00000000E+00
					 0.00000000E+00	 0.00000000E+00	 0.00000000E+00
					 2.34646000E-05	 4.21966000E-03	 7.11450000E-05
					-6.42499000E-05	 4.45131000E-03	-3.19683000E-03
					 0.00000000E+00	 0.00000000E+00	 0.00000000E+00
					 0.00000000E+00	 0.00000000E+00	 0.00000000E+00
					-2.97546000E-06	 4.25292000E-03	 7.87583000E-05
					 1.13162000E-04	 4.41683000E-03	-3.20317000E-03
					 0.00000000E+00	 0.00000000E+00	 0.00000000E+00
					 7.96102000E-06	 1.19882000E-03	 2.86299000E-05
					-4.03614000E-05	 4.25989000E-03	-1.50416000E-03
					-2.69081000E-04	 1.52851000E-03	-1.68735000E-03
					 0.00000000E+00	 0.00000000E+00	 0.00000000E+00
					 2.44990000E-05	 4.53443000E-03	 3.21166000E-03
					 0.00000000E+00	 0.00000000E+00	 0.00000000E+00
					-1.31452000E-04	 4.40302000E-03	 3.28776000E-03
					 0.00000000E+00	 0.00000000E+00	 0.00000000E+00
					 3.11718000E-04	 1.52933000E-03	 1.73247000E-03
					 8.74446000E-05	 4.28762000E-03	 1.58210000E-03
					-3.27257000E-05	 1.27887000E-02	-2.30206000E-05
					 5.87867000E-04	 1.29709000E-02	-5.73297000E-03
					-1.78670000E-05	 1.31142000E-02	-6.98785000E-06
					 6.07155000E-05	 1.32666000E-02	-5.79546000E-03
					-2.41970000E-05	 7.59594000E-03	 6.49505000E-05
					 2.74752000E-04	 1.28316000E-02	-2.87000000E-03
					 5.91321000E-04	 7.78871000E-03	-4.39927000E-03
					-3.57331000E-05	 1.30293000E-02	-5.64120000E-06
					 3.29725000E-04	 1.31581000E-02	-5.81475000E-03
					-2.23710000E-05	 7.98709000E-03	 4.35121000E-05
					 2.76874000E-05	 1.31633000E-02	-2.90577000E-03
					 1.92129000E-04	 8.23090000E-03	-4.44786000E-03
					-5.21561000E-04	 1.31073000E-02	 5.74015000E-03
					-8.32989000E-05	 1.32598000E-02	 5.76192000E-03
					-5.91661000E-04	 7.82155000E-03	 4.52513000E-03
					-2.80577000E-04	 1.29015000E-02	 2.84677000E-03
					-2.96521000E-04	 1.32559000E-02	 5.79775000E-03
					-2.66333000E-04	 8.19229000E-03	 4.54254000E-03
					-6.69885000E-05	 1.31395000E-02	 2.89004000E-03
					-2.37240000E-05	 1.30377000E-02	-6.43333000E-05
					-4.09456000E-04	 1.31207000E-02	-5.73249000E-03
					-8.25165000E-06	 1.31228000E-02	-2.19854000E-05
					-1.79239000E-04	 1.32315000E-02	-5.72756000E-03
					-3.86962000E-05	 8.03215000E-03	 3.95021000E-05
					-2.18733000E-04	 1.30260000E-02	-2.96904000E-03
					-1.53962000E-04	 8.26803000E-03	-4.47591000E-03
					 2.88150000E-04	 1.32152000E-02	 5.77795000E-03
					 1.00067000E-04	 1.33149000E-02	 5.70345000E-03
					 5.93682000E-05	 8.31015000E-03	 4.53660000E-03
					 1.18532000E-04	 1.30832000E-02	 2.91940000E-03
					-8.52105000E-05	 2.77314000E-02	-1.67775000E-04
					 9.99097000E-06	 2.76775000E-02	-8.52326000E-03
					-6.44771000E-05	 2.75355000E-02	-1.45685000E-04
					-4.01476000E-04	 2.76259000E-02	-8.52103000E-03
					 4.50016000E-06	 1.96246000E-02	-8.04195000E-05
					-8.58037000E-05	 2.76654000E-02	-4.26241000E-03
					 2.24858000E-04	 1.97130000E-02	-7.17943000E-03
					-7.28844000E-05	 2.76676000E-02	-1.52111000E-04
					-2.00848000E-04	 2.77472000E-02	-8.54583000E-03
					-3.53147000E-05	 1.96229000E-02	-9.40203000E-05
					-2.44355000E-04	 2.75291000E-02	-4.30330000E-03
					-1.88173000E-04	 1.97845000E-02	-7.19463000E-03
					 1.06744000E-04	 2.80299000E-02	 8.28451000E-03
					 2.99907000E-04	 2.77989000E-02	 8.20686000E-03
					-2.10106000E-04	 1.98748000E-02	 7.06995000E-03
					-2.32342000E-05	 2.78368000E-02	 3.99958000E-03
					 2.01341000E-04	 2.79168000E-02	 8.23389000E-03
					 1.39119000E-04	 1.98854000E-02	 7.08354000E-03
					 1.30199000E-04	 2.76238000E-02	 3.98938000E-03
					-5.44069000E-05	 2.70242000E-02	-1.60794000E-04
					-8.25855000E-04	 2.70097000E-02	-8.58256000E-03
					-6.46280000E-05	 2.73417000E-02	-1.44804000E-04
					-5.99220000E-04	 2.74180000E-02	-8.55160000E-03
					-6.08802000E-05	 1.92875000E-02	-9.43839000E-05
					-3.86028000E-04	 2.69888000E-02	-4.31756000E-03
					-6.34836000E-04	 1.93894000E-02	-7.21534000E-03
					 5.66484000E-04	 2.72573000E-02	 8.20948000E-03
					 4.18369000E-04	 2.75643000E-02	 8.21441000E-03
					 5.30129000E-04	 1.95023000E-02	 7.04031000E-03
					 2.78257000E-04	 2.71044000E-02	 3.97617000E-03
					-8.55734000E-05	 4.68710000E-02	-3.16641000E-04
					-2.63821000E-04	 4.68707000E-02	-1.03019000E-02
					-7.38134000E-05	 4.65816000E-02	-3.26529000E-04
					-4.23730000E-04	 4.66380000E-02	-1.03421000E-02
					-6.95251000E-05	 3.68813000E-02	-2.25171000E-04
					-1.52326000E-04	 4.68556000E-02	-5.29473000E-03
					-1.41303000E-04	 3.68982000E-02	-9.54526000E-03
					-7.77558000E-05	 4.67333000E-02	-3.21898000E-04
					-3.48796000E-04	 4.67426000E-02	-1.03359000E-02
					-6.78314000E-05	 3.66870000E-02	-2.27351000E-04
					-2.28477000E-04	 4.65907000E-02	-5.30397000E-03
					-4.09267000E-04	 3.67095000E-02	-9.56393000E-03
					 6.90565000E-05	 4.69825000E-02	 9.60475000E-03
					 2.72041000E-04	 4.67955000E-02	 9.64900000E-03
					 3.20698000E-05	 3.71034000E-02	 9.09953000E-03
					 1.53214000E-05	 4.69066000E-02	 4.61935000E-03
					 1.66287000E-04	 4.69270000E-02	 9.64375000E-03
					 2.79524000E-04	 3.68869000E-02	 9.07033000E-03
					 9.04861000E-05	 4.66692000E-02	 4.63881000E-03
					-4.97617000E-05	 4.62113000E-02	-3.44562000E-04
					-4.55726000E-04	 4.62154000E-02	-1.02612000E-02
					-6.55830000E-05	 4.63888000E-02	-3.38308000E-04
					-4.44104000E-04	 4.64071000E-02	-1.03178000E-02
					-5.54694000E-05	 3.62284000E-02	-2.32995000E-04
					-3.06185000E-04	 4.61887000E-02	-5.29777000E-03
					-6.56703000E-04	 3.62609000E-02	-9.53256000E-03
					 4.77795000E-04	 4.62835000E-02	 9.65808000E-03
					 3.80968000E-04	 4.65866000E-02	 9.64745000E-03
					 5.63252000E-04	 3.64058000E-02	 9.07283000E-03
					 1.59620000E-04	 4.62137000E-02	 4.63138000E-03
					-1.22872000E-04	 6.78456000E-02	-5.99769000E-04
					-4.42513000E-05	 6.76725000E-02	-1.15080000E-02
					-9.74405000E-05	 6.77517000E-02	-6.28253000E-04
					-1.72256000E-04	 6.77687000E-02	-1.15385000E-02
					-9.81899000E-05	 5.71543000E-02	-4.65154000E-04
					-6.28845000E-05	 6.77159000E-02	-6.10353000E-03
					-2.50312000E-04	 5.71776000E-02	-1.09624000E-02
					-1.16245000E-04	 6.78153000E-02	-5.92711000E-04
					-9.10296000E-05	 6.77463000E-02	-1.14646000E-02
					-1.00999000E-04	 5.69766000E-02	-4.77015000E-04
					-1.46268000E-04	 6.77566000E-02	-6.06297000E-03
					-3.50363000E-04	 5.69098000E-02	-1.09623000E-02
					-5.90895000E-07	 6.81269000E-02	 1.04018000E-02
					-1.25007000E-05	 6.80201000E-02	 1.03661000E-02
					 7.29664000E-05	 5.73982000E-02	 1.00500000E-02
					-1.12349000E-04	 6.79597000E-02	 4.92409000E-03
					-1.16420000E-05	 6.80293000E-02	 1.03456000E-02
					 1.87069000E-04	 5.71248000E-02	 1.00368000E-02
					-5.63126000E-05	 6.78578000E-02	 4.88402000E-03
					-1.34106000E-04	 6.76198000E-02	-5.68304000E-04
					-4.36913000E-04	 6.74649000E-02	-1.15222000E-02
					-1.09003000E-04	 6.77072000E-02	-5.98694000E-04
					-2.97943000E-04	 6.76713000E-02	-1.15942000E-02
					-6.51157000E-05	 5.66255000E-02	-4.54555000E-04
					-2.43930000E-04	 6.75258000E-02	-5.97441000E-03
					-5.06024000E-04	 5.65994000E-02	-1.09133000E-02
					 1.12795000E-04	 6.78167000E-02	 1.03639000E-02
					 3.66660000E-05	 6.79219000E-02	 1.04463000E-02
					 3.30381000E-04	 5.68030000E-02	 1.00378000E-02
					 2.88177000E-06	 6.77225000E-02	 4.84079000E-03
					-1.38614000E-04	 8.96040000E-02	-6.65081000E-04
					 8.72586000E-04	 8.94063000E-02	-1.23565000E-02
					-1.46832000E-04	 9.05511000E-02	-7.47396000E-04
					 8.65041000E-04	 9.05310000E-02	-1.23663000E-02
					-1.36064000E-04	 7.85307000E-02	-6.20915000E-04
					 3.77722000E-04	 8.95005000E-02	-6.52166000E-03
					 3.98213000E-04	 7.84555000E-02	-1.20040000E-02
					-1.49764000E-04	 9.00882000E-02	-7.35930000E-04
					 8.62574000E-04	 8.99800000E-02	-1.23014000E-02
					-9.60751000E-05	 7.90212000E-02	-6.77929000E-04
					 3.52276000E-04	 9.05377000E-02	-6.55223000E-03
					 3.30027000E-04	 7.88651000E-02	-1.19979000E-02
					-1.29473000E-03	 8.96613000E-02	 1.08670000E-02
					-1.10951000E-03	 9.07793000E-02	 1.09000000E-02
					-6.29468000E-04	 7.87720000E-02	 1.07040000E-02
					-6.51233000E-04	 8.96434000E-02	 5.16883000E-03
					-1.19177000E-03	 9.02658000E-02	 1.07800000E-02
					-5.50471000E-04	 7.92096000E-02	 1.06711000E-02
					-6.29362000E-04	 9.06579000E-02	 5.04215000E-03
					-7.94784000E-05	 9.15405000E-02	-7.78446000E-04
					 8.97945000E-04	 9.15064000E-02	-1.24305000E-02
					-1.13543000E-04	 9.10717000E-02	-7.59155000E-04
					 8.65315000E-04	 9.09718000E-02	-1.24868000E-02
					-9.97021000E-05	 7.93982000E-02	-6.93369000E-04
					 3.57426000E-04	 9.15068000E-02	-6.50447000E-03
					 2.61709000E-04	 7.93799000E-02	-1.20342000E-02
					-1.02003000E-03	 9.16914000E-02	 1.07825000E-02
					-1.05893000E-03	 9.12536000E-02	 1.08865000E-02
					-4.48844000E-04	 7.96010000E-02	 1.06425000E-02
					-5.62306000E-04	 9.15956000E-02	 4.89731000E-03
					-1.31080000E-04	 1.12837000E-01	-1.06103000E-03
					 1.40636000E-03	 1.12547000E-01	-1.27069000E-02
					-1.58211000E-04	 1.14206000E-01	-1.07713000E-03
					 1.31489000E-03	 1.14126000E-01	-1.27886000E-02
					-1.72153000E-04	 1.01067000E-01	-8.53062000E-04
					 5.76550000E-04	 1.12707000E-01	-6.93131000E-03
					 1.20039000E-03	 1.00954000E-01	-1.26118000E-02
					-1.20245000E-04	 1.13510000E-01	-1.06516000E-03
					 1.34238000E-03	 1.13362000E-01	-1.26880000E-02
					-1.52023000E-04	 1.02386000E-01	-8.75776000E-04
					 5.72585000E-04	 1.14162000E-01	-6.91516000E-03
					 1.15963000E-03	 1.02257000E-01	-1.26649000E-02
					-1.64783000E-03	 1.12884000E-01	 1.06882000E-02
					-1.59987000E-03	 1.14349000E-01	 1.07046000E-02
					-1.52137000E-03	 1.01140000E-01	 1.08506000E-02
					-9.03241000E-04	 1.12860000E-01	 4.79657000E-03
					-1.61783000E-03	 1.13597000E-01	 1.07416000E-02
					-1.45541000E-03	 1.02546000E-01	 1.08382000E-02
					-8.62226000E-04	 1.14281000E-01	 4.80212000E-03
					-1.34820000E-04	 1.15771000E-01	-1.10423000E-03
					 1.29003000E-03	 1.15471000E-01	-1.26995000E-02
					-1.54370000E-04	 1.14945000E-01	-1.08822000E-03
					 1.31139000E-03	 1.14854000E-01	-1.26881000E-02
					-1.36201000E-04	 1.03681000E-01	-9.24634000E-04
					 6.22006000E-04	 1.15632000E-01	-6.94043000E-03
					 1.16873000E-03	 1.03562000E-01	-1.26366000E-02
					-1.67131000E-03	 1.15934000E-01	 1.06316000E-02
					-1.63478000E-03	 1.15077000E-01	 1.07232000E-02
					-1.41150000E-03	 1.03825000E-01	 1.08139000E-02
					-8.94444000E-04	 1.15856000E-01	 4.70886000E-03
					-6.79859000E-04	 1.36259000E-01	-1.01438000E-03
					 1.30716000E-03	 1.35973000E-01	-1.28970000E-02
					-2.09368000E-04	 1.37248000E-01	-1.39712000E-03
					 1.20452000E-03	 1.37672000E-01	-1.32499000E-02
					-1.50519000E-04	 1.24422000E-01	-1.04063000E-03
					 2.67145000E-04	 1.36099000E-01	-6.92818000E-03
					 1.35778000E-03	 1.24139000E-01	-1.28231000E-02
					-5.02846000E-04	 1.36803000E-01	-1.27184000E-03
					 1.27111000E-03	 1.36893000E-01	-1.31524000E-02
					-1.76191000E-04	 1.25814000E-01	-1.26336000E-03
					 5.20825000E-04	 1.37490000E-01	-7.23228000E-03
					 1.20608000E-03	 1.25691000E-01	-1.29069000E-02
					-1.79375000E-03	 1.36688000E-01	 1.11180000E-02
					-1.54115000E-03	 1.36783000E-01	 9.54433000E-03
					-1.23709000E-03	 1.24810000E-01	 1.06845000E-02
					-1.38001000E-03	 1.36450000E-01	 4.97725000E-03
					-1.62951000E-03	 1.36641000E-01	 1.02271000E-02
					-1.49329000E-03	 1.25925000E-01	 1.02468000E-02
					-9.17209000E-04	 1.37020000E-01	 4.23862000E-03
					 1.99175000E-04	 1.38593000E-01	-1.12362000E-03
					 1.49315000E-03	 1.38625000E-01	-1.25546000E-02
					 3.59034000E-05	 1.37946000E-01	-1.30767000E-03
					 1.32160000E-03	 1.38117000E-01	-1.30307000E-02
					-2.07618000E-04	 1.27225000E-01	-1.12967000E-03
					 8.97581000E-04	 1.38609000E-01	-6.83085000E-03
					 1.08157000E-03	 1.26940000E-01	-1.26908000E-02
					-1.31359000E-03	 1.38582000E-01	 1.04177000E-02
					-1.48022000E-03	 1.37696000E-01	 9.84032000E-03
					-1.75863000E-03	 1.27461000E-01	 1.03263000E-02
					-4.70123000E-04	 1.38582000E-01	 4.73793000E-03
					 0.00000000E+00	 0.00000000E+00	 0.00000000E+00
					 0.00000000E+00	 0.00000000E+00	 0.00000000E+00
					-3.89808000E-05	-6.29085000E-03	-2.07061000E-05
					-1.97418000E-03	-6.71871000E-03	 5.82677000E-03
					 0.00000000E+00	 0.00000000E+00	 0.00000000E+00
					 0.00000000E+00	 0.00000000E+00	 0.00000000E+00
					-1.11582000E-04	-7.98337000E-03	-8.71250000E-05
					-1.39426000E-03	-8.25873000E-03	 5.83896000E-03
					 0.00000000E+00	 0.00000000E+00	 0.00000000E+00
					 5.63178000E-06	-1.35631000E-03	-1.46614000E-05
					-1.04351000E-03	-6.37895000E-03	 2.89861000E-03
					-1.53731000E-03	-1.91789000E-03	 3.18819000E-03
					 0.00000000E+00	 0.00000000E+00	 0.00000000E+00
					 0.00000000E+00	 0.00000000E+00	 0.00000000E+00
					-7.67736000E-05	-7.22728000E-03	-5.71643000E-05
					-1.67546000E-03	-7.55790000E-03	 5.74765000E-03
					 0.00000000E+00	 0.00000000E+00	 0.00000000E+00
					 1.29555000E-05	-2.45988000E-03	-1.33911000E-05
					-7.38483000E-04	-7.98259000E-03	 2.75229000E-03
					-7.30873000E-04	-2.94735000E-03	 3.09131000E-03
					 0.00000000E+00	 0.00000000E+00	 0.00000000E+00
					 1.99753000E-03	-6.57263000E-03	-5.90572000E-03
					 0.00000000E+00	 0.00000000E+00	 0.00000000E+00
					 1.36115000E-03	-8.33518000E-03	-6.09562000E-03
					 0.00000000E+00	 0.00000000E+00	 0.00000000E+00
					 1.60908000E-03	-1.85479000E-03	-3.19938000E-03
					 9.83318000E-04	-6.30077000E-03	-2.97006000E-03
					 0.00000000E+00	 0.00000000E+00	 0.00000000E+00
					 1.67368000E-03	-7.49659000E-03	-5.90537000E-03
					 0.00000000E+00	 0.00000000E+00	 0.00000000E+00
					 7.57172000E-04	-2.98335000E-03	-3.19196000E-03
					 6.18782000E-04	-8.02673000E-03	-2.97253000E-03
					 0.00000000E+00	 0.00000000E+00	 0.00000000E+00
					 0.00000000E+00	 0.00000000E+00	 0.00000000E+00
					-5.05735000E-05	-8.99662000E-03	-1.69518000E-04
					-8.96447000E-04	-9.51253000E-03	 5.62956000E-03
					 0.00000000E+00	 0.00000000E+00	 0.00000000E+00
					 0.00000000E+00	 0.00000000E+00	 0.00000000E+00
					-8.38551000E-05	-8.59731000E-03	-1.30253000E-04
					-1.13117000E-03	-8.88736000E-03	 5.88242000E-03
					 0.00000000E+00	 0.00000000E+00	 0.00000000E+00
					 2.69799000E-05	-2.81444000E-03	-1.11177000E-04
					-4.01186000E-04	-9.09822000E-03	 2.50050000E-03
					 9.25895000E-05	-3.35001000E-03	 3.10012000E-03
					 0.00000000E+00	 0.00000000E+00	 0.00000000E+00
					 6.76777000E-04	-9.37098000E-03	-6.14019000E-03
					 0.00000000E+00	 0.00000000E+00	 0.00000000E+00
					 1.01221000E-03	-8.86372000E-03	-6.26576000E-03
					 0.00000000E+00	 0.00000000E+00	 0.00000000E+00
					-1.29848000E-04	-3.36689000E-03	-3.25474000E-03
					 2.52099000E-04	-9.04775000E-03	-2.92071000E-03
					-3.29648000E-04	-2.18449000E-02	-2.40693000E-04
					-2.85563000E-03	-2.23151000E-02	 9.57668000E-03
					-1.85539000E-04	-2.43524000E-02	-3.30152000E-04
					-2.28504000E-03	-2.45860000E-02	 9.43476000E-03
					-1.29033000E-04	-1.30870000E-02	-1.08716000E-04
					-1.59291000E-03	-2.20241000E-02	 4.65538000E-03
					-2.50270000E-03	-1.34515000E-02	 7.81464000E-03
					-2.68683000E-04	-2.31876000E-02	-2.85144000E-04
					-2.56831000E-03	-2.35199000E-02	 9.51336000E-03
					-1.42370000E-04	-1.51672000E-02	-2.42670000E-04
					-1.24190000E-03	-2.44050000E-02	 4.53571000E-03
					-1.96725000E-03	-1.55574000E-02	 7.77869000E-03
					 2.86542000E-03	-2.19045000E-02	-9.98296000E-03
					 2.07546000E-03	-2.45339000E-02	-1.02280000E-02
					 2.33737000E-03	-1.32799000E-02	-8.08431000E-03
					 1.21091000E-03	-2.18202000E-02	-5.09760000E-03
					 2.47230000E-03	-2.33688000E-02	-1.01182000E-02
					 1.68728000E-03	-1.54774000E-02	-8.23599000E-03
					 9.67852000E-04	-2.44131000E-02	-5.23933000E-03
					-1.60307000E-04	-2.63320000E-02	-4.82764000E-04
					-1.90574000E-03	-2.67064000E-02	 9.35813000E-03
					-1.47657000E-04	-2.54155000E-02	-3.90073000E-04
					-2.09912000E-03	-2.57605000E-02	 9.39658000E-03
					-1.38754000E-04	-1.67367000E-02	-2.95955000E-04
					-1.04881000E-03	-2.64657000E-02	 4.39729000E-03
					-1.48424000E-03	-1.71780000E-02	 7.70454000E-03
					 1.51083000E-03	-2.63766000E-02	-1.01942000E-02
					 1.78355000E-03	-2.55252000E-02	-1.02493000E-02
					 1.19338000E-03	-1.70884000E-02	-8.30015000E-03
					 6.75248000E-04	-2.62893000E-02	-5.31275000E-03
					-3.21582000E-04	-4.49309000E-02	-5.87234000E-04
					-3.48453000E-03	-4.51758000E-02	 1.19537000E-02
					-3.46169000E-04	-4.79868000E-02	-6.74858000E-04
					-3.38999000E-03	-4.83856000E-02	 1.17588000E-02
					-2.29527000E-04	-3.27828000E-02	-3.66535000E-04
					-1.94351000E-03	-4.50286000E-02	 5.64289000E-03
					-3.13821000E-03	-3.31427000E-02	 1.10761000E-02
					-3.28994000E-04	-4.64999000E-02	-6.05128000E-04
					-3.43488000E-03	-4.67746000E-02	 1.17405000E-02
					-2.53367000E-04	-3.54874000E-02	-5.13235000E-04
					-1.89263000E-03	-4.81600000E-02	 5.42247000E-03
					-2.79180000E-03	-3.58397000E-02	 1.09310000E-02
					 2.94257000E-03	-4.48200000E-02	-1.28260000E-02
					 2.66386000E-03	-4.78810000E-02	-1.30824000E-02
					 2.67899000E-03	-3.28171000E-02	-1.16964000E-02
					 1.34108000E-03	-4.48522000E-02	-6.66930000E-03
					 2.80141000E-03	-4.63490000E-02	-1.28631000E-02
					 2.31703000E-03	-3.55382000E-02	-1.18942000E-02
					 1.14137000E-03	-4.79049000E-02	-6.77259000E-03
					-3.90786000E-04	-5.08824000E-02	-9.19823000E-04
					-3.50516000E-03	-5.12918000E-02	 1.14965000E-02
					-3.72878000E-04	-4.94551000E-02	-8.04953000E-04
					-3.46961000E-03	-4.97501000E-02	 1.17757000E-02
					-2.94462000E-04	-3.78551000E-02	-6.82037000E-04
					-1.90467000E-03	-5.10789000E-02	 5.03020000E-03
					-2.37590000E-03	-3.81173000E-02	 1.06744000E-02
					 2.32082000E-03	-5.05302000E-02	-1.32636000E-02
					 2.51624000E-03	-4.93274000E-02	-1.32995000E-02
					 1.82989000E-03	-3.78149000E-02	-1.20213000E-02
					 1.06162000E-03	-5.07185000E-02	-6.81351000E-03
					-3.86620000E-04	-6.98826000E-02	-8.31071000E-04
					-4.66491000E-03	-6.97740000E-02	 1.11415000E-02