<?xml version="1.0"?>
<VTKFile type="UnstructuredGrid" version="0.1" byte_order="LittleEndian">
	<UnstructuredGrid>
		<Piece NumberOfPoints="522" NumberOfCells="64">
			<Points>
				<DataArray type="Float64" NumberOfComponents="3" format="ascii">
					 1.00000000E+00	 1.00000000E+00	-5.96046000E-08
					 1.00000000E+00	 5.00000000E-01	-5.96046000E-08
					 1.00000000E+00	 5.00000000E-01	 1.00000000E+00
					 1.00000000E+00	 1.00000000E+00	 1.00000000E+00
					 5.00000000E-01	 1.00000000E+00	-5.96046000E-08
					 5.00000000E-01	 5.00000000E-01	-5.96046000E-08
					 5.00000000E-01	 5.00000000E-01	 1.00000000E+00
					 5.00000000E-01	 1.00000000E+00	 1.00000000E+00
					 1.00000000E+00	 7.50000000E-01	-5.96046000E-08
					 1.00000000E+00	 5.00000000E-01	 5.00000000E-01
					 1.00000000E+00	 7.50000000E-01	 1.00000000E+00
					 1.00000000E+00	 1.00000000E+00	 5.00000000E-01
					 7.50000000E-01	 1.00000000E+00	-5.96046000E-08
					 7.50000000E-01	 5.00000000E-01	-5.96046000E-08
					 7.50000000E-01	 5.00000000E-01	 1.00000000E+00
					 7.50000000E-01	 1.00000000E+00	 1.00000000E+00
					 5.00000000E-01	 7.50000000E-01	-5.96046000E-08
					 5.00000000E-01	 5.00000000E-01	 5.00000000E-01
					 5.00000000E-01	 7.50000000E-01	 1.00000000E+00
					 5.00000000E-01	 1.00000000E+00	 5.00000000E-01
					 1.00000000E+00	-1.49012000E-08	-5.96046000E-08
					 1.00000000E+00	-1.49012000E-08	 1.00000000E+00
					 5.00000000E-01	-1.49012000E-08	-5.96046000E-08
					 5.00000000E-01	-1.49012000E-08	 1.00000000E+00
					 1.00000000E+00	 2.50000000E-01	-5.96046000E-08
					 1.00000000E+00	-1.49012000E-08	 5.00000000E-01
					 1.00000000E+00	 2.50000000E-01	 1.00000000E+00
					 7.50000000E-01	-1.49012000E-08	-5.96046000E-08
					 7.50000000E-01	-1.49012000E-08	 1.00000000E+00
					 5.00000000E-01	 2.50000000E-01	-5.96046000E-08
					 5.00000000E-01	-1.49012000E-08	 5.00000000E-01
					 5.00000000E-01	 2.50000000E-01	 1.00000000E+00
					-7.45058000E-09	 1.00000000E+00	-5.96046000E-08
					-7.45058000E-09	 5.00000000E-01	-5.96046000E-08
					-7.45058000E-09	 5.00000000E-01	 1.00000000E+00
					-7.45058000E-09	 1.00000000E+00	 1.00000000E+00
					 2.50000000E-01	 1.00000000E+00	-5.96046000E-08
					 2.50000000E-01	 5.00000000E-01	-5.96046000E-08
					 2.50000000E-01	 5.00000000E-01	 1.00000000E+00
					 2.50000000E-01	 1.00000000E+00	 1.00000000E+00
					-7.45058000E-09	 7.50000000E-01	-5.96046000E-08
					-7.45058000E-09	 5.00000000E-01	 5.00000000E-01
					-7.45058000E-09	 7.50000000E-01	 1.00000000E+00
					-7.45058000E-09	 1.00000000E+00	 5.00000000E-01
					-7.45058000E-09	-1.49012000E-08	-5.96046000E-08
					-7.45058000E-09	-1.49012000E-08	 1.00000000E+00
					 2.50000000E-01	-1.49012000E-08	-5.96046000E-08
					 2.50000000E-01	-1.49012000E-08	 1.00000000E+00
					-7.45058000E-09	 2.50000000E-01	-5.96046000E-08
					-7.45058000E-09	-1.49012000E-08	 5.00000000E-01
					-7.45058000E-09	 2.50000000E-01	 1.00000000E+00
					 1.00000000E+00	 5.00000000E-01	 2.00000000E+00
					 1.00000000E+00	 1.00000000E+00	 2.00000000E+00
					 5.00000000E-01	 5.00000000E-01	 2.00000000E+00
					 5.00000000E-01	 1.00000000E+00	 2.00000000E+00
					 1.00000000E+00	 5.00000000E-01	 1.50000000E+00
					 1.00000000E+00	 7.50000000E-01	 2.00000000E+00
					 1.00000000E+00	 1.00000000E+00	 1.50000000E+00
					 7.50000000E-01	 5.00000000E-01	 2.00000000E+00
					 7.50000000E-01	 1.00000000E+00	 2.00000000E+00
					 5.00000000E-01	 5.00000000E-01	 1.50000000E+00
					 5.00000000E-01	 7.50000000E-01	 2.00000000E+00
					 5.00000000E-01	 1.00000000E+00	 1.50000000E+00
					 1.00000000E+00	-1.49012000E-08	 2.00000000E+00
					 5.00000000E-01	-1.49012000E-08	 2.00000000E+00
					 1.00000000E+00	-1.49012000E-08	 1.50000000E+00
					 1.00000000E+00	 2.50000000E-01	 2.00000000E+00
					 7.50000000E-01	-1.49012000E-08	 2.00000000E+00
					 5.00000000E-01	-1.49012000E-08	 1.50000000E+00
					 5.00000000E-01	 2.50000000E-01	 2.00000000E+00
					-7.45058000E-09	 5.00000000E-01	 2.00000000E+00
					-7.45058000E-09	 1.00000000E+00	 2.00000000E+00
					 2.50000000E-01	 5.00000000E-01	 2.00000000E+00
					 2.50000000E-01	 1.00000000E+00	 2.00000000E+00
					-7.45058000E-09	 5.00000000E-01	 1.50000000E+00
					-7.45058000E-09	 7.50000000E-01	 2.00000000E+00
					-7.45058000E-09	 1.00000000E+00	 1.50000000E+00
					-7.45058000E-09	-1.49012000E-08	 2.00000000E+00
					 2.50000000E-01	-1.49012000E-08	 2.00000000E+00
					-7.45058000E-09	-1.49012000E-08	 1.50000000E+00
					-7.45058000E-09	 2.50000000E-01	 2.00000000E+00
					 1.00000000E+00	 5.00000000E-01	 3.00000000E+00
					 1.00000000E+00	 1.00000000E+00	 3.00000000E+00
					 5.00000000E-01	 5.00000000E-01	 3.00000000E+00
					 5.00000000E-01	 1.00000000E+00	 3.00000000E+00
					 1.00000000E+00	 5.00000000E-01	 2.50000000E+00
					 1.00000000E+00	 7.50000000E-01	 3.00000000E+00
					 1.00000000E+00	 1.00000000E+00	 2.50000000E+00
					 7.50000000E-01	 5.00000000E-01	 3.00000000E+00
					 7.50000000E-01	 1.00000000E+00	 3.00000000E+00
					 5.00000000E-01	 5.00000000E-01	 2.50000000E+00
					 5.00000000E-01	 7.50000000E-01	 3.00000000E+00
					 5.00000000E-01	 1.00000000E+00	 2.50000000E+00
					 1.00000000E+00	-1.49012000E-08	 3.00000000E+00
					 5.00000000E-01	-1.49012000E-08	 3.00000000E+00
					 1.00000000E+00	-1.49012000E-08	 2.50000000E+00
					 1.00000000E+00	 2.50000000E-01	 3.00000000E+00
					 7.50000000E-01	-1.49012000E-08	 3.00000000E+00
					 5.00000000E-01	-1.49012000E-08	 2.50000000E+00
					 5.00000000E-01	 2.50000000E-01	 3.00000000E+00
					-7.45058000E-09	 5.00000000E-01	 3.00000000E+00
					-7.45058000E-09	 1.00000000E+00	 3.00000000E+00
					 2.50000000E-01	 5.00000000E-01	 3.00000000E+00
					 2.50000000E-01	 1.00000000E+00	 3.00000000E+00
					-7.45058000E-09	 5.00000000E-01	 2.50000000E+00
					-7.45058000E-09	 7.50000000E-01	 3.00000000E+00
					-7.45058000E-09	 1.00000000E+00	 2.50000000E+00
					-7.45058000E-09	-1.49012000E-08	 3.00000000E+00
					 2.50000000E-01	-1.49012000E-08	 3.00000000E+00
					-7.45058000E-09	-1.49012000E-08	 2.50000000E+00
					-7.45058000E-09	 2.50000000E-01	 3.00000000E+00
					 1.00000000E+00	 5.00000000E-01	 4.00000000E+00
					 1.00000000E+00	 1.00000000E+00	 4.00000000E+00
					 5.00000000E-01	 5.00000000E-01	 4.00000000E+00
					 5.00000000E-01	 1.00000000E+00	 4.00000000E+00
					 1.00000000E+00	 5.00000000E-01	 3.50000000E+00
					 1.00000000E+00	 7.50000000E-01	 4.00000000E+00
					 1.00000000E+00	 1.00000000E+00	 3.50000000E+00
					 7.50000000E-01	 5.00000000E-01	 4.00000000E+00
					 7.50000000E-01	 1.00000000E+00	 4.00000000E+00
					 5.00000000E-01	 5.00000000E-01	 3.50000000E+00
					 5.00000000E-01	 7.50000000E-01	 4.00000000E+00
					 5.00000000E-01	 1.00000000E+00	 3.50000000E+00
					 1.00000000E+00	-1.49012000E-08	 4.00000000E+00
					 5.00000000E-01	-1.49012000E-08	 4.00000000E+00
					 1.00000000E+00	-1.49012000E-08	 3.50000000E+00
					 1.00000000E+00	 2.50000000E-01	 4.00000000E+00
					 7.50000000E-01	-1.49012000E-08	 4.00000000E+00
					 5.00000000E-01	-1.49012000E-08	 3.50000000E+00
					 5.00000000E-01	 2.50000000E-01	 4.00000000E+00
					-7.45058000E-09	 5.00000000E-01	 4.00000000E+00
					-7.45058000E-09	 1.00000000E+00	 4.00000000E+00
					 2.50000000E-01	 5.00000000E-01	 4.00000000E+00
					 2.50000000E-01	 1.00000000E+00	 4.00000000E+00
					-7.45058000E-09	 5.00000000E-01	 3.50000000E+00
					-7.45058000E-09	 7.50000000E-01	 4.00000000E+00
					-7.45058000E-09	 1.00000000E+00	 3.50000000E+00
					-7.45058000E-09	-1.49012000E-08	 4.00000000E+00
					 2.50000000E-01	-1.49012000E-08	 4.00000000E+00
					-7.45058000E-09	-1.49012000E-08	 3.50000000E+00
					-7.45058000E-09	 2.50000000E-01	 4.00000000E+00
					 1.00000000E+00	 5.00000000E-01	 5.00000000E+00
					 1.00000000E+00	 1.00000000E+00	 5.00000000E+00
					 5.00000000E-01	 5.00000000E-01	 5.00000000E+00
					 5.00000000E-01	 1.00000000E+00	 5.00000000E+00
					 1.00000000E+00	 5.00000000E-01	 4.50000000E+00
					 1.00000000E+00	 7.50000000E-01	 5.00000000E+00
					 1.00000000E+00	 1.00000000E+00	 4.50000000E+00
					 7.50000000E-01	 5.00000000E-01	 5.00000000E+00
					 7.50000000E-01	 1.00000000E+00	 5.00000000E+00
					 5.00000000E-01	 5.00000000E-01	 4.50000000E+00
					 5.00000000E-01	 7.50000000E-01	 5.00000000E+00
					 5.00000000E-01	 1.00000000E+00	 4.50000000E+00
					 1.00000000E+00	-1.49012000E-08	 5.00000000E+00
					 5.00000000E-01	-1.49012000E-08	 5.00000000E+00
					 1.00000000E+00	-1.49012000E-08	 4.50000000E+00
					 1.00000000E+00	 2.50000000E-01	 5.00000000E+00
					 7.50000000E-01	-1.49012000E-08	 5.00000000E+00
					 5.00000000E-01	-1.49012000E-08	 4.50000000E+00
					 5.00000000E-01	 2.50000000E-01	 5.00000000E+00
					-7.45058000E-09	 5.00000000E-01	 5.00000000E+00
					-7.45058000E-09	 1.00000000E+00	 5.00000000E+00
					 2.50000000E-01	 5.00000000E-01	 5.00000000E+00
					 2.50000000E-01	 1.00000000E+00	 5.00000000E+00
					-7.45058000E-09	 5.00000000E-01	 4.50000000E+00
					-7.45058000E-09	 7.50000000E-01	 5.00000000E+00
					-7.45058000E-09	 1.00000000E+00	 4.50000000E+00
					-7.45058000E-09	-1.49012000E-08	 5.00000000E+00
					 2.50000000E-01	-1.49012000E-08	 5.00000000E+00
					-7.45058000E-09	-1.49012000E-08	 4.50000000E+00
					-7.45058000E-09	 2.50000000E-01	 5.00000000E+00
					 1.00000000E+00	 5.00000000E-01	 6.00000000E+00
					 1.00000000E+00	 1.00000000E+00	 6.00000000E+00
					 5.00000000E-01	 5.00000000E-01	 6.00000000E+00
					 5.00000000E-01	 1.00000000E+00	 6.00000000E+00
					 1.00000000E+00	 5.00000000E-01	 5.50000000E+00
					 1.00000000E+00	 7.50000000E-01	 6.00000000E+00
					 1.00000000E+00	 1.00000000E+00	 5.50000000E+00
					 7.50000000E-01	 5.00000000E-01	 6.00000000E+00
					 7.50000000E-01	 1.00000000E+00	 6.00000000E+00
					 5.00000000E-01	 5.00000000E-01	 5.50000000E+00
					 5.00000000E-01	 7.50000000E-01	 6.00000000E+00
					 5.00000000E-01	 1.00000000E+00	 5.50000000E+00
					 1.00000000E+00	-1.49012000E-08	 6.00000000E+00
[...]
			<PointData>
				<DataArray type="Float32" Name="U" NumberOfComponents="3" ComponentName0="D1" ComponentName1="D2" ComponentName2="D3" format="ascii">
					 0.00000000E+00	 0.00000000E+00	 0.00000000E+00
					 0.00000000E+00	 0.00000000E+00	 0.00000000E+00
					 1.60892000E-05	-4.37684000E-03	-4.51332000E-05
					-1.49794000E-03	-4.65363000E-03	 4.74865000E-03
					 0.00000000E+00	 0.00000000E+00	 0.00000000E+00
					 0.00000000E+00	 0.00000000E+00	 0.00000000E+00
					 1.11720000E-05	-5.59456000E-03	-4.58982000E-05
					-9.22679000E-04	-5.89274000E-03	 4.81508000E-03
					 0.00000000E+00	 0.00000000E+00	 0.00000000E+00
					 1.02316000E-05	-7.06911000E-04	-1.54639000E-05
					-7.42172000E-04	-4.40920000E-03	 2.34811000E-03
					-1.16393000E-03	-1.12637000E-03	 2.45704000E-03
					 0.00000000E+00	 0.00000000E+00	 0.00000000E+00
					 0.00000000E+00	 0.00000000E+00	 0.00000000E+00
					 1.41267000E-05	-5.08723000E-03	-4.67714000E-05
					-1.20560000E-03	-5.37283000E-03	 4.70711000E-03
					 0.00000000E+00	 0.00000000E+00	 0.00000000E+00
					 3.62123000E-06	-1.48601000E-03	-1.42904000E-05
					-4.54583000E-04	-5.63231000E-03	 2.30112000E-03
					-4.56836000E-04	-1.89879000E-03	 2.39562000E-03
					 0.00000000E+00	 0.00000000E+00	 0.00000000E+00
					 1.52454000E-03	-4.60865000E-03	-4.84482000E-03
					 0.00000000E+00	 0.00000000E+00	 0.00000000E+00
					 9.46497000E-04	-5.84442000E-03	-4.91549000E-03
					 0.00000000E+00	 0.00000000E+00	 0.00000000E+00
					 1.17584000E-03	-1.11844000E-03	-2.49461000E-03
					 7.73022000E-04	-4.38677000E-03	-2.44155000E-03
					 0.00000000E+00	 0.00000000E+00	 0.00000000E+00
					 1.23186000E-03	-5.32574000E-03	-4.80540000E-03
					 0.00000000E+00	 0.00000000E+00	 0.00000000E+00
					 4.60003000E-04	-1.88447000E-03	-2.42848000E-03
					 4.77859000E-04	-5.60847000E-03	-2.39545000E-03
					 0.00000000E+00	 0.00000000E+00	 0.00000000E+00
					 0.00000000E+00	 0.00000000E+00	 0.00000000E+00
					 6.60741000E-06	-6.24691000E-03	-3.76598000E-05
					-3.38364000E-04	-6.51413000E-03	 4.75301000E-03
					 0.00000000E+00	 0.00000000E+00	 0.00000000E+00
					 0.00000000E+00	 0.00000000E+00	 0.00000000E+00
					 8.26513000E-06	-6.02084000E-03	-4.31596000E-05
					-6.34217000E-04	-6.30765000E-03	 4.87669000E-03
					 0.00000000E+00	 0.00000000E+00	 0.00000000E+00
					-2.98612000E-06	-1.62449000E-03	-1.06686000E-05
					-1.67172000E-04	-6.27225000E-03	 2.18423000E-03
					 2.85409000E-04	-2.01252000E-03	 2.46199000E-03
					 0.00000000E+00	 0.00000000E+00	 0.00000000E+00
					 3.58643000E-04	-6.47030000E-03	-4.83652000E-03
					 0.00000000E+00	 0.00000000E+00	 0.00000000E+00
					 6.55183000E-04	-6.25859000E-03	-4.97361000E-03
					 0.00000000E+00	 0.00000000E+00	 0.00000000E+00
					-2.92060000E-04	-1.99484000E-03	-2.48686000E-03
					 1.83212000E-04	-6.25310000E-03	-2.26055000E-03
					 4.74043000E-05	-1.74621000E-02	-1.39252000E-04
					-1.99140000E-03	-1.76745000E-02	 7.58569000E-03
					 5.20998000E-05	-1.93696000E-02	-1.54341000E-04
					-1.70108000E-03	-1.95717000E-02	 7.59180000E-03
					 2.97961000E-05	-1.01809000E-02	-8.91091000E-05
					-9.75064000E-04	-1.75447000E-02	 3.71107000E-03
					-1.78847000E-03	-1.04585000E-02	 6.43393000E-03
					 4.83907000E-05	-1.84427000E-02	-1.46134000E-04
					-1.84687000E-03	-1.86488000E-02	 7.55892000E-03
					 3.00991000E-05	-1.17851000E-02	-9.46481000E-05
					-8.26433000E-04	-1.94466000E-02	 3.67410000E-03
					-1.34833000E-03	-1.20598000E-02	 6.46523000E-03
					 2.10670000E-03	-1.75209000E-02	-7.87238000E-03
					 1.81954000E-03	-1.94445000E-02	-7.90812000E-03
					 1.85875000E-03	-1.03553000E-02	-6.61478000E-03
					 1.07476000E-03	-1.74638000E-02	-3.99191000E-03
					 1.96431000E-03	-1.85124000E-02	-7.85916000E-03
					 1.41985000E-03	-1.19712000E-02	-6.66077000E-03
					 9.35150000E-04	-1.93853000E-02	-3.98475000E-03
					 5.64036000E-05	-2.09842000E-02	-1.67388000E-04
					-1.42133000E-03	-2.11874000E-02	 7.55518000E-03
					 5.55394000E-05	-2.02061000E-02	-1.62215000E-04
					-1.56079000E-03	-2.04050000E-02	 7.63187000E-03
					 3.07150000E-05	-1.29510000E-02	-9.13401000E-05
					-6.79248000E-04	-2.10588000E-02	 3.59061000E-03
					-9.24728000E-04	-1.32320000E-02	 6.42593000E-03
					 1.53892000E-03	-2.10711000E-02	-7.89693000E-03
					 1.67974000E-03	-2.02822000E-02	-7.96317000E-03
					 9.96484000E-04	-1.31552000E-02	-6.61796000E-03
					 7.93192000E-04	-2.10054000E-02	-3.92703000E-03
					 7.12281000E-05	-3.42052000E-02	-2.78734000E-04
					-2.51323000E-03	-3.43871000E-02	 8.91190000E-03
					 7.38662000E-05	-3.66916000E-02	-3.24504000E-04
					-2.31484000E-03	-3.68739000E-02	 8.87078000E-03
					 6.42541000E-05	-2.55349000E-02	-1.98837000E-04
					-1.22104000E-03	-3.42700000E-02	 4.35839000E-03
					-2.23109000E-03	-2.57376000E-02	 8.32606000E-03
					 7.40005000E-05	-3.54745000E-02	-3.01784000E-04
					-2.41361000E-03	-3.56555000E-02	 8.84699000E-03
					 6.68928000E-05	-2.77310000E-02	-2.28666000E-04
					-1.12023000E-03	-3.67570000E-02	 4.27079000E-03
					-2.01195000E-03	-2.79212000E-02	 8.30626000E-03
					 2.65032000E-03	-3.42207000E-02	-9.47730000E-03
					 2.45891000E-03	-3.67041000E-02	-9.52506000E-03
					 2.36977000E-03	-2.55751000E-02	-8.73955000E-03
					 1.36225000E-03	-3.41885000E-02	-4.91705000E-03
					 2.55581000E-03	-3.54877000E-02	-9.45972000E-03
					 2.15276000E-03	-2.77731000E-02	-8.77456000E-03
					 1.26644000E-03	-3.66726000E-02	-4.92182000E-03
					 7.15862000E-05	-3.89779000E-02	-3.66520000E-04
					-2.12018000E-03	-3.91606000E-02	 8.82534000E-03
					 7.27461000E-05	-3.78604000E-02	-3.46373000E-04
					-2.21686000E-03	-3.80435000E-02	 8.88870000E-03
					 6.70773000E-05	-2.96985000E-02	-2.59536000E-04
					-1.02395000E-03	-3.90431000E-02	 4.18518000E-03
					-1.79728000E-03	-2.98931000E-02	 8.26738000E-03
					 2.26366000E-03	-3.89927000E-02	-9.56120000E-03
					 2.36086000E-03	-3.78731000E-02	-9.58368000E-03
					 1.93540000E-03	-2.97528000E-02	-8.79317000E-03
					 1.16730000E-03	-3.89603000E-02	-4.92028000E-03
					 5.56090000E-05	-5.34659000E-02	-4.74105000E-04
					-3.07524000E-03	-5.36581000E-02	 9.95467000E-03
					 6.76675000E-05	-5.65116000E-02	-5.40225000E-04
					-2.90673000E-03	-5.67074000E-02	 9.89820000E-03
					 6.55077000E-05	-4.34966000E-02	-3.72605000E-04
					-1.50846000E-03	-5.35405000E-02	 4.75783000E-03
					-2.80563000E-03	-4.36807000E-02	 9.47005000E-03
					 6.18489000E-05	-5.50091000E-02	-5.08999000E-04
					-2.99049000E-03	-5.52031000E-02	 9.88681000E-03
					 7.30610000E-05	-4.62671000E-02	-4.30391000E-04
					-1.41885000E-03	-5.65874000E-02	 4.65754000E-03
					-2.60940000E-03	-4.64576000E-02	 9.41610000E-03
					 3.18244000E-03	-5.34276000E-02	-1.09059000E-02
					 3.03433000E-03	-5.64745000E-02	-1.09845000E-02
					 2.92528000E-03	-4.34877000E-02	-1.02163000E-02
					 1.61815000E-03	-5.34256000E-02	-5.70838000E-03
					 3.10808000E-03	-5.49726000E-02	-1.09066000E-02
					 2.74490000E-03	-4.62546000E-02	-1.02781000E-02
					 1.55075000E-03	-5.64713000E-02	-5.73954000E-03
					 7.42677000E-05	-5.94058000E-02	-6.02842000E-04
					-2.73843000E-03	-5.95995000E-02	 9.82200000E-03
					 7.23033000E-05	-5.79789000E-02	-5.70837000E-04
					-2.82188000E-03	-5.81762000E-02	 9.91067000E-03
					 7.52278000E-05	-4.88506000E-02	-4.81402000E-04
					-1.33337000E-03	-5.94810000E-02	 4.53785000E-03
					-2.41603000E-03	-4.90412000E-02	 9.36003000E-03
					 2.87773000E-03	-5.93590000E-02	-1.10356000E-02
					 2.95694000E-03	-5.79388000E-02	-1.10613000E-02
					 2.55765000E-03	-4.88313000E-02	-1.03237000E-02
					 1.47892000E-03	-5.93609000E-02	-5.74496000E-03
					 3.78750000E-05	-7.48963000E-02	-7.12066000E-04
					-3.68632000E-03	-7.50313000E-02	 1.03232000E-02
					 5.02898000E-05	-7.86234000E-02	-8.02265000E-04
					-3.67672000E-03	-7.87549000E-02	 1.02516000E-02
					 4.75743000E-05	-6.40137000E-02	-5.86806000E-04
					-1.82570000E-03	-7.49642000E-02	 4.81401000E-03
					-3.35901000E-03	-6.41869000E-02	 1.02666000E-02
					 4.31958000E-05	-7.67593000E-02	-7.56985000E-04
					-3.68094000E-03	-7.68908000E-02	 1.02373000E-02
					 5.91902000E-05	-6.73787000E-02	-6.64036000E-04
					-1.81379000E-03	-7.86868000E-02	 4.67997000E-03
					-3.26482000E-03	-6.75461000E-02	 1.02059000E-02
					 3.77202000E-03	-7.47617000E-02	-1.17476000E-02
					 3.78460000E-03	-7.84966000E-02	-1.18563000E-02
					 3.46101000E-03	-6.39284000E-02	-1.14439000E-02
					 1.90413000E-03	-7.48283000E-02	-6.23745000E-03
					 3.77738000E-03	-7.66301000E-02	-1.17520000E-02
					 3.38607000E-03	-6.72970000E-02	-1.15414000E-02
					 1.91692000E-03	-7.85617000E-02	-6.28464000E-03
					 6.49897000E-05	-8.23562000E-02	-8.91717000E-04
					-3.67034000E-03	-8.24883000E-02	 1.01423000E-02
					 5.78252000E-05	-8.04898000E-02	-8.47416000E-04
					-3.67446000E-03	-8.06218000E-02	 1.02700000E-02
					 6.82948000E-05	-7.06637000E-02	-7.40202000E-04
					-1.80171000E-03	-8.24180000E-02	 4.50951000E-03
					-3.16474000E-03	-7.08237000E-02	 1.01082000E-02
					 3.80208000E-03	-8.22340000E-02	-1.19266000E-02
					 3.79421000E-03	-8.03631000E-02	-1.19649000E-02
					 3.30116000E-03	-7.05770000E-02	-1.16001000E-02
					 1.93239000E-03	-8.22993000E-02	-6.29404000E-03
					 3.08388000E-05	-9.64290000E-02	-9.72465000E-04
					-4.16561000E-03	-9.64854000E-02	 9.52421000E-03
					 4.58288000E-05	-1.00691000E-01	-1.06153000E-03
					-4.27871000E-03	-1.00751000E-01	 9.44000000E-03
					 3.13010000E-05	-8.58021000E-02	-8.44009000E-04
					-2.06753000E-03	-9.64767000E-02	 4.28836000E-03
					-3.97656000E-03	-8.58943000E-02	 1.00265000E-02
					 3.74799000E-05	-9.85413000E-02	-1.01629000E-03
					-4.22350000E-03	-9.85998000E-02	 9.46078000E-03
					 4.65693000E-05	-8.98477000E-02	-9.37930000E-04
					-2.11700000E-03	-1.00741000E-01	 4.17971000E-03
					-4.03934000E-03	-8.99443000E-02	 9.94845000E-03
					 4.22844000E-03	-9.62359000E-02	-1.14648000E-02
					 4.37037000E-03	-1.00499000E-01	-1.15603000E-02
					 4.04396000E-03	-8.56315000E-02	-1.17117000E-02
					 2.12967000E-03	-9.63508000E-02	-6.23228000E-03
					 4.29977000E-03	-9.83509000E-02	-1.14894000E-02
					 4.13447000E-03	-8.96832000E-02	-1.18191000E-02
					 2.20958000E-03	-1.00615000E-01	-6.30229000E-03
					 6.51912000E-05	-1.05076000E-01	-1.15722000E-03
					-4.40308000E-03	-1.05152000E-01	 9.33951000E-03
					 5.52679000E-05	-1.02866000E-01	-1.10841000E-03
					-4.34162000E-03	-1.02931000E-01	 9.41685000E-03
					 6.60473000E-05	-9.39727000E-02	-1.03443000E-03
					-2.16455000E-03	-1.05134000E-01	 4.05634000E-03
					-4.11549000E-03	-9.40835000E-02	 9.83818000E-03
					 4.53186000E-03	-1.04894000E-01	-1.16527000E-02
					 4.45104000E-03	-1.02674000E-01	-1.16324000E-02
					 4.24427000E-03	-9.38180000E-02	-1.18999000E-02
					 2.29535000E-03	-1.05005000E-01	-6.37031000E-03
					 2.15183000E-05	-1.16337000E-01	-1.20033000E-03
					-4.31560000E-03	-1.16407000E-01	 8.51290000E-03
					 3.16757000E-05	-1.20709000E-01	-1.28614000E-03
					-4.36797000E-03	-1.20783000E-01	 8.40926000E-03
					 2.85867000E-05	-1.06582000E-01	-1.09033000E-03
					-2.14443000E-03	-1.16381000E-01	 3.67194000E-03
					-4.28006000E-03	-1.06640000E-01	 8.96779000E-03
					 2.72481000E-05	-1.18512000E-01	-1.24397000E-03
					-4.34232000E-03	-1.18587000E-01	 8.46516000E-03
					 4.08526000E-05	-1.10951000E-01	-1.17692000E-03
					-2.16790000E-03	-1.20757000E-01	 3.58152000E-03
					-4.37894000E-03	-1.11012000E-01	 8.87282000E-03
					 4.35375000E-03	-1.16186000E-01	-1.08980000E-02
					 4.44580000E-03	-1.20558000E-01	-1.09670000E-02
					 4.33894000E-03	-1.06406000E-01	-1.11422000E-02
					 2.18679000E-03	-1.16271000E-01	-6.06519000E-03
					 4.39847000E-03	-1.18360000E-01	-1.09393000E-02
					 4.46878000E-03	-1.10778000E-01	-1.12247000E-02
					 2.23689000E-03	-1.20643000E-01	-6.14813000E-03
					 4.73888000E-05	-1.25154000E-01	-1.37832000E-03
					-4.42429000E-03	-1.25214000E-01	 8.32149000E-03
					 3.73697000E-05	-1.22923000E-01	-1.33100000E-03
					-4.39525000E-03	-1.22991000E-01	 8.34559000E-03
					 5.81733000E-05	-1.15433000E-01	-1.26952000E-03
					-2.19111000E-03	-1.25192000E-01	 3.50903000E-03
					-4.49087000E-03	-1.15501000E-01	 8.78469000E-03
					 4.54817000E-03	-1.25019000E-01	-1.10648000E-02
					 4.49694000E-03	-1.22777000E-01	-1.09961000E-02
					 4.61964000E-03	-1.15277000E-01	-1.13262000E-02
					 2.29401000E-03	-1.25100000E-01	-6.25835000E-03
					 4.26978000E-05	-1.35382000E-01	-1.39954000E-03
					-4.28939000E-03	-1.35517000E-01	 8.15856000E-03
					 2.57199000E-05	-1.39657000E-01	-1.46923000E-03
					-4.27600000E-03	-1.39803000E-01	 8.05483000E-03
					 2.32830000E-05	-1.25876000E-01	-1.30562000E-03
					-2.12203000E-03	-1.35450000E-01	 3.37583000E-03
					-4.30306000E-03	-1.25973000E-01	 8.27454000E-03
					 3.87949000E-05	-1.37528000E-01	-1.42956000E-03
					-4.28186000E-03	-1.37673000E-01	 8.11640000E-03
					 2.74655000E-05	-1.30196000E-01	-1.38291000E-03
					-2.13261000E-03	-1.39734000E-01	 3.29072000E-03
					-4.30087000E-03	-1.30301000E-01	 8.16941000E-03
					 4.33011000E-03	-1.35261000E-01	-1.09202000E-02
					 4.33945000E-03	-1.39505000E-01	-1.09510000E-02
					 4.32150000E-03	-1.25752000E-01	-1.08531000E-02
					 2.19622000E-03	-1.35316000E-01	-6.16354000E-03
					 4.33503000E-03	-1.37384000E-01	-1.09381000E-02
					 4.36845000E-03	-1.30056000E-01	-1.08998000E-02
					 2.18890000E-03	-1.39572000E-01	-6.21739000E-03
					 1.30814000E-05	-1.43942000E-01	-1.57146000E-03
					-4.25958000E-03	-1.44044000E-01	 7.93749000E-03
					 1.38815000E-05	-1.41794000E-01	-1.51800000E-03
					-4.26882000E-03	-1.41927000E-01	 7.98813000E-03
					 3.50697000E-05	-1.34542000E-01	-1.47974000E-03
					-2.13491000E-03	-1.43992000E-01	 3.18681000E-03
					-4.30455000E-03	-1.34617000E-01	 8.06597000E-03
					 4.35002000E-03	-1.43809000E-01	-1.10331000E-02
					 4.34417000E-03	-1.41647000E-01	-1.09796000E-02
					 4.42442000E-03	-1.34422000E-01	-1.09880000E-02
					 2.17902000E-03	-1.43872000E-01	-6.31512000E-03
					 0.00000000E+00	 0.00000000E+00	 0.00000000E+00
					 0.00000000E+00	 0.00000000E+00	 0.00000000E+00
					 1.10523000E-05	-1.04413000E-02	-1.62017000E-04
					-1.92085000E-03	-1.11264000E-02	 1.00053000E-02
					 0.00000000E+00	 0.00000000E+00	 0.00000000E+00
					 0.00000000E+00	 0.00000000E+00	 0.00000000E+00
					-4.67309000E-06	-1.16952000E-02	-1.71129000E-04
					-6.09840000E-04	-1.24318000E-02	 1.01050000E-02
					 0.00000000E+00	 0.00000000E+00	 0.00000000E+00
					 1.67730000E-05	-2.29056000E-03	-5.19912000E-05
					-9.55867000E-04	-1.05502000E-02	 4.86755000E-03
					-1.80720000E-03	-3.18666000E-03	 5.13444000E-03
					 0.00000000E+00	 0.00000000E+00	 0.00000000E+00
					 0.00000000E+00	 0.00000000E+00	 0.00000000E+00
					 3.93940000E-06	-1.12922000E-02	-1.72733000E-04
					-1.25467000E-03	-1.20019000E-02	 9.99155000E-03
					 0.00000000E+00	 0.00000000E+00	 0.00000000E+00
					-6.04254000E-06	-3.26162000E-03	-5.88081000E-05
					-3.07017000E-04	-1.18214000E-02	 4.84883000E-03
					-2.98829000E-04	-4.16125000E-03	 4.99102000E-03
					 0.00000000E+00	 0.00000000E+00	 0.00000000E+00
					 1.91755000E-03	-1.09180000E-02	-1.03581000E-02
					 0.00000000E+00	 0.00000000E+00	 0.00000000E+00
					 5.97357000E-04	-1.22034000E-02	-1.04806000E-02
					 0.00000000E+00	 0.00000000E+00	 0.00000000E+00
					 1.82054000E-03	-3.13276000E-03	-5.25652000E-03
					 9.70062000E-04	-1.04464000E-02	-5.20114000E-03
					 0.00000000E+00	 0.00000000E+00	 0.00000000E+00
					 1.24976000E-03	-1.17799000E-02	-1.03663000E-02
					 0.00000000E+00	 0.00000000E+00	 0.00000000E+00
					 2.80448000E-04	-4.09957000E-03	-5.11988000E-03
					 2.96042000E-04	-1.17072000E-02	-5.20236000E-03
					 0.00000000E+00	 0.00000000E+00	 0.00000000E+00
					 0.00000000E+00	 0.00000000E+00	 0.00000000E+00
					-1.55910000E-05	-1.16483000E-02	-1.43332000E-04
					 7.14005000E-04	-1.23366000E-02	 1.00272000E-02
					 0.00000000E+00	 0.00000000E+00	 0.00000000E+00
					 0.00000000E+00	 0.00000000E+00	 0.00000000E+00
					-1.16332000E-05	-1.18948000E-02	-1.61063000E-04
					 4.11301000E-05	-1.26050000E-02	 1.01179000E-02
					 0.00000000E+00	 0.00000000E+00	 0.00000000E+00
					-2.76043000E-05	-2.86911000E-03	-5.07071000E-05
					 3.50147000E-04	-1.17571000E-02	 4.77452000E-03
					 1.23280000E-03	-3.75204000E-03	 5.14047000E-03
					 0.00000000E+00	 0.00000000E+00	 0.00000000E+00
					-7.31775000E-04	-1.21048000E-02	-1.03414000E-02
					 0.00000000E+00	 0.00000000E+00	 0.00000000E+00
					-6.14973000E-05	-1.23748000E-02	-1.04720000E-02
					 0.00000000E+00	 0.00000000E+00	 0.00000000E+00
					-1.28380000E-03	-3.68048000E-03	-5.25425000E-03
					-3.75207000E-04	-1.16448000E-02	-5.06916000E-03
					 8.92236000E-05	-3.98507000E-02	-6.64376000E-04
					-2.36411000E-03	-4.07196000E-02	 1.77231000E-02
					 9.21362000E-05	-4.17724000E-02	-6.58590000E-04
					-1.31025000E-03	-4.26420000E-02	 1.77743000E-02
					 3.59242000E-05	-2.30457000E-02	-3.61915000E-04
					-1.13905000E-03	-4.01688000E-02	 8.48530000E-03
					-2.16051000E-03	-2.39052000E-02	 1.41967000E-02
					 8.78260000E-05	-4.09309000E-02	-6.67789000E-04
					-1.83820000E-03	-4.17961000E-02	 1.77040000E-02
					 2.57886000E-05	-2.46302000E-02	-3.63621000E-04
					-6.03573000E-04	-4.20866000E-02	 8.47535000E-03
					-9.42226000E-04	-2.54845000E-02	 1.42327000E-02
					 2.55205000E-03	-3.99945000E-02	-1.90963000E-02
					 1.49615000E-03	-4.19340000E-02	-1.91344000E-02
					 2.22445000E-03	-2.34610000E-02	-1.49574000E-02
					 1.31820000E-03	-3.98035000E-02	-9.82538000E-03
					 2.02604000E-03	-4.10892000E-02	-1.90803000E-02
					 9.98156000E-04	-2.50402000E-02	-1.49991000E-02
					 7.93856000E-04	-4.17385000E-02	-9.79973000E-03
					 9.73978000E-05	-4.26604000E-02	-6.09375000E-04
					-2.25793000E-04	-4.35000000E-02	 1.77807000E-02
					 9.48877000E-05	-4.23319000E-02	-6.39084000E-04
					-7.66888000E-04	-4.32241000E-02	 1.78607000E-02
					 2.12837000E-05	-2.49894000E-02	-3.20089000E-04
					-7.27724000E-05	-4.29529000E-02	 8.41747000E-03
					 2.93548000E-04	-2.58333000E-02	 1.42389000E-02
					 4.45804000E-04	-4.28048000E-02	-1.90405000E-02
					 9.68127000E-04	-4.24891000E-02	-1.91840000E-02
					-2.27032000E-04	-2.53983000E-02	-1.49177000E-02
					 2.75743000E-04	-4.26173000E-02	-9.64106000E-03
					 3.29145000E-04	-8.34586000E-02	-1.63051000E-03
					-2.60345000E-03	-8.42497000E-02	 2.21181000E-02
					 3.43624000E-04	-8.60844000E-02	-1.59534000E-03
					-2.03219000E-03	-8.69965000E-02	 2.22094000E-02
					 1.90914000E-04	-6.02647000E-02	-1.08612000E-03
					-1.13069000E-03	-8.37780000E-02	 1.01696000E-02
					-2.50533000E-03	-6.11320000E-02	 2.03838000E-02
					 3.37855000E-04	-8.48443000E-02	-1.61209000E-03
					-2.32007000E-03	-8.57079000E-02	 2.21130000E-02
					 1.96471000E-04	-6.25475000E-02	-1.07048000E-03
					-8.67104000E-04	-8.64678000E-02	 1.01703000E-02
					-1.68457000E-03	-6.34291000E-02	 2.04653000E-02
					 3.20852000E-03	-8.31555000E-02	-2.53961000E-02
					 2.70550000E-03	-8.57828000E-02	-2.54504000E-02
					 2.87839000E-03	-6.01854000E-02	-2.26048000E-02
					 1.77255000E-03	-8.32436000E-02	-1.34271000E-02
					 2.95420000E-03	-8.45349000E-02	-2.53844000E-02
					 2.07784000E-03	-6.24619000E-02	-2.26511000E-02
					 1.52728000E-03	-8.58748000E-02	-1.33891000E-02
					 3.54587000E-04	-8.81921000E-02	-1.53397000E-03
					-1.55816000E-03	-8.92256000E-02	 2.22103000E-02
					 3.48992000E-04	-8.72202000E-02	-1.57173000E-03
					-1.79899000E-03	-8.80689000E-02	 2.23272000E-02
					 2.13156000E-04	-6.40286000E-02	-1.01861000E-03
					-5.69816000E-04	-8.86370000E-02	 1.00812000E-02
					-8.86415000E-04	-6.49344000E-02	 2.04598000E-02
					 2.21639000E-03	-8.79117000E-02	-2.53540000E-02
					 2.46134000E-03	-8.69052000E-02	-2.55213000E-02
					 1.27140000E-03	-6.39324000E-02	-2.25395000E-02
					 1.27832000E-03	-8.80059000E-02	-1.32004000E-02
					 7.69946000E-04	-1.33893000E-01	-2.90883000E-03
					-2.62486000E-03	-1.34459000E-01	 2.25058000E-02