<?xml version="1.0"?>
<VTKFile type="UnstructuredGrid" version="0.1" byte_order="LittleEndian">
	<UnstructuredGrid>
		<Piece NumberOfPoints="522" NumberOfCells="64">
			<Points>
				<DataArray type="Float64" NumberOfComponents="3" format="ascii">
					 1.00000000E+00	 1.00000000E+00	-5.96046000E-08
					 1.00000000E+00	 5.00000000E-01	-5.96046000E-08
					 1.00000000E+00	 5.00000000E-01	 1.00000000E+00
					 1.00000000E+00	 1.00000000E+00	 1.00000000E+00
					 5.00000000E-01	 1.00000000E+00	-5.96046000E-08
					 5.00000000E-01	 5.00000000E-01	-5.96046000E-08
					 5.00000000E-01	 5.00000000E-01	 1.00000000E+00
					 5.00000000E-01	 1.00000000E+00	 1.00000000E+00
					 1.00000000E+00	 7.50000000E-01	-5.96046000E-08
					 1.00000000E+00	 5.00000000E-01	 5.00000000E-01
					 1.00000000E+00	 7.50000000E-01	 1.00000000E+00
					 1.00000000E+00	 1.00000000E+00	 5.00000000E-01
					 7.50000000E-01	 1.00000000E+00	-5.96046000E-08
					 7.50000000E-01	 5.00000000E-01	-5.96046000E-08
					 7.50000000E-01	 5.00000000E-01	 1.00000000E+00
					 7.50000000E-01	 1.00000000E+00	 1.00000000E+00
					 5.00000000E-01	 7.50000000E-01	-5.96046000E-08
					 5.00000000E-01	 5.00000000E-01	 5.00000000E-01
					 5.00000000E-01	 7.50000000E-01	 1.00000000E+00
					 5.00000000E-01	 1.00000000E+00	 5.00000000E-01
					 1.00000000E+00	-1.49012000E-08	-5.96046000E-08
					 1.00000000E+00	-1.49012000E-08	 1.00000000E+00
					 5.00000000E-01	-1.49012000E-08	-5.96046000E-08
					 5.00000000E-01	-1.49012000E-08	 1.00000000E+00
					 1.00000000E+00	 2.50000000E-01	-5.96046000E-08
					 1.00000000E+00	-1.49012000E-08	 5.00000000E-01
					 1.00000000E+00	 2.50000000E-01	 1.00000000E+00
					 7.50000000E-01	-1.49012000E-08	-5.96046000E-08
					 7.50000000E-01	-1.49012000E-08	 1.00000000E+00
					 5.00000000E-01	 2.50000000E-01	-5.96046000E-08
					 5.00000000E-01	-1.49012000E-08	 5.00000000E-01
					 5.00000000E-01	 2.50000000E-01	 1.00000000E+00
					-7.45058000E-09	 1.00000000E+00	-5.96046000E-08
					-7.45058000E-09	 5.00000000E-01	-5.96046000E-08
					-7.45058000E-09	 5.00000000E-01	 1.00000000E+00
					-7.45058000E-09	 1.00000000E+00	 1.00000000E+00
					 2.50000000E-01	 1.00000000E+00	-5.96046000E-08
					 2.50000000E-01	 5.00000000E-01	-5.96046000E-08
					 2.50000000E-01	 5.00000000E-01	 1.00000000E+00
					 2.50000000E-01	 1.00000000E+00	 1.00000000E+00
					-7.45058000E-09	 7.50000000E-01	-5.96046000E-08
					-7.45058000E-09	 5.00000000E-01	 5.00000000E-01
					-7.45058000E-09	 7.50000000E-01	 1.00000000E+00
					-7.45058000E-09	 1.00000000E+00	 5.00000000E-01
					-7.45058000E-09	-1.49012000E-08	-5.96046000E-08
					-7.45058000E-09	-1.49012000E-08	 1.00000000E+00
					 2.50000000E-01	-1.49012000E-08	-5.96046000E-08
					 2.50000000E-01	-1.49012000E-08	 1.00000000E+00
					-7.45058000E-09	 2.50000000E-01	-5.96046000E-08
					-7.45058000E-09	-1.49012000E-08	 5.00000000E-01
					-7.45058000E-09	 2.50000000E-01	 1.00000000E+00
					 1.00000000E+00	 5.00000000E-01	 2.00000000E+00
					 1.00000000E+00	 1.00000000E+00	 2.00000000E+00
					 5.00000000E-01	 5.00000000E-01	 2.00000000E+00
					 5.00000000E-01	 1.00000000E+00	 2.00000000E+00
					 1.00000000E+00	 5.00000000E-01	 1.50000000E+00
					 1.00000000E+00	 7.50000000E-01	 2.00000000E+00
					 1.00000000E+00	 1.00000000E+00	 1.50000000E+00
					 7.50000000E-01	 5.00000000E-01	 2.00000000E+00
					 7.50000000E-01	 1.00000000E+00	 2.00000000E+00
					 5.00000000E-01	 5.00000000E-01	 1.50000000E+00
					 5.00000000E-01	 7.50000000E-01	 2.00000000E+00
					 5.00000000E-01	 1.00000000E+00	 1.50000000E+00
					 1.00000000E+00	-1.49012000E-08	 2.00000000E+00
					 5.00000000E-01	-1.49012000E-08	 2.00000000E+00
					 1.00000000E+00	-1.49012000E-08	 1.50000000E+00
					 1.00000000E+00	 2.50000000E-01	 2.00000000E+00
					 7.50000000E-01	-1.49012000E-08	 2.00000000E+00
					 5.00000000E-01	-1.49012000E-08	 1.50000000E+00
					 5.00000000E-01	 2.50000000E-01	 2.00000000E+00
					-7.45058000E-09	 5.00000000E-01	 2.00000000E+00
					-7.45058000E-09	 1.00000000E+00	 2.00000000E+00
					 2.50000000E-01	 5.00000000E-01	 2.00000000E+00
					 2.50000000E-01	 1.00000000E+00	 2.00000000E+00
					-7.45058000E-09	 5.00000000E-01	 1.50000000E+00
					-7.45058000E-09	 7.50000000E-01	 2.00000000E+00
					-7.45058000E-09	 1.00000000E+00	 1.50000000E+00
					-7.45058000E-09	-1.49012000E-08	 2.00000000E+00
					 2.50000000E-01	-1.49012000E-08	 2.00000000E+00
					-7.45058000E-09	-1.49012000E-08	 1.50000000E+00
					-7.45058000E-09	 2.50000000E-01	 2.00000000E+00
					 1.00000000E+00	 5.00000000E-01	 3.00000000E+00
					 1.00000000E+00	 1.00000000E+00	 3.00000000E+00
					 5.00000000E-01	 5.00000000E-01	 3.00000000E+00
					 5.00000000E-01	 1.00000000E+00	 3.00000000E+00
					 1.00000000E+00	 5.00000000E-01	 2.50000000E+00
					 1.00000000E+00	 7.50000000E-01	 3.00000000E+00
					 1.00000000E+00	 1.00000000E+00	 2.50000000E+00
					 7.50000000E-01	 5.00000000E-01	 3.00000000E+00
					 7.50000000E-01	 1.00000000E+00	 3.00000000E+00
					 5.00000000E-01	 5.00000000E-01	 2.50000000E+00
					 5.00000000E-01	 7.50000000E-01	 3.00000000E+00
					 5.00000000E-01	 1.00000000E+00	 2.50000000E+00
					 1.00000000E+00	-1.49012000E-08	 3.00000000E+00
					 5.00000000E-01	-1.49012000E-08	 3.00000000E+00
					 1.00000000E+00	-1.49012000E-08	 2.50000000E+00
					 1.00000000E+00	 2.50000000E-01	 3.00000000E+00
					 7.50000000E-01	-1.49012000E-08	 3.00000000E+00
					 5.00000000E-01	-1.49012000E-08	 2.50000000E+00
					 5.00000000E-01	 2.50000000E-01	 3.00000000E+00
					-7.45058000E-09	 5.00000000E-01	 3.00000000E+00
					-7.45058000E-09	 1.00000000E+00	 3.00000000E+00
					 2.50000000E-01	 5.00000000E-01	 3.00000000E+00
					 2.50000000E-01	 1.00000000E+00	 3.00000000E+00
					-7.45058000E-09	 5.00000000E-01	 2.50000000E+00
					-7.45058000E-09	 7.50000000E-01	 3.00000000E+00
					-7.45058000E-09	 1.00000000E+00	 2.50000000E+00
					-7.45058000E-09	-1.49012000E-08	 3.00000000E+00
					 2.50000000E-01	-1.49012000E-08	 3.00000000E+00
					-7.45058000E-09	-1.49012000E-08	 2.50000000E+00
					-7.45058000E-09	 2.50000000E-01	 3.00000000E+00
					 1.00000000E+00	 5.00000000E-01	 4.00000000E+00
					 1.00000000E+00	 1.00000000E+00	 4.00000000E+00
					 5.00000000E-01	 5.00000000E-01	 4.00000000E+00
					 5.00000000E-01	 1.00000000E+00	 4.00000000E+00
					 1.00000000E+00	 5.00000000E-01	 3.50000000E+00
					 1.00000000E+00	 7.50000000E-01	 4.00000000E+00
					 1.00000000E+00	 1.00000000E+00	 3.50000000E+00
					 7.50000000E-01	 5.00000000E-01	 4.00000000E+00
					 7.50000000E-01	 1.00000000E+00	 4.00000000E+00
					 5.00000000E-01	 5.00000000E-01	 3.50000000E+00
					 5.00000000E-01	 7.50000000E-01	 4.00000000E+00
					 5.00000000E-01	 1.00000000E+00	 3.50000000E+00
					 1.00000000E+00	-1.49012000E-08	 4.00000000E+00
					 5.00000000E-01	-1.49012000E-08	 4.00000000E+00
					 1.00000000E+00	-1.49012000E-08	 3.50000000E+00
					 1.00000000E+00	 2.50000000E-01	 4.00000000E+00
					 7.50000000E-01	-1.49012000E-08	 4.00000000E+00
					 5.00000000E-01	-1.49012000E-08	 3.50000000E+00
					 5.00000000E-01	 2.50000000E-01	 4.00000000E+00
					-7.45058000E-09	 5.00000000E-01	 4.00000000E+00
					-7.45058000E-09	 1.00000000E+00	 4.00000000E+00
					 2.50000000E-01	 5.00000000E-01	 4.00000000E+00
					 2.50000000E-01	 1.00000000E+00	 4.00000000E+00
					-7.45058000E-09	 5.00000000E-01	 3.50000000E+00
					-7.45058000E-09	 7.50000000E-01	 4.00000000E+00
					-7.45058000E-09	 1.00000000E+00	 3.50000000E+00
					-7.45058000E-09	-1.49012000E-08	 4.00000000E+00
					 2.50000000E-01	-1.49012000E-08	 4.00000000E+00
					-7.45058000E-09	-1.49012000E-08	 3.50000000E+00
					-7.45058000E-09	 2.50000000E-01	 4.00000000E+00
					 1.00000000E+00	 5.00000000E-01	 5.00000000E+00
					 1.00000000E+00	 1.00000000E+00	 5.00000000E+00
					 5.00000000E-01	 5.00000000E-01	 5.00000000E+00
					 5.00000000E-01	 1.00000000E+00	 5.00000000E+00
					 1.00000000E+00	 5.00000000E-01	 4.50000000E+00
					 1.00000000E+00	 7.50000000E-01	 5.00000000E+00
					 1.00000000E+00	 1.00000000E+00	 4.50000000E+00
					 7.50000000E-01	 5.00000000E-01	 5.00000000E+00
					 7.50000000E-01	 1.00000000E+00	 5.00000000E+00
					 5.00000000E-01	 5.00000000E-01	 4.50000000E+00
					 5.00000000E-01	 7.50000000E-01	 5.00000000E+00
					 5.00000000E-01	 1.00000000E+00	 4.50000000E+00
					 1.00000000E+00	-1.49012000E-08	 5.00000000E+00
					 5.00000000E-01	-1.49012000E-08	 5.00000000E+00
					 1.00000000E+00	-1.49012000E-08	 4.50000000E+00
					 1.00000000E+00	 2.50000000E-01	 5.00000000E+00
					 7.50000000E-01	-1.49012000E-08	 5.00000000E+00
					 5.00000000E-01	-1.49012000E-08	 4.50000000E+00
					 5.00000000E-01	 2.50000000E-01	 5.00000000E+00
					-7.45058000E-09	 5.00000000E-01	 5.00000000E+00
					-7.45058000E-09	 1.00000000E+00	 5.00000000E+00
					 2.50000000E-01	 5.00000000E-01	 5.00000000E+00
					 2.50000000E-01	 1.00000000E+00	 5.00000000E+00
					-7.45058000E-09	 5.00000000E-01	 4.50000000E+00
					-7.45058000E-09	 7.50000000E-01	 5.00000000E+00
					-7.45058000E-09	 1.00000000E+00	 4.50000000E+00
					-7.45058000E-09	-1.49012000E-08	 5.00000000E+00
					 2.50000000E-01	-1.49012000E-08	 5.00000000E+00
					-7.45058000E-09	-1.49012000E-08	 4.50000000E+00
					-7.45058000E-09	 2.50000000E-01	 5.00000000E+00
					 1.00000000E+00	 5.00000000E-01	 6.00000000E+00
					 1.00000000E+00	 1.00000000E+00	 6.00000000E+00
					 5.00000000E-01	 5.00000000E-01	 6.00000000E+00
					 5.00000000E-01	 1.00000000E+00	 6.00000000E+00
					 1.00000000E+00	 5.00000000E-01	 5.50000000E+00
					 1.00000000E+00	 7.50000000E-01	 6.00000000E+00
					 1.00000000E+00	 1.00000000E+00	 5.50000000E+00
					 7.50000000E-01	 5.00000000E-01	 6.00000000E+00
					 7.50000000E-01	 1.00000000E+00	 6.00000000E+00
					 5.00000000E-01	 5.00000000E-01	 5.50000000E+00
					 5.00000000E-01	 7.50000000E-01	 6.00000000E+00
					 5.00000000E-01	 1.00000000E+00	 5.50000000E+00
					 1.00000000E+00	-1.49012000E-08	 6.00000000E+00
[...]
			<PointData>
				<DataArray type="Float32" Name="U" NumberOfComponents="3" ComponentName0="D1" ComponentName1="D2" ComponentName2="D3" format="ascii">
					 0.00000000E+00	 0.00000000E+00	 0.00000000E+00
					 0.00000000E+00	 0.00000000E+00	 0.00000000E+00
					-2.06478000E-05	 2.24827000E-03	 3.98020000E-05
					-1.29829000E-04	 2.19635000E-03	-6.79988000E-04
					 0.00000000E+00	 0.00000000E+00	 0.00000000E+00
					 0.00000000E+00	 0.00000000E+00	 0.00000000E+00
					-1.49038000E-05	 2.19165000E-03	 2.93351000E-05
					-4.35462000E-05	 2.13405000E-03	-7.29897000E-04
					 0.00000000E+00	 0.00000000E+00	 0.00000000E+00
					-1.01005000E-05	 9.52039000E-04	 1.97880000E-05
					-7.45108000E-05	 2.22319000E-03	-2.24700000E-04
					 7.25639000E-05	 9.95755000E-04	-5.88715000E-04
					 0.00000000E+00	 0.00000000E+00	 0.00000000E+00
					 0.00000000E+00	 0.00000000E+00	 0.00000000E+00
					-1.73866000E-05	 2.21916000E-03	 3.38604000E-05
					-8.71627000E-05	 2.16328000E-03	-7.23377000E-04
					 0.00000000E+00	 0.00000000E+00	 0.00000000E+00
					-4.37213000E-06	 9.59723000E-04	 1.26365000E-05
					-2.96106000E-05	 2.16270000E-03	-2.67658000E-04
					-3.59033000E-05	 1.01119000E-03	-6.05725000E-04
					 0.00000000E+00	 0.00000000E+00	 0.00000000E+00
					 8.60382000E-05	 2.20517000E-03	 7.58777000E-04
					 0.00000000E+00	 0.00000000E+00	 0.00000000E+00
					 1.07642000E-05	 2.14613000E-03	 7.88655000E-04
					 0.00000000E+00	 0.00000000E+00	 0.00000000E+00
					-9.31062000E-05	 1.00808000E-03	 6.29079000E-04
					 3.24065000E-05	 2.22664000E-03	 3.04087000E-04
					 0.00000000E+00	 0.00000000E+00	 0.00000000E+00
					 4.92968000E-05	 2.17412000E-03	 7.90340000E-04
					 0.00000000E+00	 0.00000000E+00	 0.00000000E+00
					 2.63994000E-05	 1.02229000E-03	 6.32369000E-04
					-1.52608000E-06	 2.16852000E-03	 3.26125000E-04
					 0.00000000E+00	 0.00000000E+00	 0.00000000E+00
					 0.00000000E+00	 0.00000000E+00	 0.00000000E+00
					-1.04453000E-05	 2.19432000E-03	 1.96196000E-05
					 3.20675000E-05	 2.13006000E-03	-6.99534000E-04
					 0.00000000E+00	 0.00000000E+00	 0.00000000E+00
					 0.00000000E+00	 0.00000000E+00	 0.00000000E+00
					-1.24689000E-05	 2.19160000E-03	 2.47584000E-05
					-5.33711000E-06	 2.13193000E-03	-7.33709000E-04
					 0.00000000E+00	 0.00000000E+00	 0.00000000E+00
					-9.08831000E-07	 8.89971000E-04	 7.61737000E-06
					 1.17159000E-05	 2.16206000E-03	-2.43441000E-04
					-1.46697000E-04	 9.34791000E-04	-6.00816000E-04
					 0.00000000E+00	 0.00000000E+00	 0.00000000E+00
					-5.53608000E-05	 2.14391000E-03	 7.39698000E-04
					 0.00000000E+00	 0.00000000E+00	 0.00000000E+00
					-2.24532000E-05	 2.14472000E-03	 7.84104000E-04
					 0.00000000E+00	 0.00000000E+00	 0.00000000E+00
					 1.44789000E-04	 9.44368000E-04	 6.17980000E-04
					-3.35404000E-05	 2.16933000E-03	 2.82490000E-04
					-4.41020000E-05	 2.87994000E-03	 7.20065000E-05
					 6.42341000E-05	 2.79915000E-03	 3.80030000E-04
					-3.78723000E-05	 3.09843000E-03	 6.66990000E-05
					 2.67844000E-04	 2.99969000E-03	 3.72817000E-04
					-3.41454000E-05	 3.00101000E-03	 5.62456000E-05
					 1.61457000E-05	 2.86843000E-03	 1.69050000E-04
					-1.40523000E-04	 2.95795000E-03	-2.44674000E-04
					-4.12035000E-05	 2.96518000E-03	 6.92918000E-05
					 1.65490000E-04	 2.86885000E-03	 4.27205000E-04
					-2.78993000E-05	 2.99449000E-03	 4.66030000E-05
					 1.14212000E-04	 3.07798000E-03	 2.11682000E-04
					 3.61740000E-05	 2.93016000E-03	-2.66993000E-04
					-1.56454000E-04	 2.80758000E-03	-2.34074000E-04
					-3.46436000E-04	 3.01313000E-03	-2.37748000E-04
					 6.78858000E-05	 2.96433000E-03	 3.58296000E-04
					-1.05480000E-04	 2.87230000E-03	-2.44760000E-05
					-2.51651000E-04	 2.88030000E-03	-2.86755000E-04
					-9.56421000E-05	 2.94158000E-03	 3.61214000E-04
					-1.90887000E-04	 3.08493000E-03	-7.77759000E-05
					-3.08961000E-05	 3.49282000E-03	 6.03767000E-05
					 4.50539000E-04	 3.38565000E-03	 3.67507000E-04
					-3.44165000E-05	 3.26837000E-03	 6.38212000E-05
					 3.58080000E-04	 3.16685000E-03	 3.26036000E-04
					-2.19991000E-05	 3.13224000E-03	 3.78783000E-05
					 2.09690000E-04	 3.46640000E-03	 2.51766000E-04
					 1.92165000E-04	 3.06395000E-03	-2.63152000E-04
					-5.13617000E-04	 3.40186000E-03	-2.45543000E-04
					-4.28862000E-04	 3.18181000E-03	-1.97214000E-04
					-2.38771000E-04	 3.07916000E-03	 3.39819000E-04
					-2.71768000E-04	 3.47469000E-03	-1.30465000E-04
					-5.34955000E-05	 1.48519000E-05	 1.02765000E-04
					 1.15403000E-03	-7.06240000E-05	 1.52313000E-03
					-4.90494000E-05	 1.30738000E-03	 1.03750000E-04
					 1.32525000E-03	 1.21651000E-03	 1.52077000E-03
					-4.82717000E-05	 1.81175000E-03	 8.83179000E-05
					 5.50359000E-04	-9.91243000E-06	 7.12317000E-04
					 5.17097000E-04	 1.73260000E-03	 9.70229000E-04
					-5.07390000E-05	 6.42984000E-04	 1.02781000E-04
					 1.23949000E-03	 5.53833000E-04	 1.62643000E-03
					-4.33525000E-05	 2.47423000E-03	 8.67948000E-05
					 6.37805000E-04	 1.27817000E-03	 8.16888000E-04
					 7.01479000E-04	 2.37894000E-03	 9.70602000E-04
					-1.26660000E-03	-5.35777000E-05	-1.31807000E-03
					-1.42586000E-03	 1.24000000E-03	-1.31391000E-03
					-6.17936000E-04	 1.74530000E-03	-7.92148000E-04
					-6.59089000E-04	-1.80223000E-06	-5.06494000E-04
					-1.34561000E-03	 5.75544000E-04	-1.42181000E-03
					-7.90427000E-04	 2.39668000E-03	-7.95759000E-04
					-7.36805000E-04	 1.29102000E-03	-6.09465000E-04
					-4.40651000E-05	 2.76576000E-03	 1.03418000E-04
					 1.48708000E-03	 2.66623000E-03	 1.52225000E-03
					-4.70771000E-05	 2.01712000E-03	 1.04382000E-04
					 1.40562000E-03	 1.92489000E-03	 1.41335000E-03
					-3.77987000E-05	 3.30238000E-03	 8.28204000E-05
					 7.24048000E-04	 2.73252000E-03	 9.25904000E-04
					 8.60461000E-04	 3.19346000E-03	 9.63171000E-04
					-1.57401000E-03	 2.68989000E-03	-1.31637000E-03
					-1.50006000E-03	 1.94864000E-03	-1.20504000E-03
					-9.35442000E-04	 3.21178000E-03	-7.96643000E-04
					-8.11857000E-04	 2.74568000E-03	-7.19537000E-04
					-7.14189000E-05	-5.28988000E-03	 1.09717000E-04
					 2.52080000E-03	-5.41465000E-03	 2.77601000E-03
					-6.30147000E-05	-2.58323000E-03	 1.22519000E-04
					 2.74953000E-03	-2.71194000E-03	 2.78741000E-03
					-6.20956000E-05	-2.34278000E-03	 1.10732000E-04
					 1.22601000E-03	-5.32241000E-03	 1.35480000E-03
					 1.85649000E-03	-2.44999000E-03	 2.10887000E-03
					-6.75354000E-05	-3.96618000E-03	 1.15100000E-04
					 2.63478000E-03	-4.09352000E-03	 2.87516000E-03
					-5.65437000E-05	-3.30242000E-04	 1.15947000E-04
					 1.34419000E-03	-2.61731000E-03	 1.46237000E-03
					 2.04940000E-03	-4.38677000E-04	 2.10589000E-03
					-2.66847000E-03	-5.38244000E-03	-2.55939000E-03
					-2.87828000E-03	-2.67235000E-03	-2.54550000E-03
					-1.98657000E-03	-2.42761000E-03	-1.88954000E-03
					-1.37011000E-03	-5.30687000E-03	-1.13601000E-03
					-2.77358000E-03	-4.05612000E-03	-2.64789000E-03
					-2.16540000E-03	-4.09008000E-04	-1.87639000E-03
					-1.47077000E-03	-2.59694000E-03	-1.21810000E-03
					-5.15365000E-05	 3.38456000E-04	 1.36865000E-04
					 2.98963000E-03	 2.16143000E-04	 2.80297000E-03
					-5.79447000E-05	-1.15045000E-03	 1.30320000E-04
					 2.86966000E-03	-1.27935000E-03	 2.69620000E-03
					-4.91897000E-05	 1.87255000E-03	 1.21779000E-04
					 1.46595000E-03	 3.06988000E-04	 1.57600000E-03
					 2.24886000E-03	 1.76494000E-03	 2.11896000E-03
					-3.09365000E-03	 2.60444000E-04	-2.53256000E-03
					-2.98733000E-03	-1.23815000E-03	-2.43860000E-03
					-2.34721000E-03	 1.79707000E-03	-1.87804000E-03
					-1.56892000E-03	 3.30387000E-04	-1.30335000E-03
					-7.82953000E-05	-1.34796000E-02	 8.11690000E-05
					 3.73074000E-03	-1.35699000E-02	 4.02929000E-03
					-6.16412000E-05	-9.61427000E-03	 1.14249000E-04
					 3.85655000E-03	-9.70489000E-03	 4.08448000E-03
					-7.74658000E-05	-9.01239000E-03	 9.85113000E-05
					 1.82661000E-03	-1.35087000E-02	 1.93148000E-03
					 3.14514000E-03	-9.12449000E-03	 3.48773000E-03
					-7.01472000E-05	-1.15616000E-02	 9.85869000E-05
					 3.79410000E-03	-1.16526000E-02	 4.13735000E-03
					-6.52118000E-05	-5.69060000E-03	 1.22160000E-04
					 1.89804000E-03	-9.64350000E-03	 2.05252000E-03
					 3.34971000E-03	-5.80476000E-03	 3.52449000E-03
					-3.88905000E-03	-1.35061000E-02	-3.86939000E-03
					-3.98104000E-03	-9.63780000E-03	-3.85863000E-03
					-3.30305000E-03	-9.07700000E-03	-3.29359000E-03
					-1.98363000E-03	-1.34787000E-02	-1.77001000E-03
					-3.93588000E-03	-1.15856000E-02	-3.94297000E-03
					-3.48188000E-03	-5.75117000E-03	-3.28352000E-03
					-2.02160000E-03	-9.61065000E-03	-1.82491000E-03
					-4.34260000E-05	-5.64247000E-03	 1.48826000E-04
					 3.99156000E-03	-5.72806000E-03	 4.09747000E-03
					-5.28148000E-05	-7.64251000E-03	 1.30475000E-04
					 3.92352000E-03	-7.73184000E-03	 4.03880000E-03
					-5.02515000E-05	-2.18066000E-03	 1.47503000E-04
					 1.97285000E-03	-5.66977000E-03	 2.13060000E-03
					 3.57114000E-03	-2.28383000E-03	 3.53707000E-03
					-4.07920000E-03	-5.65868000E-03	-3.80242000E-03
					-4.03010000E-03	-7.66435000E-03	-3.78023000E-03
					-3.67236000E-03	-2.22585000E-03	-3.24556000E-03
					-2.05989000E-03	-5.63516000E-03	-1.83381000E-03
					-8.53904000E-05	-2.30956000E-02	 5.41028000E-05
					 4.78901000E-03	-2.31127000E-02	 4.06264000E-03
					-5.73450000E-05	-1.82641000E-02	 8.93155000E-05
					 4.74276000E-03	-1.82711000E-02	 4.10625000E-03
					-7.87711000E-05	-1.83424000E-02	 6.58757000E-05
					 2.34865000E-03	-2.31141000E-02	 1.97612000E-03
					 4.29122000E-03	-1.83944000E-02	 4.18310000E-03
					-7.12502000E-05	-2.06707000E-02	 7.13290000E-05
					 4.76657000E-03	-2.06804000E-02	 4.14935000E-03
					-5.68057000E-05	-1.39740000E-02	 1.01790000E-04
					 2.34260000E-03	-1.82788000E-02	 2.08018000E-03
					 4.31451000E-03	-1.40215000E-02	 4.23975000E-03
					-4.95744000E-03	-2.30305000E-02	-3.95849000E-03
					-4.85983000E-03	-1.81927000E-02	-3.93127000E-03
					-4.44884000E-03	-1.83183000E-02	-4.05399000E-03
					-2.51935000E-03	-2.30750000E-02	-1.86976000E-03
					-4.90845000E-03	-2.05999000E-02	-4.00996000E-03
					-4.42995000E-03	-1.39460000E-02	-4.03816000E-03
					-2.45854000E-03	-1.82404000E-02	-1.90274000E-03
					-3.21373000E-05	-1.34912000E-02	 1.27639000E-04
					 4.70031000E-03	-1.35026000E-02	 4.13653000E-03
					-4.39631000E-05	-1.58678000E-02	 1.08311000E-04
					 4.72169000E-03	-1.58744000E-02	 4.06500000E-03
					-3.57782000E-05	-9.59852000E-03	 1.39234000E-04
					 2.33655000E-03	-1.35086000E-02	 2.17170000E-03
					 4.33884000E-03	-9.64918000E-03	 4.25699000E-03
					-4.77048000E-03	-1.34197000E-02	-3.88470000E-03
					-4.81487000E-03	-1.57960000E-02	-3.85151000E-03
					-4.41345000E-03	-9.57159000E-03	-3.97997000E-03
					-2.40248000E-03	-1.34654000E-02	-1.91792000E-03
					-1.00796000E-04	-3.13228000E-02	 2.85343000E-05
					 5.45830000E-03	-3.13403000E-02	 3.54203000E-03
					-6.25564000E-05	-2.58000000E-02	 6.85041000E-05
					 5.42932000E-03	-2.58075000E-02	 3.58428000E-03
					-9.55544000E-05	-2.74201000E-02	 4.27290000E-05
					 2.67586000E-03	-3.13383000E-02	 1.75958000E-03
					 5.17180000E-03	-2.74366000E-02	 3.79960000E-03
					-8.30456000E-05	-2.85565000E-02	 4.86522000E-05
					 5.44222000E-03	-2.85661000E-02	 3.59645000E-03
					-6.11831000E-05	-2.21982000E-02	 7.86611000E-05
					 2.68233000E-03	-2.58100000E-02	 1.83759000E-03
					 5.12188000E-03	-2.22031000E-02	 3.83495000E-03
					-5.65674000E-03	-3.12627000E-02	-3.48279000E-03
					-5.55584000E-03	-2.57347000E-02	-3.44448000E-03
					-5.35765000E-03	-2.73554000E-02	-3.71823000E-03
					-2.87672000E-03	-3.13027000E-02	-1.70046000E-03
					-5.60706000E-03	-2.84910000E-02	-3.49756000E-03
					-5.24591000E-03	-2.21288000E-02	-3.68217000E-03
					-2.80824000E-03	-2.57765000E-02	-1.69906000E-03
					-2.60187000E-05	-2.03320000E-02	 1.04293000E-04
					 5.41315000E-03	-2.03367000E-02	 3.63225000E-03
					-4.25250000E-05	-2.30565000E-02	 8.65093000E-05
					 5.42283000E-03	-2.30640000E-02	 3.56647000E-03
					-2.90882000E-05	-1.70464000E-02	 1.17690000E-04
					 2.69210000E-03	-2.03402000E-02	 1.92329000E-03
					 5.07959000E-03	-1.70535000E-02	 3.87675000E-03
					-5.47048000E-03	-2.02592000E-02	-3.42021000E-03
					-5.51195000E-03	-2.29907000E-02	-3.39092000E-03
					-5.14552000E-03	-1.69726000E-02	-3.64641000E-03
					-2.74575000E-03	-2.03033000E-02	-1.71223000E-03
					-7.90830000E-05	-3.82778000E-02	-5.46439000E-06
					 5.73524000E-03	-3.83280000E-02	 3.33008000E-03
					-5.99136000E-05	-3.24907000E-02	 4.72547000E-05
					 5.74223000E-03	-3.25462000E-02	 3.40358000E-03
					-9.59478000E-05	-3.48979000E-02	 1.05548000E-05
					 2.83374000E-03	-3.83025000E-02	 1.65735000E-03
					 5.64461000E-03	-3.49250000E-02	 3.39047000E-03
					-6.74415000E-05	-3.53789000E-02	 2.39284000E-05
					 5.74062000E-03	-3.54349000E-02	 3.37155000E-03
					-6.13040000E-05	-2.91732000E-02	 5.81814000E-05
					 2.84782000E-03	-3.25191000E-02	 1.72702000E-03
					 5.64626000E-03	-2.92031000E-02	 3.45144000E-03
					-5.91490000E-03	-3.82308000E-02	-3.31558000E-03
					-5.86987000E-03	-3.24261000E-02	-3.28356000E-03
					-5.84717000E-03	-3.48490000E-02	-3.35345000E-03
					-2.99763000E-03	-3.82538000E-02	-1.65987000E-03
					-5.89230000E-03	-3.53220000E-02	-3.29969000E-03
					-5.77388000E-03	-2.91165000E-02	-3.31734000E-03
					-2.97054000E-03	-3.24556000E-02	-1.62540000E-03
					-4.28797000E-05	-2.67165000E-02	 7.43238000E-05
					 5.78082000E-03	-2.67593000E-02	 3.46403000E-03
					-5.28444000E-05	-2.96090000E-02	 6.34159000E-05
					 5.75992000E-03	-2.96589000E-02	 3.42950000E-03
					-2.86558000E-05	-2.34756000E-02	 8.72930000E-05
					 2.87106000E-03	-2.67387000E-02	 1.78137000E-03
					 5.66610000E-03	-2.35012000E-02	 3.50625000E-03
					-5.85899000E-03	-2.66442000E-02	-3.28980000E-03
					-5.86453000E-03	-2.95381000E-02	-3.27708000E-03
					-5.72083000E-03	-2.34166000E-02	-3.31208000E-03
					-2.95552000E-03	-2.66777000E-02	-1.62547000E-03
					 0.00000000E+00	 0.00000000E+00	 0.00000000E+00
					 0.00000000E+00	 0.00000000E+00	 0.00000000E+00
					 1.19236000E-04	-4.52863000E-03	-2.69787000E-04
					-4.70204000E-04	-4.61056000E-03	 3.00934000E-03
					 0.00000000E+00	 0.00000000E+00	 0.00000000E+00
					 0.00000000E+00	 0.00000000E+00	 0.00000000E+00
					 8.64313000E-05	-4.98743000E-03	-2.06919000E-04
					-2.35968000E-04	-5.08611000E-03	 3.13562000E-03
					 0.00000000E+00	 0.00000000E+00	 0.00000000E+00
					 6.13845000E-05	-1.35161000E-03	-1.26196000E-04
					-1.75570000E-04	-4.50944000E-03	 1.28765000E-03
					-5.75551000E-04	-1.58998000E-03	 1.75836000E-03
					 0.00000000E+00	 0.00000000E+00	 0.00000000E+00
					 0.00000000E+00	 0.00000000E+00	 0.00000000E+00
					 1.01882000E-04	-4.81511000E-03	-2.36247000E-04
					-3.51504000E-04	-4.90398000E-03	 3.05881000E-03
					 0.00000000E+00	 0.00000000E+00	 0.00000000E+00
					 2.55544000E-05	-1.70009000E-03	-8.83001000E-05
					-7.37656000E-05	-4.97471000E-03	 1.35966000E-03
					-1.16774000E-04	-1.95268000E-03	 1.77013000E-03
					 0.00000000E+00	 0.00000000E+00	 0.00000000E+00
					 6.93466000E-04	-4.66303000E-03	-3.54949000E-03
					 0.00000000E+00	 0.00000000E+00	 0.00000000E+00
					 3.98613000E-04	-5.11835000E-03	-3.55252000E-03
					 0.00000000E+00	 0.00000000E+00	 0.00000000E+00
					 6.86097000E-04	-1.65983000E-03	-2.02623000E-03
					 4.10235000E-04	-4.53742000E-03	-1.82554000E-03
					 0.00000000E+00	 0.00000000E+00	 0.00000000E+00
					 5.41894000E-04	-4.94462000E-03	-3.53341000E-03
					 0.00000000E+00	 0.00000000E+00	 0.00000000E+00
					 1.57329000E-04	-2.00010000E-03	-1.95994000E-03
					 2.43205000E-04	-4.99142000E-03	-1.77356000E-03
					 0.00000000E+00	 0.00000000E+00	 0.00000000E+00
					 0.00000000E+00	 0.00000000E+00	 0.00000000E+00
					 5.89835000E-05	-5.16345000E-03	-1.39889000E-04
					 1.32659000E-05	-5.25659000E-03	 3.13785000E-03
					 0.00000000E+00	 0.00000000E+00	 0.00000000E+00
					 0.00000000E+00	 0.00000000E+00	 0.00000000E+00
					 7.13163000E-05	-5.13220000E-03	-1.75487000E-04
					-1.15156000E-04	-5.22246000E-03	 3.18419000E-03
					 0.00000000E+00	 0.00000000E+00	 0.00000000E+00
					-5.60798000E-08	-1.62575000E-03	-5.89642000E-05
					 3.89690000E-05	-5.15037000E-03	 1.35115000E-03
					 3.63709000E-04	-1.87516000E-03	 1.82820000E-03
					 0.00000000E+00	 0.00000000E+00	 0.00000000E+00
					 9.44861000E-05	-5.26775000E-03	-3.42230000E-03
					 0.00000000E+00	 0.00000000E+00	 0.00000000E+00
					 2.47099000E-04	-5.24951000E-03	-3.53883000E-03
					 0.00000000E+00	 0.00000000E+00	 0.00000000E+00
					-3.75480000E-04	-1.89939000E-03	-1.95724000E-03
					 7.80907000E-05	-5.15714000E-03	-1.63161000E-03
					 3.01617000E-04	-1.24336000E-02	-5.32902000E-04
					-8.12677000E-04	-1.24942000E-02	 3.96592000E-03
					 2.72178000E-04	-1.34999000E-02	-4.48348000E-04
					-7.33380000E-04	-1.35438000E-02	 4.05772000E-03
					 2.04382000E-04	-8.34486000E-03	-4.03887000E-04
					-2.61095000E-04	-1.24580000E-02	 1.77987000E-03
					-5.52665000E-04	-8.45721000E-03	 3.62620000E-03
					 2.86711000E-04	-1.29777000E-02	-4.90621000E-04
					-7.72351000E-04	-1.30212000E-02	 3.94353000E-03
					 1.71720000E-04	-9.03017000E-03	-3.23847000E-04
					-2.23727000E-04	-1.35147000E-02	 1.80314000E-03
					-4.20884000E-04	-9.12787000E-03	 3.72432000E-03
					 1.41468000E-03	-1.25162000E-02	-5.03106000E-03
					 1.27076000E-03	-1.35700000E-02	-4.95394000E-03
					 9.53085000E-04	-8.49756000E-03	-4.43698000E-03
					 8.63295000E-04	-1.24679000E-02	-2.84715000E-03
					 1.34326000E-03	-1.30504000E-02	-4.92079000E-03
					 7.56652000E-04	-9.15723000E-03	-4.37654000E-03
					 7.70518000E-04	-1.35277000E-02	-2.69728000E-03
					 2.37415000E-04	-1.44383000E-02	-3.63417000E-04
					-6.10565000E-04	-1.44558000E-02	 4.13255000E-03
					 2.54803000E-04	-1.39734000E-02	-4.05729000E-04
					-6.69799000E-04	-1.40397000E-02	 4.16321000E-03
					 1.42059000E-04	-9.52511000E-03	-2.42059000E-04
					-1.94744000E-04	-1.44353000E-02	 1.81436000E-03
					-2.60225000E-04	-9.62013000E-03	 3.78556000E-03
					 1.10900000E-03	-1.44983000E-02	-4.86152000E-03
					 1.18889000E-03	-1.40452000E-02	-4.97966000E-03
					 5.47182000E-04	-9.64739000E-03	-4.27495000E-03
					 6.75623000E-04	-1.44572000E-02	-2.53698000E-03
					 4.96886000E-04	-2.10583000E-02	-7.66462000E-04
					-2.01646000E-03	-2.10515000E-02	 4.43066000E-03
					 4.74610000E-04	-2.34988000E-02	-6.96826000E-04
					-1.95100000E-03	-2.35985000E-02	 4.51368000E-03
					 4.03409000E-04	-1.66305000E-02	-6.52386000E-04
					-7.53643000E-04	-2.10426000E-02	 1.92429000E-03
					-1.31132000E-03	-1.66827000E-02	 4.24839000E-03
					 4.88582000E-04	-2.22925000E-02	-7.27469000E-04
					-1.98487000E-03	-2.23526000E-02	 4.34044000E-03
					 3.75282000E-04	-1.82943000E-02	-5.74336000E-04
					-7.62224000E-04	-2.35402000E-02	 1.85664000E-03
					-1.23797000E-03	-1.83440000E-02	 4.33577000E-03
					 2.97193000E-03	-2.10846000E-02	-5.94456000E-03
					 2.89983000E-03	-2.35436000E-02	-5.92303000E-03
					 2.11096000E-03	-1.66926000E-02	-5.54886000E-03
					 1.73413000E-03	-2.10600000E-02	-3.44477000E-03
					 2.93492000E-03	-2.23222000E-02	-5.80501000E-03
					 1.99138000E-03	-1.83419000E-02	-5.48213000E-03
					 1.68755000E-03	-2.35136000E-02	-3.26937000E-03
					 4.39422000E-04	-2.58956000E-02	-6.27892000E-04
					-1.98114000E-03	-2.60972000E-02	 4.56751000E-03
					 4.57767000E-04	-2.47200000E-02	-6.65692000E-04
					-1.96787000E-03	-2.47457000E-02	 4.69794000E-03
					 3.49737000E-04	-1.98546000E-02	-4.96598000E-04
					-7.43784000E-04	-2.59928000E-02	 1.75468000E-03
					-1.16860000E-03	-1.99094000E-02	 4.40720000E-03
					 2.82233000E-03	-2.59629000E-02	-5.86598000E-03
					 2.86143000E-03	-2.47595000E-02	-6.04636000E-03
					 1.83307000E-03	-1.98848000E-02	-5.40200000E-03
					 1.62558000E-03	-2.59313000E-02	-3.05409000E-03
					 6.89446000E-04	-3.02678000E-02	-9.69016000E-04
					-3.38066000E-03	-3.00906000E-02	 3.81823000E-03