<?xml version="1.0"?>
<VTKFile type="UnstructuredGrid" version="0.1" byte_order="LittleEndian">
	<UnstructuredGrid>
		<Piece NumberOfPoints="522" NumberOfCells="64">
			<Points>
				<DataArray type="Float64" NumberOfComponents="3" format="ascii">
					 1.00000000E+00	 1.00000000E+00	-5.96046000E-08
					 1.00000000E+00	 5.00000000E-01	-5.96046000E-08
					 1.00000000E+00	 5.00000000E-01	 1.00000000E+00
					 1.00000000E+00	 1.00000000E+00	 1.00000000E+00
					 5.00000000E-01	 1.00000000E+00	-5.96046000E-08
					 5.00000000E-01	 5.00000000E-01	-5.96046000E-08
					 5.00000000E-01	 5.00000000E-01	 1.00000000E+00
					 5.00000000E-01	 1.00000000E+00	 1.00000000E+00
					 1.00000000E+00	 7.50000000E-01	-5.96046000E-08
					 1.00000000E+00	 5.00000000E-01	 5.00000000E-01
					 1.00000000E+00	 7.50000000E-01	 1.00000000E+00
					 1.00000000E+00	 1.00000000E+00	 5.00000000E-01
					 7.50000000E-01	 1.00000000E+00	-5.96046000E-08
					 7.50000000E-01	 5.00000000E-01	-5.96046000E-08
					 7.50000000E-01	 5.00000000E-01	 1.00000000E+00
					 7.50000000E-01	 1.00000000E+00	 1.00000000E+00
					 5.00000000E-01	 7.50000000E-01	-5.96046000E-08
					 5.00000000E-01	 5.00000000E-01	 5.00000000E-01
					 5.00000000E-01	 7.50000000E-01	 1.00000000E+00
					 5.00000000E-01	 1.00000000E+00	 5.00000000E-01
					 1.00000000E+00	-1.49012000E-08	-5.96046000E-08
					 1.00000000E+00	-1.49012000E-08	 1.00000000E+00
					 5.00000000E-01	-1.49012000E-08	-5.96046000E-08
					 5.00000000E-01	-1.49012000E-08	 1.00000000E+00
					 1.00000000E+00	 2.50000000E-01	-5.96046000E-08
					 1.00000000E+00	-1.49012000E-08	 5.00000000E-01
					 1.00000000E+00	 2.50000000E-01	 1.00000000E+00
					 7.50000000E-01	-1.49012000E-08	-5.96046000E-08
					 7.50000000E-01	-1.49012000E-08	 1.00000000E+00
					 5.00000000E-01	 2.50000000E-01	-5.96046000E-08
					 5.00000000E-01	-1.49012000E-08	 5.00000000E-01
					 5.00000000E-01	 2.50000000E-01	 1.00000000E+00
					-7.45058000E-09	 1.00000000E+00	-5.96046000E-08
					-7.45058000E-09	 5.00000000E-01	-5.96046000E-08
					-7.45058000E-09	 5.00000000E-01	 1.00000000E+00
					-7.45058000E-09	 1.00000000E+00	 1.00000000E+00
					 2.50000000E-01	 1.00000000E+00	-5.96046000E-08
					 2.50000000E-01	 5.00000000E-01	-5.96046000E-08
					 2.50000000E-01	 5.00000000E-01	 1.00000000E+00
					 2.50000000E-01	 1.00000000E+00	 1.00000000E+00
					-7.45058000E-09	 7.50000000E-01	-5.96046000E-08
					-7.45058000E-09	 5.00000000E-01	 5.00000000E-01
					-7.45058000E-09	 7.50000000E-01	 1.00000000E+00
					-7.45058000E-09	 1.00000000E+00	 5.00000000E-01
					-7.45058000E-09	-1.49012000E-08	-5.96046000E-08
					-7.45058000E-09	-1.49012000E-08	 1.00000000E+00
					 2.50000000E-01	-1.49012000E-08	-5.96046000E-08
					 2.50000000E-01	-1.49012000E-08	 1.00000000E+00
					-7.45058000E-09	 2.50000000E-01	-5.96046000E-08
					-7.45058000E-09	-1.49012000E-08	 5.00000000E-01
					-7.45058000E-09	 2.50000000E-01	 1.00000000E+00
					 1.00000000E+00	 5.00000000E-01	 2.00000000E+00
					 1.00000000E+00	 1.00000000E+00	 2.00000000E+00
					 5.00000000E-01	 5.00000000E-01	 2.00000000E+00
					 5.00000000E-01	 1.00000000E+00	 2.00000000E+00
					 1.00000000E+00	 5.00000000E-01	 1.50000000E+00
					 1.00000000E+00	 7.50000000E-01	 2.00000000E+00
					 1.00000000E+00	 1.00000000E+00	 1.50000000E+00
					 7.50000000E-01	 5.00000000E-01	 2.00000000E+00
					 7.50000000E-01	 1.00000000E+00	 2.00000000E+00
					 5.00000000E-01	 5.00000000E-01	 1.50000000E+00
					 5.00000000E-01	 7.50000000E-01	 2.00000000E+00
					 5.00000000E-01	 1.00000000E+00	 1.50000000E+00
					 1.00000000E+00	-1.49012000E-08	 2.00000000E+00
					 5.00000000E-01	-1.49012000E-08	 2.00000000E+00
					 1.00000000E+00	-1.49012000E-08	 1.50000000E+00
					 1.00000000E+00	 2.50000000E-01	 2.00000000E+00
					 7.50000000E-01	-1.49012000E-08	 2.00000000E+00
					 5.00000000E-01	-1.49012000E-08	 1.50000000E+00
					 5.00000000E-01	 2.50000000E-01	 2.00000000E+00
					-7.45058000E-09	 5.00000000E-01	 2.00000000E+00
					-7.45058000E-09	 1.00000000E+00	 2.00000000E+00
					 2.50000000E-01	 5.00000000E-01	 2.00000000E+00
					 2.50000000E-01	 1.00000000E+00	 2.00000000E+00
					-7.45058000E-09	 5.00000000E-01	 1.50000000E+00
					-7.45058000E-09	 7.50000000E-01	 2.00000000E+00
					-7.45058000E-09	 1.00000000E+00	 1.50000000E+00
					-7.45058000E-09	-1.49012000E-08	 2.00000000E+00
					 2.50000000E-01	-1.49012000E-08	 2.00000000E+00
					-7.45058000E-09	-1.49012000E-08	 1.50000000E+00
					-7.45058000E-09	 2.50000000E-01	 2.00000000E+00
					 1.00000000E+00	 5.00000000E-01	 3.00000000E+00
					 1.00000000E+00	 1.00000000E+00	 3.00000000E+00
					 5.00000000E-01	 5.00000000E-01	 3.00000000E+00
					 5.00000000E-01	 1.00000000E+00	 3.00000000E+00
					 1.00000000E+00	 5.00000000E-01	 2.50000000E+00
					 1.00000000E+00	 7.50000000E-01	 3.00000000E+00
					 1.00000000E+00	 1.00000000E+00	 2.50000000E+00
					 7.50000000E-01	 5.00000000E-01	 3.00000000E+00
					 7.50000000E-01	 1.00000000E+00	 3.00000000E+00
					 5.00000000E-01	 5.00000000E-01	 2.50000000E+00
					 5.00000000E-01	 7.50000000E-01	 3.00000000E+00
					 5.00000000E-01	 1.00000000E+00	 2.50000000E+00
					 1.00000000E+00	-1.49012000E-08	 3.00000000E+00
					 5.00000000E-01	-1.49012000E-08	 3.00000000E+00
					 1.00000000E+00	-1.49012000E-08	 2.50000000E+00
					 1.00000000E+00	 2.50000000E-01	 3.00000000E+00
					 7.50000000E-01	-1.49012000E-08	 3.00000000E+00
					 5.00000000E-01	-1.49012000E-08	 2.50000000E+00
					 5.00000000E-01	 2.50000000E-01	 3.00000000E+00
					-7.45058000E-09	 5.00000000E-01	 3.00000000E+00
					-7.45058000E-09	 1.00000000E+00	 3.00000000E+00
					 2.50000000E-01	 5.00000000E-01	 3.00000000E+00
					 2.50000000E-01	 1.00000000E+00	 3.00000000E+00
					-7.45058000E-09	 5.00000000E-01	 2.50000000E+00
					-7.45058000E-09	 7.50000000E-01	 3.00000000E+00
					-7.45058000E-09	 1.00000000E+00	 2.50000000E+00
					-7.45058000E-09	-1.49012000E-08	 3.00000000E+00
					 2.50000000E-01	-1.49012000E-08	 3.00000000E+00
					-7.45058000E-09	-1.49012000E-08	 2.50000000E+00
					-7.45058000E-09	 2.50000000E-01	 3.00000000E+00
					 1.00000000E+00	 5.00000000E-01	 4.00000000E+00
					 1.00000000E+00	 1.00000000E+00	 4.00000000E+00
					 5.00000000E-01	 5.00000000E-01	 4.00000000E+00
					 5.00000000E-01	 1.00000000E+00	 4.00000000E+00
					 1.00000000E+00	 5.00000000E-01	 3.50000000E+00
					 1.00000000E+00	 7.50000000E-01	 4.00000000E+00
					 1.00000000E+00	 1.00000000E+00	 3.50000000E+00
					 7.50000000E-01	 5.00000000E-01	 4.00000000E+00
					 7.50000000E-01	 1.00000000E+00	 4.00000000E+00
					 5.00000000E-01	 5.00000000E-01	 3.50000000E+00
					 5.00000000E-01	 7.50000000E-01	 4.00000000E+00
					 5.00000000E-01	 1.00000000E+00	 3.50000000E+00
					 1.00000000E+00	-1.49012000E-08	 4.00000000E+00
					 5.00000000E-01	-1.49012000E-08	 4.00000000E+00
					 1.00000000E+00	-1.49012000E-08	 3.50000000E+00
					 1.00000000E+00	 2.50000000E-01	 4.00000000E+00
					 7.50000000E-01	-1.49012000E-08	 4.00000000E+00
					 5.00000000E-01	-1.49012000E-08	 3.50000000E+00
					 5.00000000E-01	 2.50000000E-01	 4.00000000E+00
					-7.45058000E-09	 5.00000000E-01	 4.00000000E+00
					-7.45058000E-09	 1.00000000E+00	 4.00000000E+00
					 2.50000000E-01	 5.00000000E-01	 4.00000000E+00
					 2.50000000E-01	 1.00000000E+00	 4.00000000E+00
					-7.45058000E-09	 5.00000000E-01	 3.50000000E+00
					-7.45058000E-09	 7.50000000E-01	 4.00000000E+00
					-7.45058000E-09	 1.00000000E+00	 3.50000000E+00
					-7.45058000E-09	-1.49012000E-08	 4.00000000E+00
					 2.50000000E-01	-1.49012000E-08	 4.00000000E+00
					-7.45058000E-09	-1.49012000E-08	 3.50000000E+00
					-7.45058000E-09	 2.50000000E-01	 4.00000000E+00
					 1.00000000E+00	 5.00000000E-01	 5.00000000E+00
					 1.00000000E+00	 1.00000000E+00	 5.00000000E+00
					 5.00000000E-01	 5.00000000E-01	 5.00000000E+00
					 5.00000000E-01	 1.00000000E+00	 5.00000000E+00
					 1.00000000E+00	 5.00000000E-01	 4.50000000E+00
					 1.00000000E+00	 7.50000000E-01	 5.00000000E+00
					 1.00000000E+00	 1.00000000E+00	 4.50000000E+00
					 7.50000000E-01	 5.00000000E-01	 5.00000000E+00
					 7.50000000E-01	 1.00000000E+00	 5.00000000E+00
					 5.00000000E-01	 5.00000000E-01	 4.50000000E+00
					 5.00000000E-01	 7.50000000E-01	 5.00000000E+00
					 5.00000000E-01	 1.00000000E+00	 4.50000000E+00
					 1.00000000E+00	-1.49012000E-08	 5.00000000E+00
					 5.00000000E-01	-1.49012000E-08	 5.00000000E+00
					 1.00000000E+00	-1.49012000E-08	 4.50000000E+00
					 1.00000000E+00	 2.50000000E-01	 5.00000000E+00
					 7.50000000E-01	-1.49012000E-08	 5.00000000E+00
					 5.00000000E-01	-1.49012000E-08	 4.50000000E+00
					 5.00000000E-01	 2.50000000E-01	 5.00000000E+00
					-7.45058000E-09	 5.00000000E-01	 5.00000000E+00
					-7.45058000E-09	 1.00000000E+00	 5.00000000E+00
					 2.50000000E-01	 5.00000000E-01	 5.00000000E+00
					 2.50000000E-01	 1.00000000E+00	 5.00000000E+00
					-7.45058000E-09	 5.00000000E-01	 4.50000000E+00
					-7.45058000E-09	 7.50000000E-01	 5.00000000E+00
					-7.45058000E-09	 1.00000000E+00	 4.50000000E+00
					-7.45058000E-09	-1.49012000E-08	 5.00000000E+00
					 2.50000000E-01	-1.49012000E-08	 5.00000000E+00
					-7.45058000E-09	-1.49012000E-08	 4.50000000E+00
					-7.45058000E-09	 2.50000000E-01	 5.00000000E+00
					 1.00000000E+00	 5.00000000E-01	 6.00000000E+00
					 1.00000000E+00	 1.00000000E+00	 6.00000000E+00
					 5.00000000E-01	 5.00000000E-01	 6.00000000E+00
					 5.00000000E-01	 1.00000000E+00	 6.00000000E+00
					 1.00000000E+00	 5.00000000E-01	 5.50000000E+00
					 1.00000000E+00	 7.50000000E-01	 6.00000000E+00
					 1.00000000E+00	 1.00000000E+00	 5.50000000E+00
					 7.50000000E-01	 5.00000000E-01	 6.00000000E+00
					 7.50000000E-01	 1.00000000E+00	 6.00000000E+00
					 5.00000000E-01	 5.00000000E-01	 5.50000000E+00
					 5.00000000E-01	 7.50000000E-01	 6.00000000E+00
					 5.00000000E-01	 1.00000000E+00	 5.50000000E+00
					 1.00000000E+00	-1.49012000E-08	 6.00000000E+00
[...]
			<PointData>
				<DataArray type="Float32" Name="U" NumberOfComponents="3" ComponentName0="D1" ComponentName1="D2" ComponentName2="D3" format="ascii">
					 0.00000000E+00	 0.00000000E+00	 0.00000000E+00
					 0.00000000E+00	 0.00000000E+00	 0.00000000E+00
					 7.84333000E-06	-3.89464000E-03	 7.65821000E-06
					-8.89168000E-04	-4.07760000E-03	 3.54105000E-03
					 0.00000000E+00	 0.00000000E+00	 0.00000000E+00
					 0.00000000E+00	 0.00000000E+00	 0.00000000E+00
					 9.80989000E-06	-4.59892000E-03	 1.84610000E-06
					-5.01700000E-04	-4.79363000E-03	 3.59028000E-03
					 0.00000000E+00	 0.00000000E+00	 0.00000000E+00
					 8.55328000E-06	-9.23557000E-04	 2.94468000E-06
					-4.41869000E-04	-3.91216000E-03	 1.74314000E-03
					-7.59676000E-04	-1.23623000E-03	 1.90605000E-03
					 0.00000000E+00	 0.00000000E+00	 0.00000000E+00
					 0.00000000E+00	 0.00000000E+00	 0.00000000E+00
					 9.04497000E-06	-4.31838000E-03	 4.24435000E-06
					-6.91962000E-04	-4.50598000E-03	 3.52484000E-03
					 0.00000000E+00	 0.00000000E+00	 0.00000000E+00
					 8.88888000E-06	-1.39800000E-03	 2.20964000E-06
					-2.45976000E-04	-4.61815000E-03	 1.71962000E-03
					-2.30939000E-04	-1.70560000E-03	 1.86331000E-03
					 0.00000000E+00	 0.00000000E+00	 0.00000000E+00
					 9.06183000E-04	-4.03542000E-03	-3.53072000E-03
					 0.00000000E+00	 0.00000000E+00	 0.00000000E+00
					 5.26749000E-04	-4.75510000E-03	-3.59134000E-03
					 0.00000000E+00	 0.00000000E+00	 0.00000000E+00
					 7.77244000E-04	-1.21604000E-03	-1.89946000E-03
					 4.58046000E-04	-3.88971000E-03	-1.72958000E-03
					 0.00000000E+00	 0.00000000E+00	 0.00000000E+00
					 7.13552000E-04	-4.46550000E-03	-3.52112000E-03
					 0.00000000E+00	 0.00000000E+00	 0.00000000E+00
					 2.52647000E-04	-1.68841000E-03	-1.85863000E-03
					 2.67554000E-04	-4.59851000E-03	-1.71751000E-03
					 0.00000000E+00	 0.00000000E+00	 0.00000000E+00
					 0.00000000E+00	 0.00000000E+00	 0.00000000E+00
					 1.16855000E-05	-4.92147000E-03	-7.24619000E-07
					-1.07924000E-04	-5.09008000E-03	 3.53202000E-03
					 0.00000000E+00	 0.00000000E+00	 0.00000000E+00
					 0.00000000E+00	 0.00000000E+00	 0.00000000E+00
					 1.03490000E-05	-4.82984000E-03	-6.82079000E-08
					-3.07482000E-04	-5.01514000E-03	 3.61931000E-03
					 0.00000000E+00	 0.00000000E+00	 0.00000000E+00
					 9.82740000E-06	-1.40675000E-03	 4.54434000E-06
					-5.06635000E-05	-4.92938000E-03	 1.63410000E-03
					 3.18465000E-04	-1.69344000E-03	 1.90504000E-03
					 0.00000000E+00	 0.00000000E+00	 0.00000000E+00
					 1.39820000E-04	-5.06171000E-03	-3.53675000E-03
					 0.00000000E+00	 0.00000000E+00	 0.00000000E+00
					 3.35673000E-04	-4.97962000E-03	-3.62382000E-03
					 0.00000000E+00	 0.00000000E+00	 0.00000000E+00
					-2.92645000E-04	-1.68145000E-03	-1.89708000E-03
					 7.65368000E-05	-4.91720000E-03	-1.63620000E-03
					 9.05193000E-06	-1.34076000E-02	-1.59315000E-05
					-1.23271000E-03	-1.35214000E-02	 5.44454000E-03
					 1.38621000E-05	-1.45638000E-02	-3.02811000E-05
					-1.05902000E-03	-1.46814000E-02	 5.45191000E-03
					 7.40287000E-06	-8.16176000E-03	 1.44226000E-06
					-6.12686000E-04	-1.34499000E-02	 2.69388000E-03
					-1.08184000E-03	-8.34365000E-03	 4.68991000E-03
					 1.18606000E-05	-1.40003000E-02	-2.29877000E-05
					-1.14612000E-03	-1.41160000E-02	 5.42658000E-03
					 9.93520000E-06	-9.10686000E-03	-8.49720000E-06
					-5.22885000E-04	-1.46096000E-02	 2.66680000E-03
					-7.91098000E-04	-9.28918000E-03	 4.70877000E-03
					 1.24882000E-03	-1.34551000E-02	-5.48092000E-03
					 1.08482000E-03	-1.46139000E-02	-5.51670000E-03
					 1.09566000E-03	-8.28863000E-03	-4.69551000E-03
					 6.30076000E-04	-1.34183000E-02	-2.72692000E-03
					 1.16760000E-03	-1.40493000E-02	-5.47709000E-03
					 8.12939000E-04	-9.23438000E-03	-4.73249000E-03
					 5.49679000E-04	-1.45771000E-02	-2.72841000E-03
					 1.59723000E-05	-1.55524000E-02	-4.20666000E-05
					-8.93615000E-04	-1.56734000E-02	 5.41810000E-03
					 1.51729000E-05	-1.50743000E-02	-3.68182000E-05
					-9.76209000E-04	-1.51909000E-02	 5.48341000E-03
					 1.18561000E-05	-9.76527000E-03	-1.52209000E-05
					-4.35356000E-04	-1.55988000E-02	 2.59611000E-03
					-5.06698000E-04	-9.95017000E-03	 4.67432000E-03
					 9.24463000E-04	-1.56063000E-02	-5.50613000E-03
					 1.00490000E-03	-1.51226000E-02	-5.56032000E-03
					 5.35184000E-04	-9.90068000E-03	-4.70950000E-03
					 4.66921000E-04	-1.55670000E-02	-2.68162000E-03
					-2.11471000E-06	-2.50789000E-02	-6.01818000E-05
					-1.50300000E-03	-2.51479000E-02	 5.97620000E-03
					 4.43737000E-06	-2.65673000E-02	-8.63882000E-05
					-1.45704000E-03	-2.66305000E-02	 5.94981000E-03
					 6.12672000E-06	-1.91591000E-02	-3.70758000E-05
					-7.54829000E-04	-2.51094000E-02	 2.97815000E-03
					-1.37218000E-03	-1.92503000E-02	 5.80866000E-03
					 9.91098000E-07	-2.58279000E-02	-7.35196000E-05
					-1.47964000E-03	-2.58918000E-02	 5.94234000E-03
					 1.18325000E-05	-2.04991000E-02	-5.79722000E-05
					-7.26030000E-04	-2.65951000E-02	 2.93094000E-03
					-1.28418000E-03	-2.05868000E-02	 5.80173000E-03
					 1.50258000E-03	-2.50636000E-02	-6.09795000E-03
					 1.46565000E-03	-2.65505000E-02	-6.12444000E-03
					 1.38466000E-03	-1.91737000E-02	-5.88429000E-03
					 7.51772000E-04	-2.50670000E-02	-3.09926000E-03
					 1.48407000E-03	-2.58108000E-02	-6.09046000E-03
					 1.30578000E-03	-2.05113000E-02	-5.91956000E-03
					 7.34761000E-04	-2.65559000E-02	-3.10444000E-03
					 1.01266000E-05	-2.80026000E-02	-1.09688000E-04
					-1.41475000E-03	-2.80755000E-02	 5.92557000E-03
					 7.80899000E-06	-2.72908000E-02	-9.84082000E-05
					-1.43612000E-03	-2.73560000E-02	 5.95669000E-03
					 1.52519000E-05	-2.17503000E-02	-7.67350000E-05
					-6.98977000E-04	-2.80350000E-02	 2.88794000E-03
					-1.20479000E-03	-2.18499000E-02	 5.76776000E-03
					 1.43099000E-03	-2.79920000E-02	-6.14750000E-03
					 1.44865000E-03	-2.72747000E-02	-6.15605000E-03
					 1.23151000E-03	-2.17721000E-02	-5.92385000E-03
					 7.18174000E-04	-2.79934000E-02	-3.10822000E-03
					-2.12972000E-05	-3.70274000E-02	-1.10903000E-04
					-1.90104000E-03	-3.71514000E-02	 6.49213000E-03
					-1.24816000E-05	-3.88305000E-02	-1.41642000E-04
					-1.73549000E-03	-3.89531000E-02	 6.44776000E-03
					-1.11540000E-05	-3.09641000E-02	-8.40445000E-05
					-9.61196000E-04	-3.70706000E-02	 3.24780000E-03
					-1.68779000E-03	-3.10598000E-02	 6.15328000E-03
					-1.77423000E-05	-3.79484000E-02	-1.26867000E-04
					-1.81908000E-03	-3.80714000E-02	 6.44122000E-03
					-2.99373000E-06	-3.26065000E-02	-1.13326000E-04
					-8.74135000E-04	-3.88718000E-02	 3.18438000E-03
					-1.59902000E-03	-3.26957000E-02	 6.10978000E-03
					 1.86689000E-03	-3.70483000E-02	-6.71409000E-03
					 1.71561000E-03	-3.88597000E-02	-6.73199000E-03
					 1.67121000E-03	-3.09698000E-02	-6.32307000E-03
					 9.20874000E-04	-3.70173000E-02	-3.46985000E-03
					 1.79150000E-03	-3.79754000E-02	-6.69478000E-03
					 1.59516000E-03	-3.26124000E-02	-6.33877000E-03
					 8.51113000E-04	-3.88255000E-02	-3.46785000E-03
					-2.75207000E-06	-4.04788000E-02	-1.71139000E-04
					-1.57259000E-03	-4.06011000E-02	 6.43047000E-03
					-7.04291000E-06	-3.96744000E-02	-1.56112000E-04
					-1.65314000E-03	-3.97975000E-02	 6.44745000E-03
					 5.27193000E-06	-3.41593000E-02	-1.39489000E-04
					-7.88482000E-04	-4.05199000E-02	 3.15037000E-03
					-1.51029000E-03	-3.42533000E-02	 6.09661000E-03
					 1.56772000E-03	-4.05085000E-02	-6.77454000E-03
					 1.64147000E-03	-3.97047000E-02	-6.76166000E-03
					 1.51893000E-03	-3.41682000E-02	-6.37875000E-03
					 7.83280000E-04	-4.04743000E-02	-3.49291000E-03
					-3.29514000E-05	-5.12454000E-02	-1.95550000E-04
					-2.12364000E-03	-5.14007000E-02	 7.72348000E-03
					-2.72239000E-05	-5.32296000E-02	-2.26904000E-04
					-1.91780000E-03	-5.33935000E-02	 7.70362000E-03
					-2.99429000E-05	-4.36817000E-02	-1.46464000E-04
					-1.07516000E-03	-5.12958000E-02	 3.74235000E-03
					-2.06684000E-03	-4.38256000E-02	 7.08660000E-03
					-3.06511000E-05	-5.22621000E-02	-2.11737000E-04
					-2.02077000E-03	-5.24256000E-02	 7.71330000E-03
					-2.27814000E-05	-4.56138000E-02	-1.77479000E-04
					-9.73699000E-04	-5.32826000E-02	 3.71592000E-03
					-1.85391000E-03	-4.57607000E-02	 7.05138000E-03
					 2.06672000E-03	-5.12542000E-02	-8.11812000E-03
					 1.87117000E-03	-5.32572000E-02	-8.16085000E-03
					 2.01805000E-03	-4.36995000E-02	-7.37960000E-03
					 1.01184000E-03	-5.12215000E-02	-4.13361000E-03
					 1.96901000E-03	-5.22854000E-02	-8.14120000E-03
					 1.81621000E-03	-4.56469000E-02	-7.40743000E-03
					 9.22236000E-04	-5.32155000E-02	-4.17038000E-03
					-1.94891000E-05	-5.50342000E-02	-2.56919000E-04
					-1.72454000E-03	-5.51958000E-02	 7.66375000E-03
					-2.34945000E-05	-5.41581000E-02	-2.41921000E-04
					-1.82211000E-03	-5.43211000E-02	 7.69678000E-03
					-1.37556000E-05	-4.73512000E-02	-2.08178000E-04
					-8.73475000E-04	-5.50867000E-02	 3.66941000E-03
					-1.64506000E-03	-4.74928000E-02	 7.02402000E-03
					 1.68981000E-03	-5.50648000E-02	-8.18030000E-03
					 1.78112000E-03	-5.41871000E-02	-8.18348000E-03
					 1.62063000E-03	-4.73828000E-02	-7.44212000E-03
					 8.35957000E-04	-5.50237000E-02	-4.18365000E-03
					-2.13576000E-05	-6.88444000E-02	-3.39764000E-04
					-1.66166000E-03	-6.89202000E-02	 8.28457000E-03
					-1.69887000E-05	-7.04823000E-02	-3.64281000E-04
					-1.64711000E-03	-7.05625000E-02	 8.27956000E-03
					-2.94387000E-05	-5.97550000E-02	-2.62008000E-04
					-8.40411000E-04	-6.88811000E-02	 3.87400000E-03
					-1.99304000E-03	-5.98673000E-02	 8.15355000E-03
					-1.87587000E-05	-6.96615000E-02	-3.51185000E-04
					-1.65519000E-03	-6.97425000E-02	 8.34244000E-03
					-2.38297000E-05	-6.16533000E-02	-2.91325000E-04
					-8.32039000E-04	-7.05239000E-02	 3.91619000E-03
					-1.86784000E-03	-6.17789000E-02	 8.14713000E-03
					 1.61629000E-03	-6.87647000E-02	-8.96236000E-03
					 1.61350000E-03	-7.04043000E-02	-9.00635000E-03
					 1.93626000E-03	-5.97134000E-02	-8.68087000E-03
					 7.97111000E-04	-6.88078000E-02	-4.55272000E-03
					 1.61563000E-03	-6.95827000E-02	-9.04357000E-03
					 1.82373000E-03	-6.16274000E-02	-8.73190000E-03
					 7.98180000E-04	-7.04459000E-02	-4.64430000E-03
					-1.40639000E-05	-7.21100000E-02	-3.91727000E-04
					-1.64533000E-03	-7.21973000E-02	 8.23311000E-03
					-1.54480000E-05	-7.12976000E-02	-3.78322000E-04
					-1.64578000E-03	-7.13773000E-02	 8.22113000E-03
					-1.80689000E-05	-6.34480000E-02	-3.20119000E-04
					-8.26747000E-04	-7.21556000E-02	 3.91705000E-03
					-1.76645000E-03	-6.35815000E-02	 8.09889000E-03
					 1.62090000E-03	-7.20439000E-02	-9.01521000E-03
					 1.61758000E-03	-7.12219000E-02	-8.97595000E-03
					 1.73404000E-03	-6.34347000E-02	-8.73992000E-03
					 7.99680000E-04	-7.20790000E-02	-4.70014000E-03
					-2.07714000E-05	-8.67758000E-02	-4.86256000E-04
					-8.26167000E-04	-8.68122000E-02	 7.71161000E-03
					-2.42530000E-05	-8.76371000E-02	-5.04830000E-04
					-9.20050000E-04	-8.76656000E-02	 7.68169000E-03
					-1.61534000E-05	-7.80006000E-02	-4.15732000E-04
					-4.24069000E-04	-8.68063000E-02	 3.57159000E-03
					-1.22130000E-03	-7.80553000E-02	 8.06440000E-03
					-2.16131000E-05	-8.71930000E-02	-4.95928000E-04
					-8.71780000E-04	-8.72248000E-02	 7.74863000E-03
					-1.58460000E-05	-7.92478000E-02	-4.37191000E-04
					-4.69588000E-04	-8.76656000E-02	 3.59691000E-03
					-1.28673000E-03	-7.92999000E-02	 8.05133000E-03
					 7.81768000E-04	-8.66698000E-02	-8.67961000E-03
					 8.75940000E-04	-8.75201000E-02	-8.68758000E-03
					 1.18535000E-03	-7.79045000E-02	-8.89150000E-03
					 3.81968000E-04	-8.67354000E-02	-4.54285000E-03
					 8.28431000E-04	-8.70781000E-02	-8.73552000E-03
					 1.25637000E-03	-7.91456000E-02	-8.92203000E-03
					 4.22957000E-04	-8.75911000E-02	-4.60539000E-03
					-2.56163000E-05	-8.85795000E-02	-5.25435000E-04
					-1.00340000E-03	-8.86016000E-02	 7.65397000E-03
					-2.63167000E-05	-8.80980000E-02	-5.14023000E-04
					-9.61455000E-04	-8.81229000E-02	 7.61163000E-03
					-1.57330000E-05	-8.05531000E-02	-4.63449000E-04
					-5.14128000E-04	-8.86044000E-02	 3.62531000E-03
					-1.35514000E-03	-8.06085000E-02	 8.01202000E-03
					 9.62241000E-04	-8.84660000E-02	-8.70172000E-03
					 9.17581000E-04	-8.79824000E-02	-8.63732000E-03
					 1.32944000E-03	-8.04614000E-02	-8.93630000E-03
					 4.65897000E-04	-8.85350000E-02	-4.67478000E-03
					-2.79918000E-05	-1.02922000E-01	-6.12650000E-04
					-5.83380000E-04	-1.02995000E-01	 7.31488000E-03
					-3.15107000E-05	-1.03447000E-01	-6.24393000E-04
					-5.96282000E-04	-1.03503000E-01	 7.25798000E-03
					-2.61408000E-05	-9.49853000E-02	-5.51921000E-04
					-3.14735000E-04	-1.02960000E-01	 3.36958000E-03
					-6.10143000E-04	-9.50531000E-02	 7.44794000E-03
					-2.98448000E-05	-1.03192000E-01	-6.18419000E-04
					-5.87787000E-04	-1.03250000E-01	 7.28536000E-03
					-3.06166000E-05	-9.56029000E-02	-5.65770000E-04
					-3.20412000E-04	-1.03475000E-01	 3.33023000E-03
					-6.67576000E-04	-9.56527000E-02	 7.40028000E-03
					 5.29239000E-04	-1.02854000E-01	-8.54039000E-03
					 5.45672000E-04	-1.03367000E-01	-8.50544000E-03
					 5.57689000E-04	-9.49133000E-02	-8.54832000E-03
					 2.59490000E-04	-1.02886000E-01	-4.59541000E-03
					 5.34408000E-04	-1.03111000E-01	-8.52125000E-03
					 6.15412000E-04	-9.55145000E-02	-8.52923000E-03
					 2.62336000E-04	-1.03404000E-01	-4.57832000E-03
					-3.08623000E-05	-1.04001000E-01	-6.32863000E-04
					-5.92515000E-04	-1.04028000E-01	 7.23028000E-03
					-3.23675000E-05	-1.03715000E-01	-6.29388000E-04
					-5.95656000E-04	-1.03763000E-01	 7.23263000E-03
					-3.20839000E-05	-9.62714000E-02	-5.77069000E-04
					-3.18321000E-04	-1.04013000E-01	 3.31596000E-03
					-7.08456000E-04	-9.63000000E-02	 7.37582000E-03
					 5.51409000E-04	-1.03912000E-01	-8.49154000E-03
					 5.49784000E-04	-1.03634000E-01	-8.48903000E-03
					 6.60377000E-04	-9.61771000E-02	-8.52790000E-03
					 2.63193000E-04	-1.03956000E-01	-4.57909000E-03
					 0.00000000E+00	 0.00000000E+00	 0.00000000E+00
					 0.00000000E+00	 0.00000000E+00	 0.00000000E+00
					-2.13487000E-05	-6.08308000E-03	 2.18388000E-05
					-1.49097000E-03	-6.50321000E-03	 6.37771000E-03
					 0.00000000E+00	 0.00000000E+00	 0.00000000E+00
					 0.00000000E+00	 0.00000000E+00	 0.00000000E+00
					-1.79372000E-05	-7.12898000E-03	 3.33191000E-06
					-6.58149000E-04	-7.58027000E-03	 6.43667000E-03
					 0.00000000E+00	 0.00000000E+00	 0.00000000E+00
					-6.92508000E-06	-1.11335000E-03	 1.93408000E-05
					-7.57482000E-04	-6.14804000E-03	 3.17411000E-03
					-1.28358000E-03	-1.68420000E-03	 3.24083000E-03
					 0.00000000E+00	 0.00000000E+00	 0.00000000E+00
					 0.00000000E+00	 0.00000000E+00	 0.00000000E+00
					-1.90868000E-05	-6.74569000E-03	 9.65379000E-06
					-1.06825000E-03	-7.18056000E-03	 6.35123000E-03
					 0.00000000E+00	 0.00000000E+00	 0.00000000E+00
					-5.00737000E-06	-1.86479000E-03	 8.09327000E-06
					-3.38822000E-04	-7.20318000E-03	 3.13634000E-03
					-3.26928000E-04	-2.42987000E-03	 3.14198000E-03
					 0.00000000E+00	 0.00000000E+00	 0.00000000E+00
					 1.44331000E-03	-6.39155000E-03	-6.35165000E-03
					 0.00000000E+00	 0.00000000E+00	 0.00000000E+00
					 6.27048000E-04	-7.46543000E-03	-6.44711000E-03
					 0.00000000E+00	 0.00000000E+00	 0.00000000E+00
					 1.26817000E-03	-1.63041000E-03	-3.20273000E-03
					 7.13034000E-04	-6.09011000E-03	-3.13582000E-03
					 0.00000000E+00	 0.00000000E+00	 0.00000000E+00
					 1.03009000E-03	-7.06589000E-03	-6.34995000E-03
					 0.00000000E+00	 0.00000000E+00	 0.00000000E+00
					 3.22493000E-04	-2.38204000E-03	-3.12497000E-03
					 3.03253000E-04	-7.14474000E-03	-3.13610000E-03
					 0.00000000E+00	 0.00000000E+00	 0.00000000E+00
					 0.00000000E+00	 0.00000000E+00	 0.00000000E+00
					-1.24210000E-05	-7.36849000E-03	-3.38109000E-06
					 1.80392000E-04	-7.78402000E-03	 6.35775000E-03
					 0.00000000E+00	 0.00000000E+00	 0.00000000E+00
					 0.00000000E+00	 0.00000000E+00	 0.00000000E+00
					-1.57442000E-05	-7.38867000E-03	-9.75351000E-07
					-2.44700000E-04	-7.81800000E-03	 6.45619000E-03
					 0.00000000E+00	 0.00000000E+00	 0.00000000E+00
					-3.33725000E-06	-1.76218000E-03	 5.57044000E-06
					 8.44049000E-05	-7.42905000E-03	 3.03841000E-03
					 6.50568000E-04	-2.30587000E-03	 3.22862000E-03
					 0.00000000E+00	 0.00000000E+00	 0.00000000E+00
					-1.96086000E-04	-7.67526000E-03	-6.37680000E-03
					 0.00000000E+00	 0.00000000E+00	 0.00000000E+00
					 2.19838000E-04	-7.70851000E-03	-6.47247000E-03
					 0.00000000E+00	 0.00000000E+00	 0.00000000E+00
					-6.48495000E-04	-2.26405000E-03	-3.21889000E-03
					-1.06068000E-04	-7.37736000E-03	-3.04984000E-03
					-1.27434000E-05	-2.44342000E-02	-1.35688000E-04
					-1.81808000E-03	-2.48159000E-02	 1.09555000E-02
					-6.31936000E-06	-2.59573000E-02	-1.38393000E-04
					-1.26817000E-03	-2.63486000E-02	 1.09894000E-02
					-2.61882000E-05	-1.40343000E-02	-2.79622000E-05
					-9.13611000E-04	-2.45649000E-02	 5.36271000E-03
					-1.68805000E-03	-1.44842000E-02	 8.95961000E-03
					-1.05986000E-05	-2.52555000E-02	-1.40684000E-04
					-1.54423000E-03	-2.56407000E-02	 1.09484000E-02
					-2.35313000E-05	-1.53395000E-02	-4.38244000E-05
					-6.30574000E-04	-2.60927000E-02	 5.35774000E-03
					-9.75708000E-04	-1.57935000E-02	 8.98357000E-03
					 1.78305000E-03	-2.45640000E-02	-1.12465000E-02
					 1.24063000E-03	-2.60868000E-02	-1.12832000E-02
					 1.62606000E-03	-1.43062000E-02	-9.04074000E-03
					 8.84949000E-04	-2.44415000E-02	-5.63907000E-03
					 1.51281000E-03	-2.53885000E-02	-1.12464000E-02
					 9.25724000E-04	-1.56078000E-02	-9.09301000E-03
					 6.18378000E-04	-2.59646000E-02	-5.63574000E-03
					-1.02098000E-06	-2.69435000E-02	-1.28077000E-04
					-6.91820000E-04	-2.73170000E-02	 1.09631000E-02
					-4.28982000E-06	-2.65066000E-02	-1.32593000E-04
					-9.79000000E-04	-2.69246000E-02	 1.10372000E-02
					-1.80878000E-05	-1.59385000E-02	-4.52007000E-05
					-3.54479000E-04	-2.70659000E-02	 5.29234000E-03
					-2.57679000E-04	-1.63885000E-02	 8.94676000E-03
					 7.05778000E-04	-2.70584000E-02	-1.12354000E-02
					 9.71461000E-04	-2.66343000E-02	-1.13207000E-02
					 2.34391000E-04	-1.62083000E-02	-9.05329000E-03
					 3.57324000E-04	-2.69406000E-02	-5.54884000E-03
					 1.21738000E-04	-5.01631000E-02	-5.06540000E-04
					-2.01219000E-03	-5.03640000E-02	 1.29634000E-02
					 1.26735000E-04	-5.21781000E-02	-4.45047000E-04
					-1.83559000E-03	-5.25010000E-02	 1.30736000E-02
					 3.45086000E-05	-3.66586000E-02	-2.97354000E-04
					-9.38138000E-04	-5.02381000E-02	 6.15658000E-03
					-1.92375000E-03	-3.69833000E-02	 1.22956000E-02
					 1.24032000E-04	-5.11955000E-02	-4.72315000E-04
					-1.92799000E-03	-5.14711000E-02	 1.29830000E-02
					 3.88883000E-05	-3.84221000E-02	-2.74871000E-04
					-8.77429000E-04	-5.23174000E-02	 6.19268000E-03
					-1.55254000E-03	-3.87673000E-02	 1.23645000E-02
					 2.21078000E-03	-5.00550000E-02	-1.39678000E-02
					 2.07484000E-03	-5.20787000E-02	-1.39906000E-02
					 1.97533000E-03	-3.66753000E-02	-1.29026000E-02
					 1.16744000E-03	-5.00905000E-02	-7.16015000E-03
					 2.14038000E-03	-5.10863000E-02	-1.39477000E-02
					 1.61948000E-03	-3.84249000E-02	-1.29276000E-02
					 1.10391000E-03	-5.21147000E-02	-7.10452000E-03
					 1.34213000E-04	-5.40617000E-02	-3.82071000E-04
					-1.75107000E-03	-5.45104000E-02	 1.30827000E-02
					 1.30301000E-04	-5.31537000E-02	-4.16654000E-04
					-1.79658000E-03	-5.34123000E-02	 1.31766000E-02
					 5.52106000E-05	-3.98260000E-02	-2.44216000E-04
					-7.76943000E-04	-5.42686000E-02	 6.12817000E-03
					-1.19956000E-03	-4.02007000E-02	 1.23510000E-02
					 1.95877000E-03	-5.39734000E-02	-1.39013000E-02
					 2.01540000E-03	-5.30411000E-02	-1.40394000E-02
					 1.25607000E-03	-3.98074000E-02	-1.28552000E-02
					 1.04229000E-03	-5.40136000E-02	-6.93824000E-03
					 4.84663000E-04	-7.78855000E-02	-9.70148000E-04
					-1.77122000E-03	-7.77377000E-02	 1.15764000E-02