<?xml version="1.0"?>
<VTKFile type="UnstructuredGrid" version="0.1" byte_order="LittleEndian">
	<UnstructuredGrid>
		<Piece NumberOfPoints="522" NumberOfCells="64">
			<Points>
				<DataArray type="Float64" NumberOfComponents="3" format="ascii">
					 1.00000000E+00	 1.00000000E+00	-5.96046000E-08
					 1.00000000E+00	 5.00000000E-01	-5.96046000E-08
					 1.00000000E+00	 5.00000000E-01	 1.00000000E+00
					 1.00000000E+00	 1.00000000E+00	 1.00000000E+00
					 5.00000000E-01	 1.00000000E+00	-5.96046000E-08
					 5.00000000E-01	 5.00000000E-01	-5.96046000E-08
					 5.00000000E-01	 5.00000000E-01	 1.00000000E+00
					 5.00000000E-01	 1.00000000E+00	 1.00000000E+00
					 1.00000000E+00	 7.50000000E-01	-5.96046000E-08
					 1.00000000E+00	 5.00000000E-01	 5.00000000E-01
					 1.00000000E+00	 7.50000000E-01	 1.00000000E+00
					 1.00000000E+00	 1.00000000E+00	 5.00000000E-01
					 7.50000000E-01	 1.00000000E+00	-5.96046000E-08
					 7.50000000E-01	 5.00000000E-01	-5.96046000E-08
					 7.50000000E-01	 5.00000000E-01	 1.00000000E+00
					 7.50000000E-01	 1.00000000E+00	 1.00000000E+00
					 5.00000000E-01	 7.50000000E-01	-5.96046000E-08
					 5.00000000E-01	 5.00000000E-01	 5.00000000E-01
					 5.00000000E-01	 7.50000000E-01	 1.00000000E+00
					 5.00000000E-01	 1.00000000E+00	 5.00000000E-01
					 1.00000000E+00	-1.49012000E-08	-5.96046000E-08
					 1.00000000E+00	-1.49012000E-08	 1.00000000E+00
					 5.00000000E-01	-1.49012000E-08	-5.96046000E-08
					 5.00000000E-01	-1.49012000E-08	 1.00000000E+00
					 1.00000000E+00	 2.50000000E-01	-5.96046000E-08
					 1.00000000E+00	-1.49012000E-08	 5.00000000E-01
					 1.00000000E+00	 2.50000000E-01	 1.00000000E+00
					 7.50000000E-01	-1.49012000E-08	-5.96046000E-08
					 7.50000000E-01	-1.49012000E-08	 1.00000000E+00
					 5.00000000E-01	 2.50000000E-01	-5.96046000E-08
					 5.00000000E-01	-1.49012000E-08	 5.00000000E-01
					 5.00000000E-01	 2.50000000E-01	 1.00000000E+00
					-7.45058000E-09	 1.00000000E+00	-5.96046000E-08
					-7.45058000E-09	 5.00000000E-01	-5.96046000E-08
					-7.45058000E-09	 5.00000000E-01	 1.00000000E+00
					-7.45058000E-09	 1.00000000E+00	 1.00000000E+00
					 2.50000000E-01	 1.00000000E+00	-5.96046000E-08
					 2.50000000E-01	 5.00000000E-01	-5.96046000E-08
					 2.50000000E-01	 5.00000000E-01	 1.00000000E+00
					 2.50000000E-01	 1.00000000E+00	 1.00000000E+00
					-7.45058000E-09	 7.50000000E-01	-5.96046000E-08
					-7.45058000E-09	 5.00000000E-01	 5.00000000E-01
					-7.45058000E-09	 7.50000000E-01	 1.00000000E+00
					-7.45058000E-09	 1.00000000E+00	 5.00000000E-01
					-7.45058000E-09	-1.49012000E-08	-5.96046000E-08
					-7.45058000E-09	-1.49012000E-08	 1.00000000E+00
					 2.50000000E-01	-1.49012000E-08	-5.96046000E-08
					 2.50000000E-01	-1.49012000E-08	 1.00000000E+00
					-7.45058000E-09	 2.50000000E-01	-5.96046000E-08
					-7.45058000E-09	-1.49012000E-08	 5.00000000E-01
					-7.45058000E-09	 2.50000000E-01	 1.00000000E+00
					 1.00000000E+00	 5.00000000E-01	 2.00000000E+00
					 1.00000000E+00	 1.00000000E+00	 2.00000000E+00
					 5.00000000E-01	 5.00000000E-01	 2.00000000E+00
					 5.00000000E-01	 1.00000000E+00	 2.00000000E+00
					 1.00000000E+00	 5.00000000E-01	 1.50000000E+00
					 1.00000000E+00	 7.50000000E-01	 2.00000000E+00
					 1.00000000E+00	 1.00000000E+00	 1.50000000E+00
					 7.50000000E-01	 5.00000000E-01	 2.00000000E+00
					 7.50000000E-01	 1.00000000E+00	 2.00000000E+00
					 5.00000000E-01	 5.00000000E-01	 1.50000000E+00
					 5.00000000E-01	 7.50000000E-01	 2.00000000E+00
					 5.00000000E-01	 1.00000000E+00	 1.50000000E+00
					 1.00000000E+00	-1.49012000E-08	 2.00000000E+00
					 5.00000000E-01	-1.49012000E-08	 2.00000000E+00
					 1.00000000E+00	-1.49012000E-08	 1.50000000E+00
					 1.00000000E+00	 2.50000000E-01	 2.00000000E+00
					 7.50000000E-01	-1.49012000E-08	 2.00000000E+00
					 5.00000000E-01	-1.49012000E-08	 1.50000000E+00
					 5.00000000E-01	 2.50000000E-01	 2.00000000E+00
					-7.45058000E-09	 5.00000000E-01	 2.00000000E+00
					-7.45058000E-09	 1.00000000E+00	 2.00000000E+00
					 2.50000000E-01	 5.00000000E-01	 2.00000000E+00
					 2.50000000E-01	 1.00000000E+00	 2.00000000E+00
					-7.45058000E-09	 5.00000000E-01	 1.50000000E+00
					-7.45058000E-09	 7.50000000E-01	 2.00000000E+00
					-7.45058000E-09	 1.00000000E+00	 1.50000000E+00
					-7.45058000E-09	-1.49012000E-08	 2.00000000E+00
					 2.50000000E-01	-1.49012000E-08	 2.00000000E+00
					-7.45058000E-09	-1.49012000E-08	 1.50000000E+00
					-7.45058000E-09	 2.50000000E-01	 2.00000000E+00
					 1.00000000E+00	 5.00000000E-01	 3.00000000E+00
					 1.00000000E+00	 1.00000000E+00	 3.00000000E+00
					 5.00000000E-01	 5.00000000E-01	 3.00000000E+00
					 5.00000000E-01	 1.00000000E+00	 3.00000000E+00
					 1.00000000E+00	 5.00000000E-01	 2.50000000E+00
					 1.00000000E+00	 7.50000000E-01	 3.00000000E+00
					 1.00000000E+00	 1.00000000E+00	 2.50000000E+00
					 7.50000000E-01	 5.00000000E-01	 3.00000000E+00
					 7.50000000E-01	 1.00000000E+00	 3.00000000E+00
					 5.00000000E-01	 5.00000000E-01	 2.50000000E+00
					 5.00000000E-01	 7.50000000E-01	 3.00000000E+00
					 5.00000000E-01	 1.00000000E+00	 2.50000000E+00
					 1.00000000E+00	-1.49012000E-08	 3.00000000E+00
					 5.00000000E-01	-1.49012000E-08	 3.00000000E+00
					 1.00000000E+00	-1.49012000E-08	 2.50000000E+00
					 1.00000000E+00	 2.50000000E-01	 3.00000000E+00
					 7.50000000E-01	-1.49012000E-08	 3.00000000E+00
					 5.00000000E-01	-1.49012000E-08	 2.50000000E+00
					 5.00000000E-01	 2.50000000E-01	 3.00000000E+00
					-7.45058000E-09	 5.00000000E-01	 3.00000000E+00
					-7.45058000E-09	 1.00000000E+00	 3.00000000E+00
					 2.50000000E-01	 5.00000000E-01	 3.00000000E+00
					 2.50000000E-01	 1.00000000E+00	 3.00000000E+00
					-7.45058000E-09	 5.00000000E-01	 2.50000000E+00
					-7.45058000E-09	 7.50000000E-01	 3.00000000E+00
					-7.45058000E-09	 1.00000000E+00	 2.50000000E+00
					-7.45058000E-09	-1.49012000E-08	 3.00000000E+00
					 2.50000000E-01	-1.49012000E-08	 3.00000000E+00
					-7.45058000E-09	-1.49012000E-08	 2.50000000E+00
					-7.45058000E-09	 2.50000000E-01	 3.00000000E+00
					 1.00000000E+00	 5.00000000E-01	 4.00000000E+00
					 1.00000000E+00	 1.00000000E+00	 4.00000000E+00
					 5.00000000E-01	 5.00000000E-01	 4.00000000E+00
					 5.00000000E-01	 1.00000000E+00	 4.00000000E+00
					 1.00000000E+00	 5.00000000E-01	 3.50000000E+00
					 1.00000000E+00	 7.50000000E-01	 4.00000000E+00
					 1.00000000E+00	 1.00000000E+00	 3.50000000E+00
					 7.50000000E-01	 5.00000000E-01	 4.00000000E+00
					 7.50000000E-01	 1.00000000E+00	 4.00000000E+00
					 5.00000000E-01	 5.00000000E-01	 3.50000000E+00
					 5.00000000E-01	 7.50000000E-01	 4.00000000E+00
					 5.00000000E-01	 1.00000000E+00	 3.50000000E+00
					 1.00000000E+00	-1.49012000E-08	 4.00000000E+00
					 5.00000000E-01	-1.49012000E-08	 4.00000000E+00
					 1.00000000E+00	-1.49012000E-08	 3.50000000E+00
					 1.00000000E+00	 2.50000000E-01	 4.00000000E+00
					 7.50000000E-01	-1.49012000E-08	 4.00000000E+00
					 5.00000000E-01	-1.49012000E-08	 3.50000000E+00
					 5.00000000E-01	 2.50000000E-01	 4.00000000E+00
					-7.45058000E-09	 5.00000000E-01	 4.00000000E+00
					-7.45058000E-09	 1.00000000E+00	 4.00000000E+00
					 2.50000000E-01	 5.00000000E-01	 4.00000000E+00
					 2.50000000E-01	 1.00000000E+00	 4.00000000E+00
					-7.45058000E-09	 5.00000000E-01	 3.50000000E+00
					-7.45058000E-09	 7.50000000E-01	 4.00000000E+00
					-7.45058000E-09	 1.00000000E+00	 3.50000000E+00
					-7.45058000E-09	-1.49012000E-08	 4.00000000E+00
					 2.50000000E-01	-1.49012000E-08	 4.00000000E+00
					-7.45058000E-09	-1.49012000E-08	 3.50000000E+00
					-7.45058000E-09	 2.50000000E-01	 4.00000000E+00
					 1.00000000E+00	 5.00000000E-01	 5.00000000E+00
					 1.00000000E+00	 1.00000000E+00	 5.00000000E+00
					 5.00000000E-01	 5.00000000E-01	 5.00000000E+00
					 5.00000000E-01	 1.00000000E+00	 5.00000000E+00
					 1.00000000E+00	 5.00000000E-01	 4.50000000E+00
					 1.00000000E+00	 7.50000000E-01	 5.00000000E+00
					 1.00000000E+00	 1.00000000E+00	 4.50000000E+00
					 7.50000000E-01	 5.00000000E-01	 5.00000000E+00
					 7.50000000E-01	 1.00000000E+00	 5.00000000E+00
					 5.00000000E-01	 5.00000000E-01	 4.50000000E+00
					 5.00000000E-01	 7.50000000E-01	 5.00000000E+00
					 5.00000000E-01	 1.00000000E+00	 4.50000000E+00
					 1.00000000E+00	-1.49012000E-08	 5.00000000E+00
					 5.00000000E-01	-1.49012000E-08	 5.00000000E+00
					 1.00000000E+00	-1.49012000E-08	 4.50000000E+00
					 1.00000000E+00	 2.50000000E-01	 5.00000000E+00
					 7.50000000E-01	-1.49012000E-08	 5.00000000E+00
					 5.00000000E-01	-1.49012000E-08	 4.50000000E+00
					 5.00000000E-01	 2.50000000E-01	 5.00000000E+00
					-7.45058000E-09	 5.00000000E-01	 5.00000000E+00
					-7.45058000E-09	 1.00000000E+00	 5.00000000E+00
					 2.50000000E-01	 5.00000000E-01	 5.00000000E+00
					 2.50000000E-01	 1.00000000E+00	 5.00000000E+00
					-7.45058000E-09	 5.00000000E-01	 4.50000000E+00
					-7.45058000E-09	 7.50000000E-01	 5.00000000E+00
					-7.45058000E-09	 1.00000000E+00	 4.50000000E+00
					-7.45058000E-09	-1.49012000E-08	 5.00000000E+00
					 2.50000000E-01	-1.49012000E-08	 5.00000000E+00
					-7.45058000E-09	-1.49012000E-08	 4.50000000E+00
					-7.45058000E-09	 2.50000000E-01	 5.00000000E+00
					 1.00000000E+00	 5.00000000E-01	 6.00000000E+00
					 1.00000000E+00	 1.00000000E+00	 6.00000000E+00
					 5.00000000E-01	 5.00000000E-01	 6.00000000E+00
					 5.00000000E-01	 1.00000000E+00	 6.00000000E+00
					 1.00000000E+00	 5.00000000E-01	 5.50000000E+00
					 1.00000000E+00	 7.50000000E-01	 6.00000000E+00
					 1.00000000E+00	 1.00000000E+00	 5.50000000E+00
					 7.50000000E-01	 5.00000000E-01	 6.00000000E+00
					 7.50000000E-01	 1.00000000E+00	 6.00000000E+00
					 5.00000000E-01	 5.00000000E-01	 5.50000000E+00
					 5.00000000E-01	 7.50000000E-01	 6.00000000E+00
					 5.00000000E-01	 1.00000000E+00	 5.50000000E+00
					 1.00000000E+00	-1.49012000E-08	 6.00000000E+00
[...]
			<PointData>
				<DataArray type="Float32" Name="U" NumberOfComponents="3" ComponentName0="D1" ComponentName1="D2" ComponentName2="D3" format="ascii">
					 0.00000000E+00	 0.00000000E+00	 0.00000000E+00
					 0.00000000E+00	 0.00000000E+00	 0.00000000E+00
					 3.71946000E-06	 1.38024000E-03	-3.01647000E-06
					-1.02902000E-03	 1.44288000E-03	-7.09847000E-04
					 0.00000000E+00	 0.00000000E+00	 0.00000000E+00
					 0.00000000E+00	 0.00000000E+00	 0.00000000E+00
					 5.03677000E-06	 2.49061000E-04	-2.37313000E-07
					-1.19757000E-03	 3.27886000E-04	-7.08517000E-04
					 0.00000000E+00	 0.00000000E+00	 0.00000000E+00
					 2.00248000E-06	 4.36268000E-04	-1.74897000E-06
					-5.17023000E-04	 1.38563000E-03	-2.64438000E-04
					-4.57281000E-04	 4.73639000E-04	-2.61031000E-04
					 0.00000000E+00	 0.00000000E+00	 0.00000000E+00
					 0.00000000E+00	 0.00000000E+00	 0.00000000E+00
					 4.32694000E-06	 8.36444000E-04	-1.35848000E-06
					-1.11332000E-03	 9.12641000E-04	-8.13845000E-04
					 0.00000000E+00	 0.00000000E+00	 0.00000000E+00
					 2.17159000E-06	-1.00658000E-04	-2.82452000E-08
					-5.94800000E-04	 2.61839000E-04	-3.68893000E-04
					-5.85725000E-04	-4.04474000E-05	-2.41011000E-04
					 0.00000000E+00	 0.00000000E+00	 0.00000000E+00
					 1.03614000E-03	 1.44699000E-03	 7.03949000E-04
					 0.00000000E+00	 0.00000000E+00	 0.00000000E+00
					 1.20748000E-03	 3.32228000E-04	 7.07670000E-04
					 0.00000000E+00	 0.00000000E+00	 0.00000000E+00
					 4.60517000E-04	 4.73818000E-04	 2.57903000E-04
					 5.24433000E-04	 1.38749000E-03	 2.58535000E-04
					 0.00000000E+00	 0.00000000E+00	 0.00000000E+00
					 1.12180000E-03	 9.17218000E-04	 8.10874000E-04
					 0.00000000E+00	 0.00000000E+00	 0.00000000E+00
					 5.89430000E-04	-3.90530000E-05	 2.41240000E-04
					 6.04951000E-04	 2.64187000E-04	 3.68347000E-04
					 0.00000000E+00	 0.00000000E+00	 0.00000000E+00
					 0.00000000E+00	 0.00000000E+00	 0.00000000E+00
					 6.44221000E-06	-1.02479000E-03	 2.67410000E-06
					-1.35256000E-03	-9.49030000E-04	-7.04655000E-04
					 0.00000000E+00	 0.00000000E+00	 0.00000000E+00
					 0.00000000E+00	 0.00000000E+00	 0.00000000E+00
					 5.67783000E-06	-3.63301000E-04	 8.67294000E-07
					-1.27366000E-03	-2.87993000E-04	-5.89208000E-04
					 0.00000000E+00	 0.00000000E+00	 0.00000000E+00
					 2.82010000E-06	-7.38875000E-04	 1.76841000E-06
					-6.73470000E-04	-1.01164000E-03	-4.81467000E-04
					-6.66328000E-04	-6.55291000E-04	-2.57717000E-04
					 0.00000000E+00	 0.00000000E+00	 0.00000000E+00
					 1.36556000E-03	-9.44363000E-04	 7.09101000E-04
					 0.00000000E+00	 0.00000000E+00	 0.00000000E+00
					 1.28492000E-03	-2.83640000E-04	 5.90417000E-04
					 0.00000000E+00	 0.00000000E+00	 0.00000000E+00
					 6.71467000E-04	-6.52839000E-04	 2.61205000E-04
					 6.86584000E-04	-1.00893000E-03	 4.86536000E-04
					-5.93768000E-06	 5.46142000E-03	-4.84968000E-06
					-2.36019000E-03	 5.45138000E-03	-1.48754000E-03
					 5.64132000E-07	 3.11443000E-03	-4.85207000E-06
					-2.33630000E-03	 3.10109000E-03	-1.52339000E-03
					 2.25360000E-06	 3.10985000E-03	-3.74156000E-06
					-1.18282000E-03	 5.45693000E-03	-5.79142000E-04
					-1.68970000E-03	 3.14500000E-03	-1.23274000E-03
					-2.52158000E-06	 4.28899000E-03	-5.03459000E-06
					-2.34860000E-03	 4.27464000E-03	-1.59699000E-03
					 5.68200000E-06	 1.35517000E-03	-1.85883000E-06
					-1.16969000E-03	 3.10646000E-03	-6.83414000E-04
					-1.80271000E-03	 1.39197000E-03	-1.25038000E-03
					 2.34998000E-03	 5.47074000E-03	 1.47837000E-03
					 2.33920000E-03	 3.11762000E-03	 1.51425000E-03
					 1.69494000E-03	 3.15603000E-03	 1.22506000E-03
					 1.17112000E-03	 5.46556000E-03	 5.69530000E-04
					 2.34541000E-03	 4.29305000E-03	 1.58756000E-03
					 1.81492000E-03	 1.40191000E-03	 1.24603000E-03
					 1.17128000E-03	 3.11405000E-03	 6.73837000E-04
					 5.68637000E-06	 7.85797000E-04	-4.92878000E-06
					-2.33479000E-03	 7.57804000E-04	-1.48760000E-03
					 3.28575000E-06	 1.94793000E-03	-4.65810000E-06
					-2.33660000E-03	 1.93403000E-03	-1.46274000E-03
					 8.84822000E-06	-5.07832000E-04	 3.72527000E-07
					-1.15953000E-03	 7.70292000E-04	-7.13207000E-04
					-1.93379000E-03	-4.89387000E-04	-1.22891000E-03
					 2.34817000E-03	 7.71072000E-04	 1.47854000E-03
					 2.34491000E-03	 1.94864000E-03	 1.45408000E-03
					 1.95251000E-03	-4.80540000E-04	 1.22889000E-03
					 1.17143000E-03	 7.76499000E-04	 7.03524000E-04
					-3.18297000E-05	 9.15431000E-03	-5.47911000E-06
					-3.33626000E-03	 8.97943000E-03	-1.18894000E-04
					-2.19831000E-05	 6.05508000E-03	-5.37205000E-06
					-2.94736000E-03	 5.86215000E-03	-1.37372000E-04
					-2.03444000E-05	 7.81315000E-03	-5.89576000E-06
					-1.67829000E-03	 9.11799000E-03	-4.11402000E-06
					-2.96753000E-03	 7.72374000E-03	-1.07801000E-03
					-2.66280000E-05	 7.55771000E-03	-5.27930000E-06
					-3.14208000E-03	 7.36748000E-03	-1.50474000E-04
					-1.18737000E-05	 4.98681000E-03	-7.11235000E-06
					-1.48567000E-03	 6.01078000E-03	-3.37324000E-05
					-2.73644000E-03	 4.88164000E-03	-1.12063000E-03
					 3.27314000E-03	 9.00418000E-03	 1.09794000E-04
					 2.90544000E-03	 5.88412000E-03	 1.28138000E-04
					 2.92837000E-03	 7.74692000E-03	 1.06784000E-03
					 1.61499000E-03	 9.13019000E-03	-6.08072000E-06
					 3.09016000E-03	 7.39136000E-03	 1.41311000E-04
					 2.71473000E-03	 4.90125000E-03	 1.10895000E-03
					 1.44231000E-03	 6.02219000E-03	 2.32276000E-05
					-1.30869000E-05	 3.30134000E-03	-4.68977000E-06
					-2.57616000E-03	 3.11334000E-03	-1.18074000E-04
					-1.74251000E-05	 4.62978000E-03	-5.42896000E-06
					-2.76179000E-03	 4.43754000E-03	-1.27079000E-04
					-4.86924000E-06	 2.36214000E-03	-8.63008000E-06
					-1.29773000E-03	 3.25746000E-03	-2.67082000E-05
					-2.53241000E-03	 2.25059000E-03	-1.07999000E-03
					 2.55236000E-03	 3.13251000E-03	 1.10220000E-04
					 2.72927000E-03	 4.45838000E-03	 1.17660000E-04
					 2.52525000E-03	 2.26653000E-03	 1.06587000E-03
					 1.27231000E-03	 3.26736000E-03	 1.76150000E-05
					-1.04308000E-05	 6.65796000E-03	 5.40295000E-06
					-3.19960000E-03	 6.48795000E-03	 2.36811000E-03
					 1.64648000E-06	 3.62923000E-03	-1.88762000E-06
					-2.87170000E-03	 3.45876000E-03	 2.37730000E-03
					-2.45451000E-05	 8.71223000E-03	-1.63012000E-06
					-1.60466000E-03	 6.61244000E-03	 1.12637000E-03
					-3.35378000E-03	 8.53772000E-03	 1.16523000E-03
					-4.29770000E-06	 5.10443000E-03	 1.84888000E-06
					-3.03463000E-03	 4.93350000E-03	 2.39755000E-03
					-1.32932000E-05	 5.58543000E-03	-2.35514000E-06
					-1.43556000E-03	 3.58432000E-03	 1.14914000E-03
					-2.95654000E-03	 5.39953000E-03	 1.17142000E-03
					 3.18174000E-03	 6.52896000E-03	-2.36108000E-03
					 2.87998000E-03	 3.49154000E-03	-2.38347000E-03
					 3.30500000E-03	 8.56820000E-03	-1.16790000E-03
					 1.58292000E-03	 6.63452000E-03	-1.11802000E-03
					 3.03079000E-03	 4.96965000E-03	-2.39559000E-03
					 2.93266000E-03	 5.42426000E-03	-1.17703000E-03
					 1.43994000E-03	 3.60102000E-03	-1.15306000E-03
					 9.27330000E-06	 9.06297000E-04	-1.02853000E-05
					-2.55160000E-03	 7.43073000E-04	 2.35311000E-03
					 6.28479000E-06	 2.22821000E-03	-5.58948000E-06
					-2.71167000E-03	 2.06046000E-03	 2.36604000E-03
					-5.29914000E-06	 2.82281000E-03	-1.28084000E-06
					-1.27302000E-03	 8.64849000E-04	 1.13487000E-03
					-2.57305000E-03	 2.64453000E-03	 1.16441000E-03
					 2.57626000E-03	 7.65083000E-04	-2.37632000E-03
					 2.72915000E-03	 2.08787000E-03	-2.38000000E-03
					 2.56657000E-03	 2.66276000E-03	-1.16893000E-03
					 1.29316000E-03	 8.75979000E-04	-1.15524000E-03
					-1.10723000E-06	-2.59790000E-04	-1.32352000E-05
					-3.02155000E-03	-3.76599000E-04	 3.91847000E-03
					 2.61261000E-06	-3.19396000E-03	-3.06612000E-05
					-2.84578000E-03	-3.30388000E-03	 3.91383000E-03
					-8.49628000E-06	 3.55420000E-03	 3.61396000E-06
					-1.51201000E-03	-2.94193000E-04	 1.93363000E-03
					-3.07859000E-03	 3.40379000E-03	 3.25187000E-03
					 2.17825000E-06	-1.74968000E-03	-2.31486000E-05
					-2.93307000E-03	-1.86245000E-03	 3.91496000E-03
					-1.31590000E-06	 5.91052000E-04	-7.55210000E-06
					-1.42152000E-03	-3.22721000E-03	 1.92257000E-03
					-2.84531000E-03	 4.49816000E-04	 3.25557000E-03
					 3.02518000E-03	-3.29743000E-04	-3.95221000E-03
					 2.85459000E-03	-3.26628000E-03	-3.97912000E-03
					 3.06973000E-03	 3.45162000E-03	-3.25331000E-03
					 1.51602000E-03	-2.76113000E-04	-1.95895000E-03
					 2.94018000E-03	-1.81785000E-03	-3.97037000E-03
					 2.84597000E-03	 4.88588000E-04	-3.27763000E-03
					 1.42946000E-03	-3.20967000E-03	-1.98548000E-03
					 6.61640000E-06	-5.95150000E-03	-3.58414000E-05
					-2.66509000E-03	-6.06207000E-03	 3.90238000E-03
					 4.06580000E-06	-4.59400000E-03	-3.44071000E-05
					-2.75538000E-03	-4.70403000E-03	 3.91228000E-03
					 4.11873000E-06	-2.13734000E-03	-2.22180000E-05
					-1.32843000E-03	-5.98498000E-03	 1.91029000E-03
					-2.60553000E-03	-2.27556000E-03	 3.22567000E-03
					 2.68146000E-03	-6.02660000E-03	-3.97536000E-03
					 2.76810000E-03	-4.66713000E-03	-3.98237000E-03
					 2.61657000E-03	-2.24156000E-03	-3.27524000E-03
					 1.34377000E-03	-5.96782000E-03	-1.98430000E-03
					 1.35053000E-05	-9.38286000E-03	-5.81494000E-05
					-2.91357000E-03	-9.47017000E-03	 4.79049000E-03
					 2.46024000E-05	-1.22830000E-02	-6.30837000E-05
					-2.80761000E-03	-1.23639000E-02	 4.78876000E-03
					 1.19856000E-05	-4.61975000E-03	-3.94815000E-05
					-1.45087000E-03	-9.41997000E-03	 2.34742000E-03
					-2.97287000E-03	-4.70546000E-03	 4.42575000E-03
					 1.62152000E-05	-1.08421000E-02	-5.98364000E-05
					-2.86364000E-03	-1.09262000E-02	 4.80348000E-03
					 2.70393000E-05	-7.52690000E-03	-5.40523000E-05
					-1.39041000E-03	-1.23138000E-02	 2.35148000E-03
					-2.80453000E-03	-7.62241000E-03	 4.41283000E-03
					 2.94704000E-03	-9.37616000E-03	-4.89682000E-03
					 2.85610000E-03	-1.22890000E-02	-4.90196000E-03
					 2.97111000E-03	-4.67591000E-03	-4.48661000E-03
					 1.47453000E-03	-9.36485000E-03	-2.46766000E-03
					 2.90271000E-03	-1.08448000E-02	-4.90650000E-03
					 2.84780000E-03	-7.56605000E-03	-4.51258000E-03
					 1.43640000E-03	-1.22757000E-02	-2.47193000E-03
					 3.56257000E-05	-1.50743000E-02	-9.17930000E-05
					-2.69550000E-03	-1.51563000E-02	 4.73499000E-03
					 3.17653000E-05	-1.36933000E-02	-7.47205000E-05
					-2.74855000E-03	-1.37740000E-02	 4.76679000E-03
					 3.76842000E-05	-1.02845000E-02	-6.29191000E-05
					-1.32940000E-03	-1.51041000E-02	 2.30451000E-03
					-2.64943000E-03	-1.03811000E-02	 4.39560000E-03
					 2.76559000E-03	-1.50823000E-02	-4.91528000E-03
					 2.80913000E-03	-1.36995000E-02	-4.91136000E-03
					 2.71972000E-03	-1.03215000E-02	-4.51865000E-03
					 1.39800000E-03	-1.50688000E-02	-2.48126000E-03
					 7.55766000E-05	-1.95801000E-02	-1.04189000E-04
					-2.79780000E-03	-1.95965000E-02	 5.03926000E-03
					 6.74216000E-05	-2.24407000E-02	-1.28956000E-04
					-2.77079000E-03	-2.24882000E-02	 4.99956000E-03
					 3.29859000E-05	-1.44649000E-02	-7.48628000E-05
					-1.35345000E-03	-1.95811000E-02	 2.47778000E-03
					-2.81355000E-03	-1.45457000E-02	 4.95199000E-03
					 7.86098000E-05	-2.10069000E-02	-1.15995000E-04
					-2.77789000E-03	-2.10429000E-02	 5.01478000E-03
					 2.49741000E-05	-1.73248000E-02	-8.41324000E-05
					-1.34400000E-03	-2.24617000E-02	 2.43792000E-03
					-2.79284000E-03	-1.73850000E-02	 4.96455000E-03
					 2.87814000E-03	-1.95831000E-02	-5.21098000E-03
					 2.87476000E-03	-2.24011000E-02	-5.24234000E-03
					 2.92723000E-03	-1.44255000E-02	-5.11251000E-03
					 1.48031000E-03	-1.95851000E-02	-2.65183000E-03
					 2.88056000E-03	-2.09857000E-02	-5.22723000E-03
					 2.88303000E-03	-1.73094000E-02	-5.13310000E-03
					 1.46616000E-03	-2.24213000E-02	-2.68765000E-03
					 5.38966000E-05	-2.52581000E-02	-1.45368000E-04
					-2.75236000E-03	-2.53126000E-02	 4.98959000E-03
					 5.53865000E-05	-2.38571000E-02	-1.39660000E-04
					-2.76568000E-03	-2.39049000E-02	 4.99784000E-03
					 2.47049000E-05	-2.01385000E-02	-1.16794000E-04
					-1.34547000E-03	-2.52848000E-02	 2.41756000E-03
					-2.75291000E-03	-2.01894000E-02	 4.92189000E-03
					 2.84399000E-03	-2.52297000E-02	-5.26495000E-03
					 2.85585000E-03	-2.38193000E-02	-5.25560000E-03
					 2.83184000E-03	-2.01530000E-02	-5.14270000E-03
					 1.44353000E-03	-2.52421000E-02	-2.71178000E-03
					 9.34598000E-05	-2.99714000E-02	-1.74987000E-04
					-2.84880000E-03	-3.00301000E-02	 5.14767000E-03
					 1.06225000E-04	-3.27944000E-02	-1.73301000E-04
					-2.81638000E-03	-3.28819000E-02	 5.06699000E-03
					 6.97341000E-05	-2.47371000E-02	-1.45759000E-04
					-1.37370000E-03	-2.99926000E-02	 2.47374000E-03
					-2.83623000E-03	-2.47415000E-02	 5.11319000E-03
					 1.00854000E-04	-3.13937000E-02	-1.80999000E-04
					-2.83572000E-03	-3.14701000E-02	 5.11079000E-03
					 7.92705000E-05	-2.75889000E-02	-1.68391000E-04
					-1.35664000E-03	-3.28446000E-02	 2.43492000E-03
					-2.79752000E-03	-2.76375000E-02	 5.03806000E-03
					 2.89067000E-03	-2.99358000E-02	-5.34880000E-03
					 2.90008000E-03	-3.27049000E-02	-5.34868000E-03
					 2.88044000E-03	-2.47619000E-02	-5.29102000E-03
					 1.51372000E-03	-2.99541000E-02	-2.78062000E-03
					 2.89444000E-03	-3.13107000E-02	-5.33934000E-03
					 2.88408000E-03	-2.75399000E-02	-5.31201000E-03
					 1.50634000E-03	-3.27429000E-02	-2.76143000E-03
					 1.01042000E-04	-3.56437000E-02	-1.45938000E-04
					-2.81323000E-03	-3.57387000E-02	 4.99879000E-03
					 1.07370000E-04	-3.42105000E-02	-1.53739000E-04
					-2.80681000E-03	-3.42970000E-02	 5.03177000E-03
					 7.56537000E-05	-3.04450000E-02	-1.52217000E-04
					-1.34213000E-03	-3.56992000E-02	 2.41662000E-03
					-2.79128000E-03	-3.05335000E-02	 5.00861000E-03
					 2.94559000E-03	-3.55822000E-02	-5.36739000E-03
					 2.92484000E-03	-3.41559000E-02	-5.37814000E-03
					 2.87254000E-03	-3.03630000E-02	-5.33185000E-03
					 1.53207000E-03	-3.56004000E-02	-2.73897000E-03
					 0.00000000E+00	 0.00000000E+00	 0.00000000E+00
					 0.00000000E+00	 0.00000000E+00	 0.00000000E+00
					 8.43091000E-05	-1.36016000E-02	-3.24641000E-04
					-2.73904000E-03	-1.47807000E-02	 1.44878000E-02
					 0.00000000E+00	 0.00000000E+00	 0.00000000E+00
					 0.00000000E+00	 0.00000000E+00	 0.00000000E+00
					 4.77216000E-05	-1.53190000E-02	-3.36458000E-04
					-6.43886000E-04	-1.65782000E-02	 1.46095000E-02
					 0.00000000E+00	 0.00000000E+00	 0.00000000E+00
					 5.97613000E-05	-2.39378000E-03	-1.11877000E-04
					-1.32640000E-03	-1.38350000E-02	 7.07004000E-03
					-2.51595000E-03	-3.72456000E-03	 7.16112000E-03
					 0.00000000E+00	 0.00000000E+00	 0.00000000E+00
					 0.00000000E+00	 0.00000000E+00	 0.00000000E+00
					 6.69549000E-05	-1.48052000E-02	-3.37985000E-04
					-1.67493000E-03	-1.60259000E-02	 1.44618000E-02
					 0.00000000E+00	 0.00000000E+00	 0.00000000E+00
					 1.35771000E-05	-3.73228000E-03	-1.11531000E-04
					-2.97646000E-04	-1.55788000E-02	 7.03965000E-03
					-3.20292000E-04	-5.06390000E-03	 6.93868000E-03
					 0.00000000E+00	 0.00000000E+00	 0.00000000E+00
					 2.85879000E-03	-1.43120000E-02	-1.52111000E-02
					 0.00000000E+00	 0.00000000E+00	 0.00000000E+00
					 7.35548000E-04	-1.60893000E-02	-1.53659000E-02
					 0.00000000E+00	 0.00000000E+00	 0.00000000E+00
					 2.60069000E-03	-3.60614000E-03	-7.40654000E-03
					 1.47792000E-03	-1.35920000E-02	-7.74312000E-03
					 0.00000000E+00	 0.00000000E+00	 0.00000000E+00
					 1.78835000E-03	-1.55407000E-02	-1.52147000E-02
					 0.00000000E+00	 0.00000000E+00	 0.00000000E+00
					 3.43567000E-04	-4.93980000E-03	-7.17048000E-03
					 3.90995000E-04	-1.53260000E-02	-7.74021000E-03
					 0.00000000E+00	 0.00000000E+00	 0.00000000E+00
					 0.00000000E+00	 0.00000000E+00	 0.00000000E+00
					 1.21826000E-05	-1.49848000E-02	-2.81716000E-04
					 1.46152000E-03	-1.61642000E-02	 1.45327000E-02
					 0.00000000E+00	 0.00000000E+00	 0.00000000E+00
					 0.00000000E+00	 0.00000000E+00	 0.00000000E+00
					 2.84793000E-05	-1.54965000E-02	-3.19123000E-04
					 3.92214000E-04	-1.67167000E-02	 1.46086000E-02
					 0.00000000E+00	 0.00000000E+00	 0.00000000E+00
					-2.94549000E-05	-3.05653000E-03	-8.64707000E-05
					 7.36517000E-04	-1.52153000E-02	 6.98509000E-03
					 1.90310000E-03	-4.37178000E-03	 7.19013000E-03
					 0.00000000E+00	 0.00000000E+00	 0.00000000E+00
					-1.40181000E-03	-1.56770000E-02	-1.51685000E-02
					 0.00000000E+00	 0.00000000E+00	 0.00000000E+00
					-3.26092000E-04	-1.62235000E-02	-1.53268000E-02
					 0.00000000E+00	 0.00000000E+00	 0.00000000E+00
					-1.93865000E-03	-4.23451000E-03	-7.37814000E-03
					-6.97652000E-04	-1.49691000E-02	-7.56981000E-03
					 2.18128000E-04	-5.82086000E-02	-1.51236000E-03
					-2.93549000E-03	-5.97626000E-02	 2.63167000E-02
					 1.98336000E-04	-6.05464000E-02	-1.56360000E-03
					-1.35939000E-03	-6.21113000E-02	 2.63490000E-02
					 1.47466000E-04	-3.24252000E-02	-7.67912000E-04
					-1.35645000E-03	-5.87969000E-02	 1.22473000E-02
					-2.91133000E-03	-3.38764000E-02	 2.10459000E-02
					 2.09068000E-04	-5.95593000E-02	-1.55066000E-03
					-2.14623000E-03	-6.11191000E-02	 2.63110000E-02
					 1.07798000E-04	-3.44865000E-02	-7.95901000E-04
					-5.74579000E-04	-6.11399000E-02	 1.22222000E-02
					-9.84272000E-04	-3.59492000E-02	 2.10883000E-02
					 3.35573000E-03	-5.81863000E-02	-2.94515000E-02
					 1.75163000E-03	-6.05380000E-02	-2.95885000E-02
					 3.17053000E-03	-3.29066000E-02	-2.26940000E-02
					 1.78413000E-03	-5.80251000E-02	-1.52973000E-02
					 2.55754000E-03	-5.95477000E-02	-2.95198000E-02
					 1.20061000E-03	-3.49694000E-02	-2.27962000E-02
					 9.73573000E-04	-6.03711000E-02	-1.53714000E-02
					 1.67735000E-04	-6.13252000E-02	-1.51569000E-03
					 2.46496000E-04	-6.28363000E-02	 2.63119000E-02
					 1.83327000E-04	-6.11134000E-02	-1.55331000E-03
					-5.54197000E-04	-6.26978000E-02	 2.64392000E-02
					 6.58084000E-05	-3.46178000E-02	-7.31667000E-04
					 1.93240000E-04	-6.18809000E-02	 1.21127000E-02
					 9.52595000E-04	-3.60526000E-02	 2.10808000E-02
					 1.32486000E-04	-6.12988000E-02	-2.94521000E-02
					 9.39386000E-04	-6.10990000E-02	-2.96612000E-02
					-7.73507000E-04	-3.50974000E-02	-2.26567000E-02
					 1.56166000E-04	-6.11432000E-02	-1.51622000E-02
					 4.18332000E-04	-1.24075000E-01	-3.79550000E-03
					-3.20469000E-03	-1.25658000E-01	 3.15881000E-02
					 4.18044000E-04	-1.27324000E-01	-3.91424000E-03
					-2.47781000E-03	-1.29000000E-01	 3.15411000E-02
					 3.16970000E-04	-8.93911000E-02	-2.54076000E-03
					-1.39431000E-03	-1.24772000E-01	 1.38436000E-02
					-2.95590000E-03	-9.10220000E-02	 2.97419000E-02
					 4.20799000E-04	-1.25795000E-01	-3.85787000E-03
					-2.84207000E-03	-1.27426000E-01	 3.14654000E-02
					 3.04219000E-04	-9.21016000E-02	-2.62294000E-03
					-1.05396000E-03	-1.28067000E-01	 1.36522000E-02
					-1.83756000E-03	-9.37277000E-02	 2.97653000E-02
					 4.00238000E-03	-1.23191000E-01	-3.92202000E-02
					 3.31578000E-03	-1.26433000E-01	-3.94436000E-02
					 3.57380000E-03	-8.89354000E-02	-3.49200000E-02
					 2.21865000E-03	-1.23552000E-01	-2.14400000E-02
					 3.65784000E-03	-1.24898000E-01	-3.92480000E-02
					 2.45006000E-03	-9.16203000E-02	-3.51032000E-02
					 1.86766000E-03	-1.26809000E-01	-2.15146000E-02
					 4.04470000E-04	-1.29854000E-01	-3.97833000E-03
					-1.84786000E-03	-1.31641000E-01	 3.13986000E-02
					 4.12569000E-04	-1.28691000E-01	-3.95583000E-03
					-2.16471000E-03	-1.30305000E-01	 3.16421000E-02
					 2.89719000E-04	-9.36764000E-02	-2.62396000E-03
					-6.88987000E-04	-1.30644000E-01	 1.33729000E-02
					-7.31957000E-04	-9.53085000E-02	 2.96642000E-02
					 2.62126000E-03	-1.29006000E-01	-3.94577000E-02
					 2.96969000E-03	-1.27788000E-01	-3.96326000E-02
					 1.28651000E-03	-9.31973000E-02	-3.50034000E-02
					 1.50075000E-03	-1.29378000E-01	-2.13852000E-02
					 7.05752000E-04	-1.98071000E-01	-6.61515000E-03
					-4.24839000E-03	-1.99580000E-01	 3.16439000E-02