# vtk DataFile Version 3.0

ASCII
DATASET UNSTRUCTURED_GRID

POINTS 522 double
	 1.00000000E+00	 1.00000000E+00	-5.96046000E-08
	 1.00000000E+00	 5.00000000E-01	-5.96046000E-08
	 1.00000000E+00	 5.00000000E-01	 1.00000000E+00
	 1.00000000E+00	 1.00000000E+00	 1.00000000E+00
	 5.00000000E-01	 1.00000000E+00	-5.96046000E-08
	 5.00000000E-01	 5.00000000E-01	-5.96046000E-08
	 5.00000000E-01	 5.00000000E-01	 1.00000000E+00
	 5.00000000E-01	 1.00000000E+00	 1.00000000E+00
	 1.00000000E+00	 7.50000000E-01	-5.96046000E-08
	 1.00000000E+00	 5.00000000E-01	 5.00000000E-01
	 1.00000000E+00	 7.50000000E-01	 1.00000000E+00
	 1.00000000E+00	 1.00000000E+00	 5.00000000E-01
	 7.50000000E-01	 1.00000000E+00	-5.96046000E-08
	 7.50000000E-01	 5.00000000E-01	-5.96046000E-08
	 7.50000000E-01	 5.00000000E-01	 1.00000000E+00
	 7.50000000E-01	 1.00000000E+00	 1.00000000E+00
	 5.00000000E-01	 7.50000000E-01	-5.96046000E-08
	 5.00000000E-01	 5.00000000E-01	 5.00000000E-01
	 5.00000000E-01	 7.50000000E-01	 1.00000000E+00
	 5.00000000E-01	 1.00000000E+00	 5.00000000E-01
	 1.00000000E+00	-1.49012000E-08	-5.96046000E-08
	 1.00000000E+00	-1.49012000E-08	 1.00000000E+00
	 5.00000000E-01	-1.49012000E-08	-5.96046000E-08
	 5.00000000E-01	-1.49012000E-08	 1.00000000E+00
	 1.00000000E+00	 2.50000000E-01	-5.96046000E-08
	 1.00000000E+00	-1.49012000E-08	 5.00000000E-01
	 1.00000000E+00	 2.50000000E-01	 1.00000000E+00
	 7.50000000E-01	-1.49012000E-08	-5.96046000E-08
	 7.50000000E-01	-1.49012000E-08	 1.00000000E+00
	 5.00000000E-01	 2.50000000E-01	-5.96046000E-08
	 5.00000000E-01	-1.49012000E-08	 5.00000000E-01
	 5.00000000E-01	 2.50000000E-01	 1.00000000E+00
	-7.45058000E-09	 1.00000000E+00	-5.96046000E-08
	-7.45058000E-09	 5.00000000E-01	-5.96046000E-08
	-7.45058000E-09	 5.00000000E-01	 1.00000000E+00
	-7.45058000E-09	 1.00000000E+00	 1.00000000E+00
	 2.50000000E-01	 1.00000000E+00	-5.96046000E-08
	 2.50000000E-01	 5.00000000E-01	-5.96046000E-08
	 2.50000000E-01	 5.00000000E-01	 1.00000000E+00
	 2.50000000E-01	 1.00000000E+00	 1.00000000E+00
	-7.45058000E-09	 7.50000000E-01	-5.96046000E-08
	-7.45058000E-09	 5.00000000E-01	 5.00000000E-01
	-7.45058000E-09	 7.50000000E-01	 1.00000000E+00
	-7.45058000E-09	 1.00000000E+00	 5.00000000E-01
	-7.45058000E-09	-1.49012000E-08	-5.96046000E-08
	-7.45058000E-09	-1.49012000E-08	 1.00000000E+00
	 2.50000000E-01	-1.49012000E-08	-5.96046000E-08
	 2.50000000E-01	-1.49012000E-08	 1.00000000E+00
	-7.45058000E-09	 2.50000000E-01	-5.96046000E-08
	-7.45058000E-09	-1.49012000E-08	 5.00000000E-01
	-7.45058000E-09	 2.50000000E-01	 1.00000000E+00
	 1.00000000E+00	 5.00000000E-01	 2.00000000E+00
	 1.00000000E+00	 1.00000000E+00	 2.00000000E+00
	 5.00000000E-01	 5.00000000E-01	 2.00000000E+00
	 5.00000000E-01	 1.00000000E+00	 2.00000000E+00
	 1.00000000E+00	 5.00000000E-01	 1.50000000E+00
	 1.00000000E+00	 7.50000000E-01	 2.00000000E+00
	 1.00000000E+00	 1.00000000E+00	 1.50000000E+00
	 7.50000000E-01	 5.00000000E-01	 2.00000000E+00
	 7.50000000E-01	 1.00000000E+00	 2.00000000E+00
	 5.00000000E-01	 5.00000000E-01	 1.50000000E+00
	 5.00000000E-01	 7.50000000E-01	 2.00000000E+00
	 5.00000000E-01	 1.00000000E+00	 1.50000000E+00
	 1.00000000E+00	-1.49012000E-08	 2.00000000E+00
	 5.00000000E-01	-1.49012000E-08	 2.00000000E+00
	 1.00000000E+00	-1.49012000E-08	 1.50000000E+00
	 1.00000000E+00	 2.50000000E-01	 2.00000000E+00
	 7.50000000E-01	-1.49012000E-08	 2.00000000E+00
	 5.00000000E-01	-1.49012000E-08	 1.50000000E+00
	 5.00000000E-01	 2.50000000E-01	 2.00000000E+00
	-7.45058000E-09	 5.00000000E-01	 2.00000000E+00
	-7.45058000E-09	 1.00000000E+00	 2.00000000E+00
	 2.50000000E-01	 5.00000000E-01	 2.00000000E+00
	 2.50000000E-01	 1.00000000E+00	 2.00000000E+00
	-7.45058000E-09	 5.00000000E-01	 1.50000000E+00
	-7.45058000E-09	 7.50000000E-01	 2.00000000E+00
	-7.45058000E-09	 1.00000000E+00	 1.50000000E+00
	-7.45058000E-09	-1.49012000E-08	 2.00000000E+00
	 2.50000000E-01	-1.49012000E-08	 2.00000000E+00
	-7.45058000E-09	-1.49012000E-08	 1.50000000E+00
	-7.45058000E-09	 2.50000000E-01	 2.00000000E+00
	 1.00000000E+00	 5.00000000E-01	 3.00000000E+00
	 1.00000000E+00	 1.00000000E+00	 3.00000000E+00
	 5.00000000E-01	 5.00000000E-01	 3.00000000E+00
	 5.00000000E-01	 1.00000000E+00	 3.00000000E+00
	 1.00000000E+00	 5.00000000E-01	 2.50000000E+00
	 1.00000000E+00	 7.50000000E-01	 3.00000000E+00
	 1.00000000E+00	 1.00000000E+00	 2.50000000E+00
	 7.50000000E-01	 5.00000000E-01	 3.00000000E+00
	 7.50000000E-01	 1.00000000E+00	 3.00000000E+00
	 5.00000000E-01	 5.00000000E-01	 2.50000000E+00
	 5.00000000E-01	 7.50000000E-01	 3.00000000E+00
	 5.00000000E-01	 1.00000000E+00	 2.50000000E+00
	 1.00000000E+00	-1.49012000E-08	 3.00000000E+00
	 5.00000000E-01	-1.49012000E-08	 3.00000000E+00
	 1.00000000E+00	-1.49012000E-08	 2.50000000E+00
	 1.00000000E+00	 2.50000000E-01	 3.00000000E+00
	 7.50000000E-01	-1.49012000E-08	 3.00000000E+00
	 5.00000000E-01	-1.49012000E-08	 2.50000000E+00
	 5.00000000E-01	 2.50000000E-01	 3.00000000E+00
	-7.45058000E-09	 5.00000000E-01	 3.00000000E+00
	-7.45058000E-09	 1.00000000E+00	 3.00000000E+00
	 2.50000000E-01	 5.00000000E-01	 3.00000000E+00
	 2.50000000E-01	 1.00000000E+00	 3.00000000E+00
	-7.45058000E-09	 5.00000000E-01	 2.50000000E+00
	-7.45058000E-09	 7.50000000E-01	 3.00000000E+00
	-7.45058000E-09	 1.00000000E+00	 2.50000000E+00
	-7.45058000E-09	-1.49012000E-08	 3.00000000E+00
	 2.50000000E-01	-1.49012000E-08	 3.00000000E+00
	-7.45058000E-09	-1.49012000E-08	 2.50000000E+00
	-7.45058000E-09	 2.50000000E-01	 3.00000000E+00
	 1.00000000E+00	 5.00000000E-01	 4.00000000E+00
	 1.00000000E+00	 1.00000000E+00	 4.00000000E+00
	 5.00000000E-01	 5.00000000E-01	 4.00000000E+00
	 5.00000000E-01	 1.00000000E+00	 4.00000000E+00
	 1.00000000E+00	 5.00000000E-01	 3.50000000E+00
	 1.00000000E+00	 7.50000000E-01	 4.00000000E+00
	 1.00000000E+00	 1.00000000E+00	 3.50000000E+00
	 7.50000000E-01	 5.00000000E-01	 4.00000000E+00
	 7.50000000E-01	 1.00000000E+00	 4.00000000E+00
	 5.00000000E-01	 5.00000000E-01	 3.50000000E+00
	 5.00000000E-01	 7.50000000E-01	 4.00000000E+00
	 5.00000000E-01	 1.00000000E+00	 3.50000000E+00
	 1.00000000E+00	-1.49012000E-08	 4.00000000E+00
	 5.00000000E-01	-1.49012000E-08	 4.00000000E+00
	 1.00000000E+00	-1.49012000E-08	 3.50000000E+00
	 1.00000000E+00	 2.50000000E-01	 4.00000000E+00
	 7.50000000E-01	-1.49012000E-08	 4.00000000E+00
	 5.00000000E-01	-1.49012000E-08	 3.50000000E+00
	 5.00000000E-01	 2.50000000E-01	 4.00000000E+00
	-7.45058000E-09	 5.00000000E-01	 4.00000000E+00
	-7.45058000E-09	 1.00000000E+00	 4.00000000E+00
	 2.50000000E-01	 5.00000000E-01	 4.00000000E+00
	 2.50000000E-01	 1.00000000E+00	 4.00000000E+00
	-7.45058000E-09	 5.00000000E-01	 3.50000000E+00
	-7.45058000E-09	 7.50000000E-01	 4.00000000E+00
	-7.45058000E-09	 1.00000000E+00	 3.50000000E+00
	-7.45058000E-09	-1.49012000E-08	 4.00000000E+00
	 2.50000000E-01	-1.49012000E-08	 4.00000000E+00
	-7.45058000E-09	-1.49012000E-08	 3.50000000E+00
	-7.45058000E-09	 2.50000000E-01	 4.00000000E+00
	 1.00000000E+00	 5.00000000E-01	 5.00000000E+00
	 1.00000000E+00	 1.00000000E+00	 5.00000000E+00
	 5.00000000E-01	 5.00000000E-01	 5.00000000E+00
	 5.00000000E-01	 1.00000000E+00	 5.00000000E+00
	 1.00000000E+00	 5.00000000E-01	 4.50000000E+00
	 1.00000000E+00	 7.50000000E-01	 5.00000000E+00
	 1.00000000E+00	 1.00000000E+00	 4.50000000E+00
	 7.50000000E-01	 5.00000000E-01	 5.00000000E+00
	 7.50000000E-01	 1.00000000E+00	 5.00000000E+00
	 5.00000000E-01	 5.00000000E-01	 4.50000000E+00
	 5.00000000E-01	 7.50000000E-01	 5.00000000E+00
	 5.00000000E-01	 1.00000000E+00	 4.50000000E+00
	 1.00000000E+00	-1.49012000E-08	 5.00000000E+00
	 5.00000000E-01	-1.49012000E-08	 5.00000000E+00
	 1.00000000E+00	-1.49012000E-08	 4.50000000E+00
	 1.00000000E+00	 2.50000000E-01	 5.00000000E+00
	 7.50000000E-01	-1.49012000E-08	 5.00000000E+00
	 5.00000000E-01	-1.49012000E-08	 4.50000000E+00
	 5.00000000E-01	 2.50000000E-01	 5.00000000E+00
	-7.45058000E-09	 5.00000000E-01	 5.00000000E+00
	-7.45058000E-09	 1.00000000E+00	 5.00000000E+00
	 2.50000000E-01	 5.00000000E-01	 5.00000000E+00
	 2.50000000E-01	 1.00000000E+00	 5.00000000E+00
	-7.45058000E-09	 5.00000000E-01	 4.50000000E+00
	-7.45058000E-09	 7.50000000E-01	 5.00000000E+00
	-7.45058000E-09	 1.00000000E+00	 4.50000000E+00
	-7.45058000E-09	-1.49012000E-08	 5.00000000E+00
	 2.50000000E-01	-1.49012000E-08	 5.00000000E+00
	-7.45058000E-09	-1.49012000E-08	 4.50000000E+00
	-7.45058000E-09	 2.50000000E-01	 5.00000000E+00
	 1.00000000E+00	 5.00000000E-01	 6.00000000E+00
	 1.00000000E+00	 1.00000000E+00	 6.00000000E+00
	 5.00000000E-01	 5.00000000E-01	 6.00000000E+00
	 5.00000000E-01	 1.00000000E+00	 6.00000000E+00
	 1.00000000E+00	 5.00000000E-01	 5.50000000E+00
	 1.00000000E+00	 7.50000000E-01	 6.00000000E+00
	 1.00000000E+00	 1.00000000E+00	 5.50000000E+00
	 7.50000000E-01	 5.00000000E-01	 6.00000000E+00
	 7.50000000E-01	 1.00000000E+00	 6.00000000E+00
	 5.00000000E-01	 5.00000000E-01	 5.50000000E+00
	 5.00000000E-01	 7.50000000E-01	 6.00000000E+00
	 5.00000000E-01	 1.00000000E+00	 5.50000000E+00
	 1.00000000E+00	-1.49012000E-08	 6.00000000E+00
	 5.00000000E-01	-1.49012000E-08	 6.00000000E+00
	 1.00000000E+00	-1.49012000E-08	 5.50000000E+00
	 1.00000000E+00	 2.50000000E-01	 6.00000000E+00
	 7.50000000E-01	-1.49012000E-08	 6.00000000E+00
	 5.00000000E-01	-1.49012000E-08	 5.50000000E+00
	 5.00000000E-01	 2.50000000E-01	 6.00000000E+00
	-7.45058000E-09	 5.00000000E-01	 6.00000000E+00
	-7.45058000E-09	 1.00000000E+00	 6.00000000E+00
	 2.50000000E-01	 5.00000000E-01	 6.00000000E+00
	 2.50000000E-01	 1.00000000E+00	 6.00000000E+00
	-7.45058000E-09	 5.00000000E-01	 5.50000000E+00
	-7.45058000E-09	 7.50000000E-01	 6.00000000E+00
	-7.45058000E-09	 1.00000000E+00	 5.50000000E+00
	-7.45058000E-09	-1.49012000E-08	 6.00000000E+00
	 2.50000000E-01	-1.49012000E-08	 6.00000000E+00
	-7.45058000E-09	-1.49012000E-08	 5.50000000E+00
	-7.45058000E-09	 2.50000000E-01	 6.00000000E+00
	 1.00000000E+00	 5.00000000E-01	 7.00000000E+00
[...]
POINT_DATA 522
FIELD U 1
	U 3 522 double
		 0.00000000E+00	 0.00000000E+00	 0.00000000E+00
		 0.00000000E+00	 0.00000000E+00	 0.00000000E+00
		-4.86898000E-07	-3.46459000E-03	 1.04375000E-05
		-4.73770000E-04	-3.64955000E-03	 3.20333000E-03
		 0.00000000E+00	 0.00000000E+00	 0.00000000E+00
		 0.00000000E+00	 0.00000000E+00	 0.00000000E+00
		 2.69592000E-06	-3.73548000E-03	 1.27859000E-05
		-7.36403000E-05	-3.93505000E-03	 3.24508000E-03
		 0.00000000E+00	 0.00000000E+00	 0.00000000E+00
		-2.41843000E-06	-7.84935000E-04	 7.18638000E-06
		-2.38068000E-04	-3.48578000E-03	 1.56867000E-03
		-5.17059000E-04	-1.06076000E-03	 1.65540000E-03
		 0.00000000E+00	 0.00000000E+00	 0.00000000E+00
		 0.00000000E+00	 0.00000000E+00	 0.00000000E+00
		 1.38164000E-06	-3.66869000E-03	 1.06447000E-05
		-2.71514000E-04	-3.86047000E-03	 3.21804000E-03
		 0.00000000E+00	 0.00000000E+00	 0.00000000E+00
		-2.23518000E-08	-1.02853000E-03	 8.32014000E-06
		-3.56858000E-05	-3.76168000E-03	 1.58264000E-03
		-3.08723000E-05	-1.30796000E-03	 1.61379000E-03
		 0.00000000E+00	 0.00000000E+00	 0.00000000E+00
		 4.69418000E-04	-3.62350000E-03	-3.18816000E-03
		 0.00000000E+00	 0.00000000E+00	 0.00000000E+00
		 7.80694000E-05	-3.90639000E-03	-3.22655000E-03
		 0.00000000E+00	 0.00000000E+00	 0.00000000E+00
		 5.08406000E-04	-1.04842000E-03	-1.64280000E-03
		 2.36259000E-04	-3.47355000E-03	-1.54980000E-03
		 0.00000000E+00	 0.00000000E+00	 0.00000000E+00
		 2.71668000E-04	-3.83232000E-03	-3.20287000E-03
		 0.00000000E+00	 0.00000000E+00	 0.00000000E+00
		 2.80619000E-05	-1.29210000E-03	-1.59814000E-03
		 4.07405000E-05	-3.74722000E-03	-1.55940000E-03
		 0.00000000E+00	 0.00000000E+00	 0.00000000E+00
		 0.00000000E+00	 0.00000000E+00	 0.00000000E+00
		 4.67075000E-06	-3.61410000E-03	 1.70969000E-05
		 3.25648000E-04	-3.79839000E-03	 3.20905000E-03
		 0.00000000E+00	 0.00000000E+00	 0.00000000E+00
		 0.00000000E+00	 0.00000000E+00	 0.00000000E+00
		 3.71576000E-06	-3.74227000E-03	 1.52067000E-05
		 1.24042000E-04	-3.93480000E-03	 3.23952000E-03
		 0.00000000E+00	 0.00000000E+00	 0.00000000E+00
		 2.91352000E-06	-8.43156000E-04	 1.25504000E-05
		 1.65293000E-04	-3.63500000E-03	 1.55777000E-03
		 4.59475000E-04	-1.11814000E-03	 1.66020000E-03
		 0.00000000E+00	 0.00000000E+00	 0.00000000E+00
		-3.14396000E-04	-3.77209000E-03	-3.18217000E-03
		 0.00000000E+00	 0.00000000E+00	 0.00000000E+00
		-1.15976000E-04	-3.90666000E-03	-3.21691000E-03
		 0.00000000E+00	 0.00000000E+00	 0.00000000E+00
		-4.55242000E-04	-1.09896000E-03	-1.63631000E-03
		-1.55345000E-04	-3.62203000E-03	-1.52544000E-03
		-3.84049000E-06	-1.25948000E-02	-1.58591000E-05
		-4.51756000E-04	-1.27678000E-02	 5.47676000E-03
		-3.29769000E-06	-1.28949000E-02	-2.20213000E-05
		-1.56732000E-04	-1.30703000E-02	 5.47803000E-03
		 2.45618000E-07	-7.47777000E-03	 4.06524000E-06
		-2.28743000E-04	-1.26509000E-02	 2.72023000E-03
		-4.69060000E-04	-7.68338000E-03	 4.44727000E-03
		-3.26000000E-06	-1.27763000E-02	-1.97660000E-05
		-3.04634000E-04	-1.29507000E-02	 5.47775000E-03
		 2.09975000E-06	-7.77666000E-03	 2.40977000E-06
		-8.09206000E-05	-1.29536000E-02	 2.71952000E-03
		-1.23633000E-04	-7.97977000E-03	 4.46179000E-03
		 4.44002000E-04	-1.27044000E-02	-5.51094000E-03
		 1.52416000E-04	-1.30080000E-02	-5.52437000E-03
		 4.67525000E-04	-7.64065000E-03	-4.44430000E-03
		 2.20971000E-04	-1.26197000E-02	-2.75239000E-03
		 2.98845000E-04	-1.28874000E-02	-5.51946000E-03
		 1.29189000E-04	-7.93712000E-03	-4.46286000E-03
		 7.49469000E-05	-1.29229000E-02	-2.76397000E-03
		-3.39716000E-06	-1.29030000E-02	-2.61457000E-05
		 1.29580000E-04	-1.30798000E-02	 5.46883000E-03
		-3.60166000E-06	-1.29307000E-02	-2.37017000E-05
		-1.34402000E-05	-1.31051000E-02	 5.48198000E-03
		 2.58287000E-06	-7.72791000E-03	 2.54066000E-06
		 6.46809000E-05	-1.29608000E-02	 2.70464000E-03
		 2.17928000E-04	-7.93270000E-03	 4.44668000E-03
		-1.32659000E-04	-1.30225000E-02	-5.52342000E-03
		 9.88195000E-06	-1.30446000E-02	-5.53159000E-03
		-2.07877000E-04	-7.89573000E-03	-4.44808000E-03
		-7.06333000E-05	-1.29338000E-02	-2.75753000E-03
		-7.43002000E-06	-2.55859000E-02	-1.01478000E-04
		-3.08591000E-04	-2.57859000E-02	 7.26306000E-03
		-9.45003000E-06	-2.57427000E-02	-1.03524000E-04
		-2.05319000E-05	-2.59447000E-02	 7.25642000E-03
		-7.86306000E-06	-1.86181000E-02	-5.09695000E-05
		-1.58286000E-04	-2.56499000E-02	 3.57019000E-03
		-4.19071000E-04	-1.88030000E-02	 6.37857000E-03
		-8.50677000E-06	-2.56998000E-02	-1.02197000E-04
		-1.64284000E-04	-2.59015000E-02	 7.28321000E-03
		-9.00450000E-06	-1.88861000E-02	-5.71740000E-05
		-1.55239000E-05	-2.58082000E-02	 3.58933000E-03
		-1.36130000E-04	-1.90734000E-02	 6.37383000E-03
		 2.94290000E-04	-2.56738000E-02	-7.47079000E-03
		 3.98269000E-06	-2.58327000E-02	-7.46838000E-03
		 4.04066000E-04	-1.87165000E-02	-6.48281000E-03
		 1.43789000E-04	-2.55933000E-02	-3.77426000E-03
		 1.48836000E-04	-2.57888000E-02	-7.49269000E-03
		 1.20668000E-04	-1.89873000E-02	-6.49017000E-03
		-2.25393000E-06	-2.57512000E-02	-3.79760000E-03
		-9.64397000E-06	-2.56105000E-02	-1.01176000E-04
		 2.60476000E-04	-2.58182000E-02	 7.26436000E-03
		-9.93153000E-06	-2.57135000E-02	-1.03680000E-04
		 1.18814000E-04	-2.59151000E-02	 7.22986000E-03
		-9.49621000E-06	-1.88752000E-02	-6.02155000E-05
		 1.27874000E-04	-2.56793000E-02	 3.62384000E-03
		 1.33307000E-04	-1.90714000E-02	 6.37118000E-03
		-2.76447000E-04	-2.57082000E-02	-7.47184000E-03
		-1.35582000E-04	-2.58042000E-02	-7.44177000E-03
		-1.48766000E-04	-1.89886000E-02	-6.49351000E-03
		-1.46034000E-04	-2.56231000E-02	-3.82782000E-03
		-4.30034000E-06	-4.25683000E-02	-2.53517000E-04
		 6.52946000E-05	-4.28578000E-02	 9.32929000E-03
		-5.63211000E-06	-4.23044000E-02	-2.46747000E-04
		 4.57179000E-04	-4.25904000E-02	 9.32297000E-03
		-3.54102000E-06	-3.35344000E-02	-1.67234000E-04
		 3.04636000E-05	-4.26637000E-02	 4.53680000E-03
		-1.29182000E-04	-3.37737000E-02	 8.22651000E-03
		-5.69585000E-06	-4.24860000E-02	-2.52076000E-04
		 2.61647000E-04	-4.27734000E-02	 9.35301000E-03
		-5.50346000E-06	-3.34958000E-02	-1.65200000E-04
		 2.26514000E-04	-4.23976000E-02	 4.56806000E-03
		 2.00688000E-04	-3.37350000E-02	 8.21644000E-03
		-6.83306000E-05	-4.26708000E-02	-9.84399000E-03
		-4.66624000E-04	-4.24094000E-02	-9.82462000E-03
		 1.24048000E-04	-3.36311000E-02	-8.56792000E-03
		-3.76482000E-05	-4.25695000E-02	-5.04606000E-03
		-2.67506000E-04	-4.25898000E-02	-9.86452000E-03
		-2.10119000E-04	-3.35951000E-02	-8.55387000E-03
		-2.36801000E-04	-4.23069000E-02	-5.06365000E-03
		-4.43450000E-06	-4.16467000E-02	-2.31513000E-04
		 8.57013000E-04	-4.19304000E-02	 9.35069000E-03
		-4.86371000E-06	-4.20249000E-02	-2.39236000E-04
		 6.56857000E-04	-4.23105000E-02	 9.28892000E-03
		-5.32722000E-06	-3.31248000E-02	-1.57362000E-04
		 4.25017000E-04	-4.17399000E-02	 4.63521000E-03
		 5.27212000E-04	-3.33689000E-02	 8.23719000E-03
		-8.68856000E-04	-4.17437000E-02	-9.82239000E-03
		-6.68571000E-04	-4.21294000E-02	-9.77572000E-03
		-5.37600000E-04	-3.32276000E-02	-8.55921000E-03
		-4.34236000E-04	-4.16436000E-02	-5.10081000E-03
		-3.61886000E-07	-6.48136000E-02	-5.18832000E-04
		 2.70824000E-04	-6.51847000E-02	 1.20065000E-02
		-2.84888000E-07	-6.43201000E-02	-4.99318000E-04
		 7.06116000E-04	-6.46924000E-02	 1.20404000E-02
		-5.49955000E-06	-5.29043000E-02	-3.68841000E-04
		 1.36926000E-04	-6.49402000E-02	 5.70917000E-03
		 2.03323000E-04	-5.32410000E-02	 1.06557000E-02
		-1.53228000E-06	-6.46241000E-02	-5.10386000E-04
		 4.88138000E-04	-6.49970000E-02	 1.20282000E-02
		-6.63298000E-06	-5.24786000E-02	-3.54948000E-04
		 3.53122000E-04	-6.44447000E-02	 5.74060000E-03
		 6.40568000E-04	-5.28097000E-02	 1.06632000E-02
		-2.64188000E-04	-6.48666000E-02	-1.30573000E-02
		-7.00106000E-04	-6.43817000E-02	-1.30527000E-02
		-2.06336000E-04	-5.29929000E-02	-1.14030000E-02
		-1.35344000E-04	-6.47815000E-02	-6.75000000E-03
		-4.83052000E-04	-6.46832000E-02	-1.30628000E-02
		-6.49204000E-04	-5.25694000E-02	-1.13840000E-02
		-3.50908000E-04	-6.42914000E-02	-6.74276000E-03
		 3.89660000E-06	-6.34071000E-02	-4.67131000E-04
		 1.15263000E-03	-6.37646000E-02	 1.20576000E-02
		 1.67257000E-06	-6.39194000E-02	-4.84972000E-04
		 9.29563000E-04	-6.42894000E-02	 1.20569000E-02
		-4.13769000E-06	-5.16153000E-02	-3.29047000E-04
		 5.73340000E-04	-6.35245000E-02	 5.75672000E-03
		 1.09843000E-03	-5.19320000E-02	 1.06936000E-02
		-1.14195000E-03	-6.34555000E-02	-1.30047000E-02
		-9.21462000E-04	-6.39791000E-02	-1.30409000E-02
		-1.10757000E-03	-5.16879000E-02	-1.13632000E-02
		-5.64397000E-04	-6.33738000E-02	-6.69369000E-03
		 2.09625000E-05	-9.31546000E-02	-9.28073000E-04
		 5.42847000E-04	-9.34371000E-02	 1.36375000E-02
		 2.52621000E-05	-9.25727000E-02	-9.05345000E-04
		 6.79270000E-04	-9.28489000E-02	 1.36938000E-02
		 9.84792000E-06	-7.83980000E-02	-7.08734000E-04
		 2.79927000E-04	-9.32780000E-02	 6.26812000E-03
		 3.85034000E-04	-7.87308000E-02	 1.30685000E-02
		 2.24373000E-05	-9.28798000E-02	-9.16570000E-04
		 6.10773000E-04	-9.31582000E-02	 1.36842000E-02
		 1.15419000E-05	-7.78677000E-02	-6.86368000E-04
		 3.51727000E-04	-9.26934000E-02	 6.32026000E-03
		 6.96876000E-04	-7.82012000E-02	 1.31252000E-02
		-4.91495000E-04	-9.30108000E-02	-1.55037000E-02
		-6.26127000E-04	-9.24306000E-02	-1.55139000E-02
		-3.58052000E-04	-7.83490000E-02	-1.44982000E-02
		-2.35720000E-04	-9.30698000E-02	-8.12772000E-03
		-5.58562000E-04	-9.27371000E-02	-1.55266000E-02
		-6.68906000E-04	-7.78257000E-02	-1.45092000E-02
		-3.00144000E-04	-9.24898000E-02	-8.13353000E-03
		 2.96315000E-05	-9.18493000E-02	-8.75306000E-04
		 8.13522000E-04	-9.21305000E-02	 1.36864000E-02
		 2.82093000E-05	-9.22272000E-02	-8.92408000E-04
		 7.46734000E-04	-9.25042000E-02	 1.37154000E-02
		 1.52555000E-05	-7.70344000E-02	-6.54247000E-04
		 4.23978000E-04	-9.19721000E-02	 6.30791000E-03
		 1.01035000E-03	-7.73610000E-02	 1.31222000E-02
		-7.59143000E-04	-9.17098000E-02	-1.54464000E-02
		-6.92588000E-04	-9.20850000E-02	-1.55081000E-02
		-9.78945000E-04	-7.69872000E-02	-1.44402000E-02
		-3.65422000E-04	-9.17675000E-02	-8.06222000E-03
		 2.50698000E-05	-1.23177000E-01	-1.38271000E-03
		 7.58094000E-04	-1.23359000E-01	 1.31928000E-02
		 3.37167000E-05	-1.22486000E-01	-1.35950000E-03
		 6.96759000E-04	-1.22658000E-01	 1.32281000E-02
		 2.53942000E-05	-1.08287000E-01	-1.15550000E-03
		 3.87045000E-04	-1.23277000E-01	 5.89513000E-03
		 6.77436000E-04	-1.08519000E-01	 1.35686000E-02
		 2.74286000E-05	-1.22824000E-01	-1.37099000E-03
		 7.25175000E-04	-1.22997000E-01	 1.32152000E-02
		 3.35776000E-05	-1.07646000E-01	-1.13485000E-03
		 3.62755000E-04	-1.22581000E-01	 5.93270000E-03
		 6.75243000E-04	-1.07867000E-01	 1.36118000E-02
		-6.98432000E-04	-1.22945000E-01	-1.59437000E-02
		-6.22667000E-04	-1.22254000E-01	-1.59347000E-02
		-6.12850000E-04	-1.08090000E-01	-1.58859000E-02
		-3.33853000E-04	-1.23076000E-01	-8.65322000E-03
		-6.61776000E-04	-1.22589000E-01	-1.59443000E-02
		-6.04882000E-04	-1.07450000E-01	-1.58881000E-02
		-2.92740000E-04	-1.22385000E-01	-8.64665000E-03
		 4.27408000E-05	-1.21850000E-01	-1.34504000E-03
		 6.36773000E-04	-1.22028000E-01	 1.32471000E-02
		 4.01877000E-05	-1.22157000E-01	-1.35142000E-03
		 6.67876000E-04	-1.22329000E-01	 1.32317000E-02
		 4.17486000E-05	-1.06998000E-01	-1.11068000E-03
		 3.41032000E-04	-1.21947000E-01	 5.95842000E-03
		 6.68217000E-04	-1.07233000E-01	 1.36118000E-02
		-5.49196000E-04	-1.21627000E-01	-1.59271000E-02
		-5.82860000E-04	-1.21928000E-01	-1.59264000E-02
		-5.93477000E-04	-1.06811000E-01	-1.58413000E-02
		-2.54919000E-04	-1.21752000E-01	-8.64184000E-03
		 5.89661000E-05	-1.51987000E-01	-1.81047000E-03
		 8.34496000E-04	-1.52211000E-01	 1.25302000E-02
		 2.19808000E-05	-1.51243000E-01	-1.77414000E-03
		 8.00574000E-04	-1.51483000E-01	 1.25965000E-02
		 3.42587000E-05	-1.37660000E-01	-1.60442000E-03
		 4.55881000E-04	-1.52102000E-01	 5.35996000E-03
		 7.88878000E-04	-1.37851000E-01	 1.28121000E-02
		 4.41946000E-05	-1.51606000E-01	-1.78657000E-03
		 8.20424000E-04	-1.51846000E-01	 1.25671000E-02
		 2.98658000E-05	-1.36924000E-01	-1.57124000E-03
		 4.19003000E-04	-1.51368000E-01	 5.41688000E-03
		 7.52628000E-04	-1.37124000E-01	 1.28630000E-02
		-7.47365000E-04	-1.51740000E-01	-1.60890000E-02
		-7.38722000E-04	-1.50988000E-01	-1.60841000E-02
		-7.34264000E-04	-1.37438000E-01	-1.59713000E-02
		-3.45398000E-04	-1.51858000E-01	-8.96212000E-03
		-7.43422000E-04	-1.51352000E-01	-1.60800000E-02
		-6.79471000E-04	-1.36700000E-01	-1.59602000E-02
		-3.68534000E-04	-1.51108000E-01	-8.94794000E-03
		-1.06864000E-05	-1.50524000E-01	-1.78687000E-03
		 7.92401000E-04	-1.50733000E-01	 1.26321000E-02
		 6.58818000E-07	-1.50893000E-01	-1.77528000E-03
		 7.93147000E-04	-1.51119000E-01	 1.26096000E-02
		 2.77393000E-05	-1.36228000E-01	-1.57155000E-03
		 3.91966000E-04	-1.50629000E-01	 5.44328000E-03
		 7.25527000E-04	-1.36419000E-01	 1.28951000E-02
		-7.52008000E-04	-1.50297000E-01	-1.61430000E-02
		-7.44767000E-04	-1.50641000E-01	-1.61010000E-02
		-6.33453000E-04	-1.36031000E-01	-1.59963000E-02
		-3.96395000E-04	-1.50408000E-01	-8.99648000E-03
		 0.00000000E+00	 0.00000000E+00	 0.00000000E+00
		 0.00000000E+00	 0.00000000E+00	 0.00000000E+00
		 1.19659000E-04	-5.70872000E-03	-1.76063000E-04
		-1.89353000E-03	-6.23097000E-03	 6.96611000E-03
		 0.00000000E+00	 0.00000000E+00	 0.00000000E+00
		 0.00000000E+00	 0.00000000E+00	 0.00000000E+00
		 1.06933000E-04	-7.18367000E-03	-1.12107000E-04
		-8.59889000E-04	-7.74337000E-03	 7.08315000E-03
		 0.00000000E+00	 0.00000000E+00	 0.00000000E+00
		 5.26085000E-05	-7.74374000E-04	-8.02123000E-05
		-8.88168000E-04	-5.79583000E-03	 3.46771000E-03
		-1.48331000E-03	-1.39878000E-03	 3.38413000E-03
		 0.00000000E+00	 0.00000000E+00	 0.00000000E+00
		 0.00000000E+00	 0.00000000E+00	 0.00000000E+00
		 1.12499000E-04	-6.61524000E-03	-1.44622000E-04
		-1.37041000E-03	-7.15300000E-03	 6.92353000E-03
		 0.00000000E+00	 0.00000000E+00	 0.00000000E+00
		 3.14112000E-05	-1.73046000E-03	-4.26216000E-05
		-3.74664000E-04	-7.28294000E-03	 3.45526000E-03
		-4.44213000E-04	-2.35204000E-03	 3.31151000E-03
		 0.00000000E+00	 0.00000000E+00	 0.00000000E+00
		 2.11128000E-03	-6.14577000E-03	-7.33158000E-03
		 0.00000000E+00	 0.00000000E+00	 0.00000000E+00
		 1.06566000E-03	-7.63772000E-03	-7.32442000E-03
		 0.00000000E+00	 0.00000000E+00	 0.00000000E+00
		 1.56956000E-03	-1.40616000E-03	-3.55437000E-03
		 1.12174000E-03	-5.75088000E-03	-3.82464000E-03
		 0.00000000E+00	 0.00000000E+00	 0.00000000E+00
		 1.58089000E-03	-7.05618000E-03	-7.22675000E-03
		 0.00000000E+00	 0.00000000E+00	 0.00000000E+00
		 4.95756000E-04	-2.33552000E-03	-3.40088000E-03
		 5.86043000E-04	-7.22821000E-03	-3.68566000E-03
		 0.00000000E+00	 0.00000000E+00	 0.00000000E+00
		 0.00000000E+00	 0.00000000E+00	 0.00000000E+00
		 9.88816000E-05	-7.63802000E-03	-2.97130000E-05
		 1.90658000E-04	-8.16615000E-03	 7.11087000E-03
		 0.00000000E+00	 0.00000000E+00	 0.00000000E+00
		 0.00000000E+00	 0.00000000E+00	 0.00000000E+00
		 1.01380000E-04	-7.57945000E-03	-7.48405000E-05
		-3.42455000E-04	-8.11987000E-03	 7.16819000E-03
		 0.00000000E+00	 0.00000000E+00	 0.00000000E+00
		 2.23632000E-05	-1.71556000E-03	 5.60077000E-07
		 1.47518000E-04	-7.72608000E-03	 3.43604000E-03
		 6.41909000E-04	-2.33019000E-03	 3.46864000E-03
		 0.00000000E+00	 0.00000000E+00	 0.00000000E+00
		 6.66833000E-06	-8.04558000E-03	-7.18679000E-03
		 0.00000000E+00	 0.00000000E+00	 0.00000000E+00
		 5.39686000E-04	-8.00905000E-03	-7.33598000E-03
		 0.00000000E+00	 0.00000000E+00	 0.00000000E+00
		-6.04562000E-04	-2.28671000E-03	-3.47082000E-03
		 5.27622000E-05	-7.66702000E-03	-3.50019000E-03
		 3.55151000E-04	-2.65595000E-02	-4.87271000E-04
		-2.65623000E-03	-2.72161000E-02	 1.35622000E-02
		 3.53734000E-04	-2.90955000E-02	-4.17583000E-04
		-1.72007000E-03	-2.97555000E-02	 1.36551000E-02
		 2.26072000E-04	-1.43258000E-02	-3.02094000E-04
		-1.14828000E-03	-2.67796000E-02	 6.54695000E-03
		-2.30456000E-03	-1.49539000E-02	 1.04277000E-02
		 3.54629000E-04	-2.79363000E-02	-4.56386000E-04
		-2.18756000E-03	-2.85931000E-02	 1.35411000E-02
		 2.15158000E-04	-1.63343000E-02	-2.29189000E-04
		-6.77170000E-04	-2.93150000E-02	 6.56345000E-03
		-1.27972000E-03	-1.69688000E-02	 1.05169000E-02
		 3.36017000E-03	-2.68055000E-02	-1.45612000E-02
		 2.42298000E-03	-2.93497000E-02	-1.45151000E-02
		 2.74113000E-03	-1.47294000E-02	-1.10539000E-02
		 1.85504000E-03	-2.65722000E-02	-7.52848000E-03
		 2.89354000E-03	-2.81917000E-02	-1.44745000E-02
		 1.70537000E-03	-1.67352000E-02	-1.09988000E-02
		 1.38771000E-03	-2.91134000E-02	-7.40148000E-03
		 3.46412000E-04	-3.07101000E-02	-3.18383000E-04
		-7.55068000E-04	-3.13351000E-02	 1.37258000E-02
		 3.49793000E-04	-3.00084000E-02	-3.71403000E-04
		-1.23613000E-03	-3.06902000E-02	 1.37833000E-02
		 2.06275000E-04	-1.73201000E-02	-1.31688000E-04
		-2.15898000E-04	-3.09063000E-02	 6.55383000E-03
		-2.45083000E-04	-1.79449000E-02	 1.05944000E-02
		 1.48001000E-03	-3.09515000E-02	-1.43884000E-02
		 1.95035000E-03	-3.02613000E-02	-1.45562000E-02
		 6.73462000E-04	-1.77168000E-02	-1.08803000E-02
		 9.18082000E-04	-3.07215000E-02	-7.19134000E-03
		 6.97830000E-04	-6.00320000E-02	-1.07907000E-03
		-3.42938000E-03	-6.06707000E-02	 1.81222000E-02
		 7.13310000E-04	-6.38299000E-02	-1.03216000E-03
		-2.79677000E-03	-6.45721000E-02	 1.82101000E-02
		 5.16097000E-04	-4.19954000E-02	-7.44716000E-04
		-1.36107000E-03	-6.02738000E-02	 8.53423000E-03
		-2.99878000E-03	-4.26765000E-02	 1.61525000E-02
		 7.07571000E-04	-6.20123000E-02	-1.05336000E-03
		-3.11505000E-03	-6.27120000E-02	 1.80574000E-02
		 5.19939000E-04	-4.51203000E-02	-6.85478000E-04
		-1.06593000E-03	-6.41238000E-02	 8.48133000E-03
		-2.21233000E-03	-4.58059000E-02	 1.62516000E-02
		 4.79059000E-03	-5.99356000E-02	-2.02896000E-02
		 4.22759000E-03	-6.37507000E-02	-2.03194000E-02
		 4.02255000E-03	-4.20822000E-02	-1.76680000E-02
		 2.74481000E-03	-5.99071000E-02	-1.06881000E-02
		 4.50851000E-03	-6.19199000E-02	-2.02011000E-02
		 3.25801000E-03	-4.52001000E-02	-1.76495000E-02
		 2.47082000E-03	-6.37213000E-02	-1.05714000E-02
		 7.18175000E-04	-6.70513000E-02	-9.60687000E-04
		-2.26019000E-03	-6.78945000E-02	 1.82339000E-02
		 7.16701000E-04	-6.55294000E-02	-1.00448000E-03
		-2.52980000E-03	-6.62023000E-02	 1.83788000E-02
		 5.26753000E-04	-4.74677000E-02	-5.96178000E-04
		-7.44442000E-04	-6.73946000E-02	 8.36467000E-03
		-1.44080000E-03	-4.81600000E-02	 1.63014000E-02
		 3.66117000E-03	-6.69971000E-02	-2.02274000E-02
		 3.94407000E-03	-6.54415000E-02	-2.04360000E-02
		 2.46424000E-03	-4.75357000E-02	-1.75232000E-02
		 2.18413000E-03	-6.69688000E-02	-1.03346000E-02
		 1.15205000E-03	-1.01161000E-01	-1.91339000E-03
		-4.23399000E-03	-1.01588000E-01	 1.95061000E-02
		 1.18265000E-03	-1.06571000E-01	-1.90926000E-03
		-4.25249000E-03	-1.07449000E-01	 1.95566000E-02
		 8.83769000E-04	-8.00089000E-02	-1.47416000E-03
		-1.54348000E-03	-1.01367000E-01	 8.79001000E-03
		-3.87305000E-03	-8.06481000E-02	 1.92112000E-02
		 1.16831000E-03	-1.03839000E-01	-1.91052000E-03
		-4.23294000E-03	-1.04434000E-01	 1.94554000E-02
		 9.02421000E-04	-8.46431000E-02	-1.49107000E-03
		-1.41356000E-03	-1.06983000E-01	 8.73092000E-03
		-3.57343000E-03	-8.52239000E-02	 1.93302000E-02
		 6.38628000E-03	-1.00716000E-01	-2.33361000E-02
		 6.32977000E-03	-1.05985000E-01	-2.33737000E-02
		 5.62291000E-03	-7.97241000E-02	-2.21739000E-02
		 3.76657000E-03	-1.00937000E-01	-1.26162000E-02
		 6.36271000E-03	-1.03358000E-01	-2.32787000E-02
		 5.31536000E-03	-8.43251000E-02	-2.22241000E-02
		 3.74408000E-03	-1.06254000E-01	-1.25516000E-02
		 1.06843000E-03	-1.11936000E-01	-1.90425000E-03
		-4.15381000E-03	-1.13175000E-01	 1.95214000E-02
		 1.12923000E-03	-1.09224000E-01	-1.90907000E-03
		-4.20074000E-03	-1.10805000E-01	 1.96673000E-02
		 8.90451000E-04	-8.89521000E-02	-1.51893000E-03
		-1.65734000E-03	-1.12510000E-01	 8.58645000E-03
		-3.11368000E-03	-8.94068000E-02	 1.93086000E-02
		 6.29256000E-03	-1.11206000E-01	-2.33221000E-02