<?xml version="1.0"?>
<VTKFile type="UnstructuredGrid" version="0.1" byte_order="LittleEndian">
	<UnstructuredGrid>
		<Piece NumberOfPoints="522" NumberOfCells="64">
			<Points>
				<DataArray type="Float64" NumberOfComponents="3" format="ascii">
					 1.00000000E+00	 1.00000000E+00	-5.96046000E-08
					 1.00000000E+00	 5.00000000E-01	-5.96046000E-08
					 1.00000000E+00	 5.00000000E-01	 1.00000000E+00
					 1.00000000E+00	 1.00000000E+00	 1.00000000E+00
					 5.00000000E-01	 1.00000000E+00	-5.96046000E-08
					 5.00000000E-01	 5.00000000E-01	-5.96046000E-08
					 5.00000000E-01	 5.00000000E-01	 1.00000000E+00
					 5.00000000E-01	 1.00000000E+00	 1.00000000E+00
					 1.00000000E+00	 7.50000000E-01	-5.96046000E-08
					 1.00000000E+00	 5.00000000E-01	 5.00000000E-01
					 1.00000000E+00	 7.50000000E-01	 1.00000000E+00
					 1.00000000E+00	 1.00000000E+00	 5.00000000E-01
					 7.50000000E-01	 1.00000000E+00	-5.96046000E-08
					 7.50000000E-01	 5.00000000E-01	-5.96046000E-08
					 7.50000000E-01	 5.00000000E-01	 1.00000000E+00
					 7.50000000E-01	 1.00000000E+00	 1.00000000E+00
					 5.00000000E-01	 7.50000000E-01	-5.96046000E-08
					 5.00000000E-01	 5.00000000E-01	 5.00000000E-01
					 5.00000000E-01	 7.50000000E-01	 1.00000000E+00
					 5.00000000E-01	 1.00000000E+00	 5.00000000E-01
					 1.00000000E+00	-1.49012000E-08	-5.96046000E-08
					 1.00000000E+00	-1.49012000E-08	 1.00000000E+00
					 5.00000000E-01	-1.49012000E-08	-5.96046000E-08
					 5.00000000E-01	-1.49012000E-08	 1.00000000E+00
					 1.00000000E+00	 2.50000000E-01	-5.96046000E-08
					 1.00000000E+00	-1.49012000E-08	 5.00000000E-01
					 1.00000000E+00	 2.50000000E-01	 1.00000000E+00
					 7.50000000E-01	-1.49012000E-08	-5.96046000E-08
					 7.50000000E-01	-1.49012000E-08	 1.00000000E+00
					 5.00000000E-01	 2.50000000E-01	-5.96046000E-08
					 5.00000000E-01	-1.49012000E-08	 5.00000000E-01
					 5.00000000E-01	 2.50000000E-01	 1.00000000E+00
					-7.45058000E-09	 1.00000000E+00	-5.96046000E-08
					-7.45058000E-09	 5.00000000E-01	-5.96046000E-08
					-7.45058000E-09	 5.00000000E-01	 1.00000000E+00
					-7.45058000E-09	 1.00000000E+00	 1.00000000E+00
					 2.50000000E-01	 1.00000000E+00	-5.96046000E-08
					 2.50000000E-01	 5.00000000E-01	-5.96046000E-08
					 2.50000000E-01	 5.00000000E-01	 1.00000000E+00
					 2.50000000E-01	 1.00000000E+00	 1.00000000E+00
					-7.45058000E-09	 7.50000000E-01	-5.96046000E-08
					-7.45058000E-09	 5.00000000E-01	 5.00000000E-01
					-7.45058000E-09	 7.50000000E-01	 1.00000000E+00
					-7.45058000E-09	 1.00000000E+00	 5.00000000E-01
					-7.45058000E-09	-1.49012000E-08	-5.96046000E-08
					-7.45058000E-09	-1.49012000E-08	 1.00000000E+00
					 2.50000000E-01	-1.49012000E-08	-5.96046000E-08
					 2.50000000E-01	-1.49012000E-08	 1.00000000E+00
					-7.45058000E-09	 2.50000000E-01	-5.96046000E-08
					-7.45058000E-09	-1.49012000E-08	 5.00000000E-01
					-7.45058000E-09	 2.50000000E-01	 1.00000000E+00
					 1.00000000E+00	 5.00000000E-01	 2.00000000E+00
					 1.00000000E+00	 1.00000000E+00	 2.00000000E+00
					 5.00000000E-01	 5.00000000E-01	 2.00000000E+00
					 5.00000000E-01	 1.00000000E+00	 2.00000000E+00
					 1.00000000E+00	 5.00000000E-01	 1.50000000E+00
					 1.00000000E+00	 7.50000000E-01	 2.00000000E+00
					 1.00000000E+00	 1.00000000E+00	 1.50000000E+00
					 7.50000000E-01	 5.00000000E-01	 2.00000000E+00
					 7.50000000E-01	 1.00000000E+00	 2.00000000E+00
					 5.00000000E-01	 5.00000000E-01	 1.50000000E+00
					 5.00000000E-01	 7.50000000E-01	 2.00000000E+00
					 5.00000000E-01	 1.00000000E+00	 1.50000000E+00
					 1.00000000E+00	-1.49012000E-08	 2.00000000E+00
					 5.00000000E-01	-1.49012000E-08	 2.00000000E+00
					 1.00000000E+00	-1.49012000E-08	 1.50000000E+00
					 1.00000000E+00	 2.50000000E-01	 2.00000000E+00
					 7.50000000E-01	-1.49012000E-08	 2.00000000E+00
					 5.00000000E-01	-1.49012000E-08	 1.50000000E+00
					 5.00000000E-01	 2.50000000E-01	 2.00000000E+00
					-7.45058000E-09	 5.00000000E-01	 2.00000000E+00
					-7.45058000E-09	 1.00000000E+00	 2.00000000E+00
					 2.50000000E-01	 5.00000000E-01	 2.00000000E+00
					 2.50000000E-01	 1.00000000E+00	 2.00000000E+00
					-7.45058000E-09	 5.00000000E-01	 1.50000000E+00
					-7.45058000E-09	 7.50000000E-01	 2.00000000E+00
					-7.45058000E-09	 1.00000000E+00	 1.50000000E+00
					-7.45058000E-09	-1.49012000E-08	 2.00000000E+00
					 2.50000000E-01	-1.49012000E-08	 2.00000000E+00
					-7.45058000E-09	-1.49012000E-08	 1.50000000E+00
					-7.45058000E-09	 2.50000000E-01	 2.00000000E+00
					 1.00000000E+00	 5.00000000E-01	 3.00000000E+00
					 1.00000000E+00	 1.00000000E+00	 3.00000000E+00
					 5.00000000E-01	 5.00000000E-01	 3.00000000E+00
					 5.00000000E-01	 1.00000000E+00	 3.00000000E+00
					 1.00000000E+00	 5.00000000E-01	 2.50000000E+00
					 1.00000000E+00	 7.50000000E-01	 3.00000000E+00
					 1.00000000E+00	 1.00000000E+00	 2.50000000E+00
					 7.50000000E-01	 5.00000000E-01	 3.00000000E+00
					 7.50000000E-01	 1.00000000E+00	 3.00000000E+00
					 5.00000000E-01	 5.00000000E-01	 2.50000000E+00
					 5.00000000E-01	 7.50000000E-01	 3.00000000E+00
					 5.00000000E-01	 1.00000000E+00	 2.50000000E+00
					 1.00000000E+00	-1.49012000E-08	 3.00000000E+00
					 5.00000000E-01	-1.49012000E-08	 3.00000000E+00
					 1.00000000E+00	-1.49012000E-08	 2.50000000E+00
					 1.00000000E+00	 2.50000000E-01	 3.00000000E+00
					 7.50000000E-01	-1.49012000E-08	 3.00000000E+00
					 5.00000000E-01	-1.49012000E-08	 2.50000000E+00
					 5.00000000E-01	 2.50000000E-01	 3.00000000E+00
					-7.45058000E-09	 5.00000000E-01	 3.00000000E+00
					-7.45058000E-09	 1.00000000E+00	 3.00000000E+00
					 2.50000000E-01	 5.00000000E-01	 3.00000000E+00
					 2.50000000E-01	 1.00000000E+00	 3.00000000E+00
					-7.45058000E-09	 5.00000000E-01	 2.50000000E+00
					-7.45058000E-09	 7.50000000E-01	 3.00000000E+00
					-7.45058000E-09	 1.00000000E+00	 2.50000000E+00
					-7.45058000E-09	-1.49012000E-08	 3.00000000E+00
					 2.50000000E-01	-1.49012000E-08	 3.00000000E+00
					-7.45058000E-09	-1.49012000E-08	 2.50000000E+00
					-7.45058000E-09	 2.50000000E-01	 3.00000000E+00
					 1.00000000E+00	 5.00000000E-01	 4.00000000E+00
					 1.00000000E+00	 1.00000000E+00	 4.00000000E+00
					 5.00000000E-01	 5.00000000E-01	 4.00000000E+00
					 5.00000000E-01	 1.00000000E+00	 4.00000000E+00
					 1.00000000E+00	 5.00000000E-01	 3.50000000E+00
					 1.00000000E+00	 7.50000000E-01	 4.00000000E+00
					 1.00000000E+00	 1.00000000E+00	 3.50000000E+00
					 7.50000000E-01	 5.00000000E-01	 4.00000000E+00
					 7.50000000E-01	 1.00000000E+00	 4.00000000E+00
					 5.00000000E-01	 5.00000000E-01	 3.50000000E+00
					 5.00000000E-01	 7.50000000E-01	 4.00000000E+00
					 5.00000000E-01	 1.00000000E+00	 3.50000000E+00
					 1.00000000E+00	-1.49012000E-08	 4.00000000E+00
					 5.00000000E-01	-1.49012000E-08	 4.00000000E+00
					 1.00000000E+00	-1.49012000E-08	 3.50000000E+00
					 1.00000000E+00	 2.50000000E-01	 4.00000000E+00
					 7.50000000E-01	-1.49012000E-08	 4.00000000E+00
					 5.00000000E-01	-1.49012000E-08	 3.50000000E+00
					 5.00000000E-01	 2.50000000E-01	 4.00000000E+00
					-7.45058000E-09	 5.00000000E-01	 4.00000000E+00
					-7.45058000E-09	 1.00000000E+00	 4.00000000E+00
					 2.50000000E-01	 5.00000000E-01	 4.00000000E+00
					 2.50000000E-01	 1.00000000E+00	 4.00000000E+00
					-7.45058000E-09	 5.00000000E-01	 3.50000000E+00
					-7.45058000E-09	 7.50000000E-01	 4.00000000E+00
					-7.45058000E-09	 1.00000000E+00	 3.50000000E+00
					-7.45058000E-09	-1.49012000E-08	 4.00000000E+00
					 2.50000000E-01	-1.49012000E-08	 4.00000000E+00
					-7.45058000E-09	-1.49012000E-08	 3.50000000E+00
					-7.45058000E-09	 2.50000000E-01	 4.00000000E+00
					 1.00000000E+00	 5.00000000E-01	 5.00000000E+00
					 1.00000000E+00	 1.00000000E+00	 5.00000000E+00
					 5.00000000E-01	 5.00000000E-01	 5.00000000E+00
					 5.00000000E-01	 1.00000000E+00	 5.00000000E+00
					 1.00000000E+00	 5.00000000E-01	 4.50000000E+00
					 1.00000000E+00	 7.50000000E-01	 5.00000000E+00
					 1.00000000E+00	 1.00000000E+00	 4.50000000E+00
					 7.50000000E-01	 5.00000000E-01	 5.00000000E+00
					 7.50000000E-01	 1.00000000E+00	 5.00000000E+00
					 5.00000000E-01	 5.00000000E-01	 4.50000000E+00
					 5.00000000E-01	 7.50000000E-01	 5.00000000E+00
					 5.00000000E-01	 1.00000000E+00	 4.50000000E+00
					 1.00000000E+00	-1.49012000E-08	 5.00000000E+00
					 5.00000000E-01	-1.49012000E-08	 5.00000000E+00
					 1.00000000E+00	-1.49012000E-08	 4.50000000E+00
					 1.00000000E+00	 2.50000000E-01	 5.00000000E+00
					 7.50000000E-01	-1.49012000E-08	 5.00000000E+00
					 5.00000000E-01	-1.49012000E-08	 4.50000000E+00
					 5.00000000E-01	 2.50000000E-01	 5.00000000E+00
					-7.45058000E-09	 5.00000000E-01	 5.00000000E+00
					-7.45058000E-09	 1.00000000E+00	 5.00000000E+00
					 2.50000000E-01	 5.00000000E-01	 5.00000000E+00
					 2.50000000E-01	 1.00000000E+00	 5.00000000E+00
					-7.45058000E-09	 5.00000000E-01	 4.50000000E+00
					-7.45058000E-09	 7.50000000E-01	 5.00000000E+00
					-7.45058000E-09	 1.00000000E+00	 4.50000000E+00
					-7.45058000E-09	-1.49012000E-08	 5.00000000E+00
					 2.50000000E-01	-1.49012000E-08	 5.00000000E+00
					-7.45058000E-09	-1.49012000E-08	 4.50000000E+00
					-7.45058000E-09	 2.50000000E-01	 5.00000000E+00
					 1.00000000E+00	 5.00000000E-01	 6.00000000E+00
					 1.00000000E+00	 1.00000000E+00	 6.00000000E+00
					 5.00000000E-01	 5.00000000E-01	 6.00000000E+00
					 5.00000000E-01	 1.00000000E+00	 6.00000000E+00
					 1.00000000E+00	 5.00000000E-01	 5.50000000E+00
					 1.00000000E+00	 7.50000000E-01	 6.00000000E+00
					 1.00000000E+00	 1.00000000E+00	 5.50000000E+00
					 7.50000000E-01	 5.00000000E-01	 6.00000000E+00
					 7.50000000E-01	 1.00000000E+00	 6.00000000E+00
					 5.00000000E-01	 5.00000000E-01	 5.50000000E+00
					 5.00000000E-01	 7.50000000E-01	 6.00000000E+00
					 5.00000000E-01	 1.00000000E+00	 5.50000000E+00
					 1.00000000E+00	-1.49012000E-08	 6.00000000E+00
[...]
			<PointData>
				<DataArray type="Float32" Name="U" NumberOfComponents="3" ComponentName0="D1" ComponentName1="D2" ComponentName2="D3" format="ascii">
					 0.00000000E+00	 0.00000000E+00	 0.00000000E+00
					 0.00000000E+00	 0.00000000E+00	 0.00000000E+00
					-3.25337000E-05	-1.43708000E-03	 5.69478000E-05
					-6.79183000E-04	-1.57411000E-03	 2.58400000E-03
					 0.00000000E+00	 0.00000000E+00	 0.00000000E+00
					 0.00000000E+00	 0.00000000E+00	 0.00000000E+00
					-1.35143000E-05	-1.78389000E-03	 3.34845000E-07
					-1.47011000E-04	-2.09024000E-03	 2.56570000E-03
					 0.00000000E+00	 0.00000000E+00	 0.00000000E+00
					-2.21472000E-06	 5.23213000E-05	 3.92983000E-05
					-3.03134000E-04	-1.42509000E-03	 1.33973000E-03
					-5.36589000E-04	-1.83551000E-04	 1.12343000E-03
					 0.00000000E+00	 0.00000000E+00	 0.00000000E+00
					 0.00000000E+00	 0.00000000E+00	 0.00000000E+00
					-8.00427000E-06	-1.71030000E-03	 5.07104000E-06
					-4.15297000E-04	-1.96309000E-03	 2.57741000E-03
					 0.00000000E+00	 0.00000000E+00	 0.00000000E+00
					-5.82557000E-07	-2.37809000E-04	 9.39573000E-06
					-9.28848000E-05	-1.87246000E-03	 1.31414000E-03
					-1.13072000E-04	-4.54103000E-04	 1.04580000E-03
					 0.00000000E+00	 0.00000000E+00	 0.00000000E+00
					 7.14096000E-04	-1.58661000E-03	-2.50434000E-03
					 0.00000000E+00	 0.00000000E+00	 0.00000000E+00
					 1.25211000E-04	-2.05017000E-03	-2.52072000E-03
					 0.00000000E+00	 0.00000000E+00	 0.00000000E+00
					 5.26565000E-04	-1.86996000E-04	-1.08771000E-03
					 3.06854000E-04	-1.46142000E-03	-1.27287000E-03
					 0.00000000E+00	 0.00000000E+00	 0.00000000E+00
					 4.01198000E-04	-1.95438000E-03	-2.51303000E-03
					 0.00000000E+00	 0.00000000E+00	 0.00000000E+00
					 1.14845000E-04	-3.96121000E-04	-9.98357000E-04
					 7.70165000E-05	-1.84442000E-03	-1.29418000E-03
					 0.00000000E+00	 0.00000000E+00	 0.00000000E+00
					 0.00000000E+00	 0.00000000E+00	 0.00000000E+00
					 2.52756000E-05	-1.74357000E-03	 6.70377000E-07
					 3.09633000E-04	-1.94224000E-03	 2.54281000E-03
					 0.00000000E+00	 0.00000000E+00	 0.00000000E+00
					 0.00000000E+00	 0.00000000E+00	 0.00000000E+00
					-1.53281000E-05	-1.83791000E-03	 5.02572000E-07
					 1.11775000E-04	-2.05026000E-03	 2.55131000E-03
					 0.00000000E+00	 0.00000000E+00	 0.00000000E+00
					-7.24978000E-06	-1.27107000E-04	 1.28048000E-05
					 1.93136000E-04	-1.76203000E-03	 1.28741000E-03
					 2.35968000E-04	-4.16361000E-04	 1.08884000E-03
					 0.00000000E+00	 0.00000000E+00	 0.00000000E+00
					-3.43053000E-04	-1.95135000E-03	-2.54794000E-03
					 0.00000000E+00	 0.00000000E+00	 0.00000000E+00
					-9.91449000E-05	-2.04099000E-03	-2.54167000E-03
					 0.00000000E+00	 0.00000000E+00	 0.00000000E+00
					-2.52440000E-04	-3.76577000E-04	-1.09583000E-03
					-2.05143000E-04	-1.78737000E-03	-1.31788000E-03
					 5.53329000E-06	-1.05402000E-02	-5.33191000E-05
					-1.24112000E-05	-1.07460000E-02	 5.71383000E-03
					 1.58283000E-05	-1.03451000E-02	-5.27674000E-05
					 3.17881000E-04	-1.06269000E-02	 5.61982000E-03
					-1.27428000E-05	-5.09775000E-03	-1.19055000E-05
					 6.37912000E-07	-1.06012000E-02	 2.70694000E-03
					-4.29395000E-04	-5.33074000E-03	 4.22118000E-03
					 2.12263000E-06	-1.04730000E-02	-3.36686000E-05
					 1.60780000E-04	-1.06905000E-02	 5.75490000E-03
					 2.37653000E-05	-5.26648000E-03	-2.00488000E-05
					 1.82394000E-04	-1.04398000E-02	 2.74698000E-03
					 6.44416000E-05	-5.52173000E-03	 4.18758000E-03
					-1.74328000E-05	-1.06255000E-02	-5.75136000E-03
					-2.74567000E-04	-1.05192000E-02	-5.81972000E-03
					 4.78413000E-04	-5.28494000E-03	-4.18703000E-03
					 3.55298000E-05	-1.05138000E-02	-2.78893000E-03
					-1.41182000E-04	-1.05978000E-02	-5.82469000E-03
					-4.55912000E-05	-5.44274000E-03	-4.24023000E-03
					-1.56445000E-04	-1.03947000E-02	-2.90275000E-03
					 1.63081000E-05	-9.86643000E-03	-1.42614000E-04
					 7.39061000E-04	-1.00742000E-02	 5.66677000E-03
					 2.82880000E-05	-1.01526000E-02	-7.59046000E-05
					 5.09466000E-04	-1.03953000E-02	 5.58785000E-03
					 3.04494000E-05	-4.97580000E-03	-6.21755000E-05
					 3.53999000E-04	-9.91918000E-03	 2.77035000E-03
					 4.80782000E-04	-5.25839000E-03	 4.16486000E-03
					-7.37214000E-04	-9.94421000E-03	-5.80333000E-03
					-5.18318000E-04	-1.03135000E-02	-5.74541000E-03
					-4.69153000E-04	-5.25005000E-03	-4.24715000E-03
					-3.41181000E-04	-9.84021000E-03	-2.94336000E-03
					 8.39327000E-05	-2.49517000E-02	-1.10380000E-04
					 7.08970000E-04	-2.52360000E-02	 7.90000000E-03
					 4.51161000E-05	-2.41675000E-02	-6.53525000E-05
					 1.06522000E-03	-2.44174000E-02	 7.84487000E-03
					 6.98732000E-06	-1.72151000E-02	-5.81892000E-05
					 3.52056000E-04	-2.50458000E-02	 3.83756000E-03
					 3.75224000E-04	-1.74813000E-02	 6.77129000E-03
					 7.60753000E-05	-2.46514000E-02	-8.98378000E-05
					 8.78147000E-04	-2.48648000E-02	 7.90788000E-03
					 2.10233000E-05	-1.67095000E-02	-5.30949000E-05
					 5.34414000E-04	-2.42427000E-02	 3.88664000E-03
					 6.91928000E-04	-1.69685000E-02	 6.76482000E-03
					-6.80964000E-04	-2.51550000E-02	-8.00990000E-03
					-1.00267000E-03	-2.43191000E-02	-8.09447000E-03
					-3.64129000E-04	-1.74027000E-02	-6.90823000E-03
					-2.93187000E-04	-2.50285000E-02	-4.02364000E-03
					-8.47750000E-04	-2.47619000E-02	-8.12793000E-03
					-6.54962000E-04	-1.68222000E-02	-6.97346000E-03
					-4.60141000E-04	-2.41849000E-02	-4.06135000E-03
					 4.18750000E-05	-2.29939000E-02	-1.16046000E-04
					 1.39450000E-03	-2.31711000E-02	 7.87297000E-03
					 2.86990000E-05	-2.36027000E-02	-9.72606000E-05
					 1.24036000E-03	-2.38394000E-02	 7.79382000E-03
					 5.92695000E-05	-1.58848000E-02	-9.32926000E-05
					 7.01202000E-04	-2.30572000E-02	 3.97092000E-03
					 1.02933000E-03	-1.61070000E-02	 6.79506000E-03
					-1.24526000E-03	-2.30738000E-02	-8.00422000E-03
					-1.10558000E-03	-2.37296000E-02	-7.99350000E-03
					-9.85910000E-04	-1.59866000E-02	-6.95797000E-03
					-5.97142000E-04	-2.30129000E-02	-4.12481000E-03
					 8.75226000E-05	-4.36428000E-02	-3.36508000E-04
					 1.07452000E-03	-4.38234000E-02	 9.46825000E-03
					 6.27274000E-05	-4.24329000E-02	-2.55086000E-04
					 1.32911000E-03	-4.26411000E-02	 9.72653000E-03
					 5.37701000E-05	-3.39140000E-02	-2.06520000E-04
					 5.97080000E-04	-4.36973000E-02	 4.57620000E-03
					 9.70408000E-04	-3.41665000E-02	 8.79811000E-03
					 5.52510000E-05	-4.30661000E-02	-3.14750000E-04
					 1.19458000E-03	-4.32775000E-02	 9.57648000E-03
					 1.97403000E-05	-3.27971000E-02	-1.63447000E-04
					 7.08349000E-04	-4.25302000E-02	 4.67222000E-03
					 1.28783000E-03	-3.29908000E-02	 8.90195000E-03
					-1.03180000E-03	-4.36683000E-02	-1.02477000E-02
					-1.23038000E-03	-4.24460000E-02	-1.01643000E-02
					-9.76511000E-04	-3.40312000E-02	-9.18452000E-03
					-4.48125000E-04	-4.36021000E-02	-5.25686000E-03
					-1.11382000E-03	-4.30773000E-02	-1.01736000E-02
					-1.24045000E-03	-3.28637000E-02	-9.19830000E-03
					-5.69352000E-04	-4.24298000E-02	-5.17339000E-03
					 8.11735000E-05	-4.10741000E-02	-8.63934000E-05
					 1.67139000E-03	-4.11768000E-02	 9.68608000E-03
					 7.86761000E-05	-4.18036000E-02	-1.70482000E-04
					 1.47931000E-03	-4.19941000E-02	 9.72328000E-03
					 1.93352000E-05	-3.14015000E-02	-1.03079000E-04
					 8.42493000E-04	-4.10976000E-02	 4.67695000E-03
					 1.65163000E-03	-3.15841000E-02	 8.88864000E-03
					-1.50997000E-03	-4.09999000E-02	-1.00346000E-02
					-1.36513000E-03	-4.17898000E-02	-1.01307000E-02
					-1.56506000E-03	-3.13821000E-02	-9.11779000E-03
					-6.77552000E-04	-4.10191000E-02	-5.00410000E-03
					 6.76959000E-05	-6.44554000E-02	-5.62658000E-04
					 7.67085000E-04	-6.45141000E-02	 9.92509000E-03
					 9.17815000E-05	-6.37554000E-02	-5.51429000E-04
					 7.61246000E-04	-6.38816000E-02	 9.91333000E-03
					 1.19316000E-04	-5.38464000E-02	-4.71519000E-04
					 4.25110000E-04	-6.45211000E-02	 4.66743000E-03
					 9.30396000E-04	-5.39830000E-02	 9.90868000E-03
					 7.49503000E-05	-6.40470000E-02	-5.46142000E-04
					 7.98061000E-04	-6.41887000E-02	 9.86670000E-03
					 1.08838000E-04	-5.29904000E-02	-4.01800000E-04
					 4.03448000E-04	-6.38009000E-02	 4.68403000E-03
					 1.03225000E-03	-5.30974000E-02	 1.00138000E-02
					-4.23117000E-04	-6.41485000E-02	-1.10485000E-02
					-5.64658000E-04	-6.36390000E-02	-1.09928000E-02
					-6.71217000E-04	-5.37299000E-02	-1.08251000E-02
					-2.47881000E-04	-6.43299000E-02	-5.78279000E-03
					-5.07173000E-04	-6.39029000E-02	-1.10061000E-02
					-8.25529000E-04	-5.29388000E-02	-1.07524000E-02
					-2.38714000E-04	-6.37026000E-02	-5.72703000E-03
					 1.73800000E-05	-6.31818000E-02	-5.19158000E-04
					 5.32292000E-04	-6.33425000E-02	 1.00085000E-02
					 7.09810000E-05	-6.34368000E-02	-5.33650000E-04
					 6.37376000E-04	-6.35620000E-02	 1.00444000E-02
					 6.39636000E-05	-5.20038000E-02	-3.33095000E-04
					 3.51026000E-04	-6.32618000E-02	 4.68639000E-03
					 1.13737000E-03	-5.21593000E-02	 1.00448000E-02
					-4.50370000E-04	-6.30505000E-02	-1.09359000E-02
					-5.40664000E-04	-6.33006000E-02	-1.10200000E-02
					-9.42151000E-04	-5.19225000E-02	-1.06699000E-02
					-2.09107000E-04	-6.30918000E-02	-5.60690000E-03
					 8.07641000E-05	-8.52049000E-02	-7.75477000E-04
					 6.77534000E-04	-8.52183000E-02	 9.50474000E-03
					 1.00023000E-04	-8.45057000E-02	-6.37486000E-04
					 8.34073000E-04	-8.46192000E-02	 9.57410000E-03
					 7.12014000E-05	-7.48248000E-02	-6.18943000E-04
					 4.56034000E-04	-8.51980000E-02	 4.37439000E-03
					 6.03961000E-04	-7.48665000E-02	 9.69995000E-03
					 9.85260000E-05	-8.48882000E-02	-7.39251000E-04
					 7.39822000E-04	-8.50015000E-02	 9.59399000E-03
					 6.61146000E-05	-7.42177000E-02	-5.99657000E-04
					 4.76847000E-04	-8.45791000E-02	 4.45375000E-03
					 6.77091000E-04	-7.43073000E-02	 9.72572000E-03
					-7.96874000E-04	-8.52818000E-02	-1.09543000E-02
					-6.16877000E-04	-8.44008000E-02	-1.08688000E-02
					-5.52029000E-04	-7.47145000E-02	-1.09954000E-02
					-2.87002000E-04	-8.52517000E-02	-5.86890000E-03
					-7.12541000E-04	-8.47818000E-02	-1.09470000E-02
					-5.30984000E-04	-7.40701000E-02	-1.09602000E-02
					-2.57457000E-04	-8.44485000E-02	-5.76337000E-03
					 1.83144000E-04	-8.38275000E-02	-5.37455000E-04
					 9.37532000E-04	-8.37581000E-02	 9.66160000E-03
					 1.30162000E-04	-8.41777000E-02	-6.02238000E-04
					 8.97939000E-04	-8.42352000E-02	 9.57127000E-03
					 8.46926000E-05	-7.36076000E-02	-5.08200000E-04
					 4.81767000E-04	-8.38040000E-02	 4.57753000E-03
					 6.59924000E-04	-7.37152000E-02	 9.80786000E-03
					-4.28967000E-04	-8.38067000E-02	-1.07991000E-02
					-4.99707000E-04	-8.40746000E-02	-1.08347000E-02
					-4.50277000E-04	-7.35444000E-02	-1.08894000E-02
					-1.94284000E-04	-8.38243000E-02	-5.72097000E-03
					 9.71970000E-05	-1.05868000E-01	-9.65601000E-04
					 1.29842000E-03	-1.06133000E-01	 9.14841000E-03
					 1.05836000E-04	-1.04937000E-01	-9.72948000E-04
					 1.05929000E-03	-1.04979000E-01	 9.13583000E-03
					 1.93017000E-04	-9.55878000E-02	-8.70166000E-04
					 5.72109000E-04	-1.06022000E-01	 4.05200000E-03
					 9.81995000E-04	-9.56664000E-02	 9.31161000E-03
					 1.11714000E-04	-1.05363000E-01	-9.48335000E-04
					 1.18560000E-03	-1.05443000E-01	 9.22633000E-03
					 1.63625000E-04	-9.47965000E-02	-7.80128000E-04
					 5.57260000E-04	-1.04956000E-01	 4.07186000E-03
					 9.85291000E-04	-9.48813000E-02	 9.37595000E-03
					-4.80196000E-04	-1.05646000E-01	-1.11040000E-02
					-7.02054000E-04	-1.04895000E-01	-1.10168000E-02
					-6.73972000E-04	-9.54972000E-02	-1.09855000E-02
					-2.98226000E-04	-1.05750000E-01	-6.04225000E-03
					-5.85700000E-04	-1.05321000E-01	-1.10920000E-02
					-6.53044000E-04	-9.46854000E-02	-1.08905000E-02
					-2.93679000E-04	-1.04912000E-01	-5.98962000E-03
					 1.40561000E-04	-1.04097000E-01	-9.33124000E-04
					 8.05696000E-04	-1.04217000E-01	 9.17287000E-03
					 1.15844000E-04	-1.04511000E-01	-9.14366000E-04
					 9.09627000E-04	-1.04563000E-01	 9.23879000E-03
					 1.06326000E-04	-9.39582000E-02	-7.78229000E-04
					 5.71835000E-04	-1.04143000E-01	 4.08857000E-03
					 1.03674000E-03	-9.39587000E-02	 9.39916000E-03
					-1.10699000E-03	-1.03709000E-01	-1.10813000E-02
					-9.05076000E-04	-1.04385000E-01	-1.10446000E-02
					-6.93979000E-04	-9.38468000E-02	-1.08892000E-02
					-3.41155000E-04	-1.03925000E-01	-6.04979000E-03
					-4.61992000E-04	-1.25802000E-01	-7.63583000E-04
					 6.53820000E-04	-1.25591000E-01	 8.93733000E-03
					 2.90496000E-04	-1.25109000E-01	-1.26388000E-03
					 8.68465000E-04	-1.24758000E-01	 8.45255000E-03
					 1.60496000E-04	-1.15822000E-01	-9.07238000E-04
					 1.07808000E-04	-1.25645000E-01	 4.20630000E-03
					 1.14053000E-03	-1.16159000E-01	 8.89934000E-03
					-8.69597000E-05	-1.25479000E-01	-1.13146000E-03
					 7.51192000E-04	-1.25141000E-01	 8.59847000E-03
					 1.54234000E-04	-1.15028000E-01	-1.16022000E-03
					 5.88632000E-04	-1.24946000E-01	 3.70784000E-03
					 9.05000000E-04	-1.15106000E-01	 8.84289000E-03
					-7.77334000E-04	-1.26088000E-01	-1.14193000E-02
					-6.57614000E-04	-1.25106000E-01	-1.13853000E-02
					-5.21644000E-04	-1.15558000E-01	-1.12001000E-02
					-5.80839000E-04	-1.25969000E-01	-6.03411000E-03
					-7.31534000E-04	-1.25655000E-01	-1.14366000E-02
					-6.29058000E-04	-1.14947000E-01	-1.12429000E-02
					-1.97703000E-04	-1.25133000E-01	-6.28276000E-03
					 8.52238000E-04	-1.24339000E-01	-8.06174000E-04
					 1.28220000E-03	-1.24469000E-01	 9.34756000E-03
					 5.83859000E-04	-1.24723000E-01	-1.17591000E-03
					 1.10678000E-03	-1.24556000E-01	 8.84104000E-03
					 1.34212000E-04	-1.14222000E-01	-8.92865000E-04
					 1.00882000E-03	-1.24399000E-01	 4.29050000E-03
					 7.82239000E-04	-1.14460000E-01	 9.09374000E-03
					-5.57643000E-04	-1.24331000E-01	-1.13802000E-02
					-5.97363000E-04	-1.24740000E-01	-1.14480000E-02
					-7.55616000E-04	-1.13981000E-01	-1.11606000E-02
					 6.27354000E-05	-1.24317000E-01	-6.00619000E-03
					 0.00000000E+00	 0.00000000E+00	 0.00000000E+00
					 0.00000000E+00	 0.00000000E+00	 0.00000000E+00
					 6.01208000E-05	-1.35131000E-02	-1.59854000E-04
					-3.64856000E-03	-1.44818000E-02	 1.36905000E-02
					 0.00000000E+00	 0.00000000E+00	 0.00000000E+00
					 0.00000000E+00	 0.00000000E+00	 0.00000000E+00
					 1.37780000E-04	-1.63933000E-02	-2.60345000E-04
					-1.98536000E-03	-1.72968000E-02	 1.38272000E-02
					 0.00000000E+00	 0.00000000E+00	 0.00000000E+00
					 5.44926000E-05	-2.69952000E-03	-4.59417000E-05
					-1.81074000E-03	-1.36606000E-02	 6.74746000E-03
					-2.97400000E-03	-3.91196000E-03	 7.09190000E-03
					 0.00000000E+00	 0.00000000E+00	 0.00000000E+00
					 0.00000000E+00	 0.00000000E+00	 0.00000000E+00
					 1.15063000E-04	-1.51900000E-02	-2.18916000E-04
					-2.80587000E-03	-1.61688000E-02	 1.35635000E-02
					 0.00000000E+00	 0.00000000E+00	 0.00000000E+00
					 3.81249000E-05	-4.55467000E-03	-7.38447000E-05
					-9.36903000E-04	-1.65212000E-02	 6.55415000E-03
					-9.28634000E-04	-5.84415000E-03	 6.97431000E-03
					 0.00000000E+00	 0.00000000E+00	 0.00000000E+00
					 3.80727000E-03	-1.41223000E-02	-1.41121000E-02
					 0.00000000E+00	 0.00000000E+00	 0.00000000E+00
					 2.14444000E-03	-1.68954000E-02	-1.43645000E-02
					 0.00000000E+00	 0.00000000E+00	 0.00000000E+00
					 3.00999000E-03	-3.82031000E-03	-7.24523000E-03
					 1.95665000E-03	-1.35231000E-02	-7.18414000E-03
					 0.00000000E+00	 0.00000000E+00	 0.00000000E+00
					 2.96265000E-03	-1.57661000E-02	-1.40059000E-02
					 0.00000000E+00	 0.00000000E+00	 0.00000000E+00
					 9.51886000E-04	-5.68042000E-03	-7.14011000E-03
					 1.15111000E-03	-1.63153000E-02	-7.09693000E-03
					 0.00000000E+00	 0.00000000E+00	 0.00000000E+00
					 0.00000000E+00	 0.00000000E+00	 0.00000000E+00
					 1.87668000E-04	-1.75234000E-02	-2.70245000E-04
					-3.17446000E-04	-1.84361000E-02	 1.35362000E-02
					 0.00000000E+00	 0.00000000E+00	 0.00000000E+00
					 0.00000000E+00	 0.00000000E+00	 0.00000000E+00
					 1.45582000E-04	-1.72054000E-02	-2.86570000E-04
					-1.15113000E-03	-1.81590000E-02	 1.38581000E-02
					 0.00000000E+00	 0.00000000E+00	 0.00000000E+00
					-4.46634000E-06	-4.61015000E-03	-7.60359000E-05
					-9.90890000E-05	-1.76611000E-02	 6.28522000E-03
					 1.18762000E-03	-5.78010000E-03	 7.04934000E-03
					 0.00000000E+00	 0.00000000E+00	 0.00000000E+00
					 3.62780000E-04	-1.78878000E-02	-1.42077000E-02
					 0.00000000E+00	 0.00000000E+00	 0.00000000E+00
					 1.29828000E-03	-1.77198000E-02	-1.44696000E-02
					 0.00000000E+00	 0.00000000E+00	 0.00000000E+00
					-1.17541000E-03	-5.58998000E-03	-7.25956000E-03
					 3.08474000E-04	-1.74086000E-02	-6.83678000E-03
					 1.99051000E-04	-5.09272000E-02	-9.51736000E-04
					-5.93590000E-03	-5.23355000E-02	 2.32114000E-02
					 2.88268000E-04	-5.64971000E-02	-1.13372000E-03
					-4.43248000E-03	-5.76716000E-02	 2.29533000E-02
					 2.13515000E-04	-2.96380000E-02	-4.98226000E-04
					-2.86367000E-03	-5.15174000E-02	 1.12536000E-02
					-4.68728000E-03	-3.08742000E-02	 1.89462000E-02
					 2.33384000E-04	-5.39170000E-02	-1.04576000E-03
					-5.18418000E-03	-5.51462000E-02	 2.29148000E-02
					 2.23856000E-04	-3.38249000E-02	-6.01467000E-04
					-2.06114000E-03	-5.69312000E-02	 1.08446000E-02
					-3.19924000E-03	-3.50521000E-02	 1.88441000E-02
					 6.45166000E-03	-5.10121000E-02	-2.50872000E-02
					 5.08395000E-03	-5.64773000E-02	-2.54736000E-02
					 5.18621000E-03	-3.00024000E-02	-1.99047000E-02
					 3.32410000E-03	-5.08144000E-02	-1.31037000E-02
					 5.77245000E-03	-5.39509000E-02	-2.50997000E-02
					 3.63799000E-03	-3.42278000E-02	-2.01813000E-02
					 2.70768000E-03	-5.63511000E-02	-1.31940000E-02
					 3.81800000E-04	-6.05863000E-02	-1.33174000E-03
					-3.08543000E-03	-6.18361000E-02	 2.28818000E-02
					 3.61273000E-04	-5.87003000E-02	-1.21234000E-03
					-3.77556000E-03	-5.99572000E-02	 2.31341000E-02
					 2.27139000E-04	-3.64765000E-02	-6.90011000E-04
					-1.38531000E-03	-6.10613000E-02	 1.04941000E-02
					-1.59477000E-03	-3.75993000E-02	 1.87427000E-02
					 3.90209000E-03	-6.06804000E-02	-2.54629000E-02
					 4.46150000E-03	-5.87039000E-02	-2.57561000E-02
					 2.08099000E-03	-3.68538000E-02	-2.01627000E-02
					 2.10076000E-03	-6.04995000E-02	-1.30821000E-02
					 4.12656000E-04	-1.06712000E-01	-2.45110000E-03
					-7.86626000E-03	-1.08053000E-01	 2.90161000E-02
					 5.93058000E-04	-1.14530000E-01	-2.74865000E-03
					-6.86432000E-03	-1.15915000E-01	 2.86350000E-02
					 3.47367000E-04	-7.69689000E-02	-1.60390000E-03
					-3.66550000E-03	-1.07276000E-01	 1.32849000E-02
					-6.99400000E-03	-7.82663000E-02	 2.66715000E-02
					 5.14169000E-04	-1.10687000E-01	-2.59613000E-03
					-7.36398000E-03	-1.12143000E-01	 2.86150000E-02
					 4.05633000E-04	-8.36653000E-02	-1.86416000E-03
					-3.17760000E-03	-1.15128000E-01	 1.28037000E-02
					-5.72342000E-03	-8.50653000E-02	 2.63705000E-02
					 8.75703000E-03	-1.05933000E-01	-3.37693000E-02
					 8.15853000E-03	-1.13939000E-01	-3.43349000E-02
					 7.73186000E-03	-7.65963000E-02	-2.98837000E-02
					 4.53086000E-03	-1.06227000E-01	-1.81614000E-02
					 8.43514000E-03	-1.10047000E-01	-3.39132000E-02
					 6.62698000E-03	-8.33975000E-02	-3.02457000E-02
					 4.35945000E-03	-1.14159000E-01	-1.83814000E-02
					 6.71330000E-04	-1.21612000E-01	-3.22670000E-03
					-6.03901000E-03	-1.23223000E-01	 2.82907000E-02
					 6.28398000E-04	-1.18211000E-01	-3.00200000E-03
					-6.43896000E-03	-1.19554000E-01	 2.87041000E-02
					 4.97890000E-04	-8.92816000E-02	-2.13540000E-03
					-2.63168000E-03	-1.22278000E-01	 1.21316000E-02
					-4.56916000E-03	-9.06435000E-02	 2.61074000E-02
					 7.54030000E-03	-1.21023000E-01	-3.45644000E-02
					 7.85964000E-03	-1.17500000E-01	-3.47374000E-02
					 5.57631000E-03	-8.90311000E-02	-3.03817000E-02
					 4.06714000E-03	-1.21255000E-01	-1.84044000E-02
					 8.56792000E-04	-1.72827000E-01	-4.69744000E-03
					-8.80872000E-03	-1.74236000E-01	 2.97378000E-02