<?xml version="1.0"?>
<VTKFile type="UnstructuredGrid" version="0.1" byte_order="LittleEndian">
	<UnstructuredGrid>
		<Piece NumberOfPoints="522" NumberOfCells="64">
			<Points>
				<DataArray type="Float64" NumberOfComponents="3" format="ascii">
					 1.00000000E+00	 1.00000000E+00	-5.96046000E-08
					 1.00000000E+00	 5.00000000E-01	-5.96046000E-08
					 1.00000000E+00	 5.00000000E-01	 1.00000000E+00
					 1.00000000E+00	 1.00000000E+00	 1.00000000E+00
					 5.00000000E-01	 1.00000000E+00	-5.96046000E-08
					 5.00000000E-01	 5.00000000E-01	-5.96046000E-08
					 5.00000000E-01	 5.00000000E-01	 1.00000000E+00
					 5.00000000E-01	 1.00000000E+00	 1.00000000E+00
					 1.00000000E+00	 7.50000000E-01	-5.96046000E-08
					 1.00000000E+00	 5.00000000E-01	 5.00000000E-01
					 1.00000000E+00	 7.50000000E-01	 1.00000000E+00
					 1.00000000E+00	 1.00000000E+00	 5.00000000E-01
					 7.50000000E-01	 1.00000000E+00	-5.96046000E-08
					 7.50000000E-01	 5.00000000E-01	-5.96046000E-08
					 7.50000000E-01	 5.00000000E-01	 1.00000000E+00
					 7.50000000E-01	 1.00000000E+00	 1.00000000E+00
					 5.00000000E-01	 7.50000000E-01	-5.96046000E-08
					 5.00000000E-01	 5.00000000E-01	 5.00000000E-01
					 5.00000000E-01	 7.50000000E-01	 1.00000000E+00
					 5.00000000E-01	 1.00000000E+00	 5.00000000E-01
					 1.00000000E+00	-1.49012000E-08	-5.96046000E-08
					 1.00000000E+00	-1.49012000E-08	 1.00000000E+00
					 5.00000000E-01	-1.49012000E-08	-5.96046000E-08
					 5.00000000E-01	-1.49012000E-08	 1.00000000E+00
					 1.00000000E+00	 2.50000000E-01	-5.96046000E-08
					 1.00000000E+00	-1.49012000E-08	 5.00000000E-01
					 1.00000000E+00	 2.50000000E-01	 1.00000000E+00
					 7.50000000E-01	-1.49012000E-08	-5.96046000E-08
					 7.50000000E-01	-1.49012000E-08	 1.00000000E+00
					 5.00000000E-01	 2.50000000E-01	-5.96046000E-08
					 5.00000000E-01	-1.49012000E-08	 5.00000000E-01
					 5.00000000E-01	 2.50000000E-01	 1.00000000E+00
					-7.45058000E-09	 1.00000000E+00	-5.96046000E-08
					-7.45058000E-09	 5.00000000E-01	-5.96046000E-08
					-7.45058000E-09	 5.00000000E-01	 1.00000000E+00
					-7.45058000E-09	 1.00000000E+00	 1.00000000E+00
					 2.50000000E-01	 1.00000000E+00	-5.96046000E-08
					 2.50000000E-01	 5.00000000E-01	-5.96046000E-08
					 2.50000000E-01	 5.00000000E-01	 1.00000000E+00
					 2.50000000E-01	 1.00000000E+00	 1.00000000E+00
					-7.45058000E-09	 7.50000000E-01	-5.96046000E-08
					-7.45058000E-09	 5.00000000E-01	 5.00000000E-01
					-7.45058000E-09	 7.50000000E-01	 1.00000000E+00
					-7.45058000E-09	 1.00000000E+00	 5.00000000E-01
					-7.45058000E-09	-1.49012000E-08	-5.96046000E-08
					-7.45058000E-09	-1.49012000E-08	 1.00000000E+00
					 2.50000000E-01	-1.49012000E-08	-5.96046000E-08
					 2.50000000E-01	-1.49012000E-08	 1.00000000E+00
					-7.45058000E-09	 2.50000000E-01	-5.96046000E-08
					-7.45058000E-09	-1.49012000E-08	 5.00000000E-01
					-7.45058000E-09	 2.50000000E-01	 1.00000000E+00
					 1.00000000E+00	 5.00000000E-01	 2.00000000E+00
					 1.00000000E+00	 1.00000000E+00	 2.00000000E+00
					 5.00000000E-01	 5.00000000E-01	 2.00000000E+00
					 5.00000000E-01	 1.00000000E+00	 2.00000000E+00
					 1.00000000E+00	 5.00000000E-01	 1.50000000E+00
					 1.00000000E+00	 7.50000000E-01	 2.00000000E+00
					 1.00000000E+00	 1.00000000E+00	 1.50000000E+00
					 7.50000000E-01	 5.00000000E-01	 2.00000000E+00
					 7.50000000E-01	 1.00000000E+00	 2.00000000E+00
					 5.00000000E-01	 5.00000000E-01	 1.50000000E+00
					 5.00000000E-01	 7.50000000E-01	 2.00000000E+00
					 5.00000000E-01	 1.00000000E+00	 1.50000000E+00
					 1.00000000E+00	-1.49012000E-08	 2.00000000E+00
					 5.00000000E-01	-1.49012000E-08	 2.00000000E+00
					 1.00000000E+00	-1.49012000E-08	 1.50000000E+00
					 1.00000000E+00	 2.50000000E-01	 2.00000000E+00
					 7.50000000E-01	-1.49012000E-08	 2.00000000E+00
					 5.00000000E-01	-1.49012000E-08	 1.50000000E+00
					 5.00000000E-01	 2.50000000E-01	 2.00000000E+00
					-7.45058000E-09	 5.00000000E-01	 2.00000000E+00
					-7.45058000E-09	 1.00000000E+00	 2.00000000E+00
					 2.50000000E-01	 5.00000000E-01	 2.00000000E+00
					 2.50000000E-01	 1.00000000E+00	 2.00000000E+00
					-7.45058000E-09	 5.00000000E-01	 1.50000000E+00
					-7.45058000E-09	 7.50000000E-01	 2.00000000E+00
					-7.45058000E-09	 1.00000000E+00	 1.50000000E+00
					-7.45058000E-09	-1.49012000E-08	 2.00000000E+00
					 2.50000000E-01	-1.49012000E-08	 2.00000000E+00
					-7.45058000E-09	-1.49012000E-08	 1.50000000E+00
					-7.45058000E-09	 2.50000000E-01	 2.00000000E+00
					 1.00000000E+00	 5.00000000E-01	 3.00000000E+00
					 1.00000000E+00	 1.00000000E+00	 3.00000000E+00
					 5.00000000E-01	 5.00000000E-01	 3.00000000E+00
					 5.00000000E-01	 1.00000000E+00	 3.00000000E+00
					 1.00000000E+00	 5.00000000E-01	 2.50000000E+00
					 1.00000000E+00	 7.50000000E-01	 3.00000000E+00
					 1.00000000E+00	 1.00000000E+00	 2.50000000E+00
					 7.50000000E-01	 5.00000000E-01	 3.00000000E+00
					 7.50000000E-01	 1.00000000E+00	 3.00000000E+00
					 5.00000000E-01	 5.00000000E-01	 2.50000000E+00
					 5.00000000E-01	 7.50000000E-01	 3.00000000E+00
					 5.00000000E-01	 1.00000000E+00	 2.50000000E+00
					 1.00000000E+00	-1.49012000E-08	 3.00000000E+00
					 5.00000000E-01	-1.49012000E-08	 3.00000000E+00
					 1.00000000E+00	-1.49012000E-08	 2.50000000E+00
					 1.00000000E+00	 2.50000000E-01	 3.00000000E+00
					 7.50000000E-01	-1.49012000E-08	 3.00000000E+00
					 5.00000000E-01	-1.49012000E-08	 2.50000000E+00
					 5.00000000E-01	 2.50000000E-01	 3.00000000E+00
					-7.45058000E-09	 5.00000000E-01	 3.00000000E+00
					-7.45058000E-09	 1.00000000E+00	 3.00000000E+00
					 2.50000000E-01	 5.00000000E-01	 3.00000000E+00
					 2.50000000E-01	 1.00000000E+00	 3.00000000E+00
					-7.45058000E-09	 5.00000000E-01	 2.50000000E+00
					-7.45058000E-09	 7.50000000E-01	 3.00000000E+00
					-7.45058000E-09	 1.00000000E+00	 2.50000000E+00
					-7.45058000E-09	-1.49012000E-08	 3.00000000E+00
					 2.50000000E-01	-1.49012000E-08	 3.00000000E+00
					-7.45058000E-09	-1.49012000E-08	 2.50000000E+00
					-7.45058000E-09	 2.50000000E-01	 3.00000000E+00
					 1.00000000E+00	 5.00000000E-01	 4.00000000E+00
					 1.00000000E+00	 1.00000000E+00	 4.00000000E+00
					 5.00000000E-01	 5.00000000E-01	 4.00000000E+00
					 5.00000000E-01	 1.00000000E+00	 4.00000000E+00
					 1.00000000E+00	 5.00000000E-01	 3.50000000E+00
					 1.00000000E+00	 7.50000000E-01	 4.00000000E+00
					 1.00000000E+00	 1.00000000E+00	 3.50000000E+00
					 7.50000000E-01	 5.00000000E-01	 4.00000000E+00
					 7.50000000E-01	 1.00000000E+00	 4.00000000E+00
					 5.00000000E-01	 5.00000000E-01	 3.50000000E+00
					 5.00000000E-01	 7.50000000E-01	 4.00000000E+00
					 5.00000000E-01	 1.00000000E+00	 3.50000000E+00
					 1.00000000E+00	-1.49012000E-08	 4.00000000E+00
					 5.00000000E-01	-1.49012000E-08	 4.00000000E+00
					 1.00000000E+00	-1.49012000E-08	 3.50000000E+00
					 1.00000000E+00	 2.50000000E-01	 4.00000000E+00
					 7.50000000E-01	-1.49012000E-08	 4.00000000E+00
					 5.00000000E-01	-1.49012000E-08	 3.50000000E+00
					 5.00000000E-01	 2.50000000E-01	 4.00000000E+00
					-7.45058000E-09	 5.00000000E-01	 4.00000000E+00
					-7.45058000E-09	 1.00000000E+00	 4.00000000E+00
					 2.50000000E-01	 5.00000000E-01	 4.00000000E+00
					 2.50000000E-01	 1.00000000E+00	 4.00000000E+00
					-7.45058000E-09	 5.00000000E-01	 3.50000000E+00
					-7.45058000E-09	 7.50000000E-01	 4.00000000E+00
					-7.45058000E-09	 1.00000000E+00	 3.50000000E+00
					-7.45058000E-09	-1.49012000E-08	 4.00000000E+00
					 2.50000000E-01	-1.49012000E-08	 4.00000000E+00
					-7.45058000E-09	-1.49012000E-08	 3.50000000E+00
					-7.45058000E-09	 2.50000000E-01	 4.00000000E+00
					 1.00000000E+00	 5.00000000E-01	 5.00000000E+00
					 1.00000000E+00	 1.00000000E+00	 5.00000000E+00
					 5.00000000E-01	 5.00000000E-01	 5.00000000E+00
					 5.00000000E-01	 1.00000000E+00	 5.00000000E+00
					 1.00000000E+00	 5.00000000E-01	 4.50000000E+00
					 1.00000000E+00	 7.50000000E-01	 5.00000000E+00
					 1.00000000E+00	 1.00000000E+00	 4.50000000E+00
					 7.50000000E-01	 5.00000000E-01	 5.00000000E+00
					 7.50000000E-01	 1.00000000E+00	 5.00000000E+00
					 5.00000000E-01	 5.00000000E-01	 4.50000000E+00
					 5.00000000E-01	 7.50000000E-01	 5.00000000E+00
					 5.00000000E-01	 1.00000000E+00	 4.50000000E+00
					 1.00000000E+00	-1.49012000E-08	 5.00000000E+00
					 5.00000000E-01	-1.49012000E-08	 5.00000000E+00
					 1.00000000E+00	-1.49012000E-08	 4.50000000E+00
					 1.00000000E+00	 2.50000000E-01	 5.00000000E+00
					 7.50000000E-01	-1.49012000E-08	 5.00000000E+00
					 5.00000000E-01	-1.49012000E-08	 4.50000000E+00
					 5.00000000E-01	 2.50000000E-01	 5.00000000E+00
					-7.45058000E-09	 5.00000000E-01	 5.00000000E+00
					-7.45058000E-09	 1.00000000E+00	 5.00000000E+00
					 2.50000000E-01	 5.00000000E-01	 5.00000000E+00
					 2.50000000E-01	 1.00000000E+00	 5.00000000E+00
					-7.45058000E-09	 5.00000000E-01	 4.50000000E+00
					-7.45058000E-09	 7.50000000E-01	 5.00000000E+00
					-7.45058000E-09	 1.00000000E+00	 4.50000000E+00
					-7.45058000E-09	-1.49012000E-08	 5.00000000E+00
					 2.50000000E-01	-1.49012000E-08	 5.00000000E+00
					-7.45058000E-09	-1.49012000E-08	 4.50000000E+00
					-7.45058000E-09	 2.50000000E-01	 5.00000000E+00
					 1.00000000E+00	 5.00000000E-01	 6.00000000E+00
					 1.00000000E+00	 1.00000000E+00	 6.00000000E+00
					 5.00000000E-01	 5.00000000E-01	 6.00000000E+00
					 5.00000000E-01	 1.00000000E+00	 6.00000000E+00
					 1.00000000E+00	 5.00000000E-01	 5.50000000E+00
					 1.00000000E+00	 7.50000000E-01	 6.00000000E+00
					 1.00000000E+00	 1.00000000E+00	 5.50000000E+00
					 7.50000000E-01	 5.00000000E-01	 6.00000000E+00
					 7.50000000E-01	 1.00000000E+00	 6.00000000E+00
					 5.00000000E-01	 5.00000000E-01	 5.50000000E+00
					 5.00000000E-01	 7.50000000E-01	 6.00000000E+00
					 5.00000000E-01	 1.00000000E+00	 5.50000000E+00
					 1.00000000E+00	-1.49012000E-08	 6.00000000E+00
[...]
			<PointData>
				<DataArray type="Float32" Name="U" NumberOfComponents="3" ComponentName0="D1" ComponentName1="D2" ComponentName2="D3" format="ascii">
					 0.00000000E+00	 0.00000000E+00	 0.00000000E+00
					 0.00000000E+00	 0.00000000E+00	 0.00000000E+00
					 5.63039000E-06	 5.13912000E-03	-1.69107000E-05
					-2.94162000E-04	 5.31091000E-03	-3.75155000E-03
					 0.00000000E+00	 0.00000000E+00	 0.00000000E+00
					 0.00000000E+00	 0.00000000E+00	 0.00000000E+00
					 6.25990000E-06	 4.61770000E-03	-8.87194000E-06
					-7.36944000E-04	 4.80422000E-03	-3.79150000E-03
					 0.00000000E+00	 0.00000000E+00	 0.00000000E+00
					 2.34199000E-06	 1.51630000E-03	-4.69614000E-06
					-1.43784000E-04	 5.14405000E-03	-1.76162000E-03
					 1.91490000E-04	 1.81032000E-03	-1.96996000E-03
					 0.00000000E+00	 0.00000000E+00	 0.00000000E+00
					 0.00000000E+00	 0.00000000E+00	 0.00000000E+00
					 5.76320000E-06	 4.95559000E-03	-1.31933000E-05
					-5.18402000E-04	 5.13481000E-03	-3.83825000E-03
					 0.00000000E+00	 0.00000000E+00	 0.00000000E+00
					 1.49962000E-06	 1.37684000E-03	-1.52990000E-06
					-3.64760000E-04	 4.62671000E-03	-1.84030000E-03
					-3.86355000E-04	 1.68788000E-03	-1.91990000E-03
					 0.00000000E+00	 0.00000000E+00	 0.00000000E+00
					 3.02267000E-04	 5.34329000E-03	 3.71380000E-03
					 0.00000000E+00	 0.00000000E+00	 0.00000000E+00
					 7.48386000E-04	 4.83972000E-03	 3.76830000E-03
					 0.00000000E+00	 0.00000000E+00	 0.00000000E+00
					-1.89504000E-04	 1.82144000E-03	 1.95917000E-03
					 1.53987000E-04	 5.15900000E-03	 1.72686000E-03
					 0.00000000E+00	 0.00000000E+00	 0.00000000E+00
					 5.28166000E-04	 5.17008000E-03	 3.80674000E-03
					 0.00000000E+00	 0.00000000E+00	 0.00000000E+00
					 3.88002000E-04	 1.70155000E-03	 1.91558000E-03
					 3.77039000E-04	 4.64430000E-03	 1.82076000E-03
					 0.00000000E+00	 0.00000000E+00	 0.00000000E+00
					 0.00000000E+00	 0.00000000E+00	 0.00000000E+00
					 7.82497000E-06	 3.65391000E-03	 2.58124000E-06
					-1.17707000E-03	 3.82539000E-03	-3.73290000E-03
					 0.00000000E+00	 0.00000000E+00	 0.00000000E+00
					 0.00000000E+00	 0.00000000E+00	 0.00000000E+00
					 6.81948000E-06	 4.21386000E-03	-3.90888000E-06
					-9.54077000E-04	 4.39131000E-03	-3.70416000E-03
					 0.00000000E+00	 0.00000000E+00	 0.00000000E+00
					 2.11520000E-06	 7.41985000E-04	 4.54538000E-06
					-5.86390000E-04	 3.65827000E-03	-1.86750000E-03
					-9.36476000E-04	 1.05932000E-03	-1.96111000E-03
					 0.00000000E+00	 0.00000000E+00	 0.00000000E+00
					 1.19390000E-03	 3.86166000E-03	 3.73246000E-03
					 0.00000000E+00	 0.00000000E+00	 0.00000000E+00
					 9.67419000E-04	 4.42704000E-03	 3.69109000E-03
					 0.00000000E+00	 0.00000000E+00	 0.00000000E+00
					 9.40825000E-04	 1.07625000E-03	 1.96801000E-03
					 6.02537000E-04	 3.67694000E-03	 1.87074000E-03
					 8.81268000E-06	 1.63099000E-02	-7.50796000E-05
					-8.13570000E-04	 1.64413000E-02	-6.50883000E-03
					 9.85640000E-06	 1.53171000E-02	-6.51618000E-05
					-1.15471000E-03	 1.54445000E-02	-6.51239000E-03
					 9.80033000E-06	 1.01175000E-02	-3.91887000E-05
					-4.00166000E-04	 1.63387000E-02	-3.25290000E-03
					-6.18024000E-04	 1.03157000E-02	-5.22581000E-03
					 9.35062000E-06	 1.58537000E-02	-7.06679000E-05
					-9.84189000E-04	 1.59797000E-02	-6.52582000E-03
					 1.03052000E-05	 9.30492000E-03	-2.90823000E-05
					-5.73633000E-04	 1.53437000E-02	-3.26481000E-03
					-1.00459000E-03	 9.48843000E-03	-5.22953000E-03
					 8.30067000E-04	 1.65285000E-02	 6.35255000E-03
					 1.17391000E-03	 1.55326000E-02	 6.37608000E-03
					 6.34971000E-04	 1.03736000E-02	 5.14114000E-03
					 4.17332000E-04	 1.63812000E-02	 3.10129000E-03
					 1.00214000E-03	 1.60680000E-02	 6.37860000E-03
					 1.02459000E-03	 9.54810000E-03	 5.16493000E-03
					 5.93188000E-04	 1.53872000E-02	 3.13316000E-03
					 1.11148000E-05	 1.39814000E-02	-5.09414000E-05
					-1.51278000E-03	 1.40950000E-02	-6.48447000E-03
					 1.04934000E-05	 1.46870000E-02	-5.86070000E-05
					-1.33500000E-03	 1.48114000E-02	-6.49618000E-03
					 1.13275000E-05	 8.08847000E-03	-1.51551000E-05
					-7.48455000E-04	 1.39996000E-02	-3.24622000E-03
					-1.41318000E-03	 8.26308000E-03	-5.20190000E-03
					 1.53539000E-03	 1.41835000E-02	 6.37700000E-03
					 1.35582000E-03	 1.48996000E-02	 6.37317000E-03
					 1.43748000E-03	 8.32291000E-03	 5.16513000E-03
					 7.70946000E-04	 1.40435000E-02	 3.14316000E-03
					-6.70583000E-06	 3.17846000E-02	-1.94483000E-04
					-9.56578000E-04	 3.17966000E-02	-8.41652000E-03
					-6.07763000E-06	 3.07574000E-02	-1.87181000E-04
					-1.11080000E-03	 3.07675000E-02	-8.43746000E-03
					 3.07026000E-06	 2.35940000E-02	-1.26815000E-04
					-4.82267000E-04	 3.17688000E-02	-4.25346000E-03
					-9.17859000E-04	 2.36689000E-02	-7.60367000E-03
					-6.43728000E-06	 3.12930000E-02	-1.91334000E-04
					-1.03392000E-03	 3.13042000E-02	-8.42431000E-03
					 3.86692000E-06	 2.25408000E-02	-1.18072000E-04
					-5.58730000E-04	 3.07400000E-02	-4.25378000E-03
					-1.18371000E-03	 2.26109000E-02	-7.61648000E-03
					 9.42470000E-04	 3.19330000E-02	 8.02401000E-03
					 1.09812000E-03	 3.09057000E-02	 8.05981000E-03
					 9.23267000E-04	 2.37833000E-02	 7.34468000E-03
					 4.68635000E-04	 3.18353000E-02	 3.86376000E-03
					 1.02045000E-03	 3.14415000E-02	 8.03806000E-03
					 1.19104000E-03	 2.27265000E-02	 7.37512000E-03
					 5.46345000E-04	 3.08071000E-02	 3.87871000E-03
					-5.04226000E-06	 2.95757000E-02	-1.77330000E-04
					-1.27228000E-03	 2.95792000E-02	-8.39901000E-03
					-5.58277000E-06	 3.01880000E-02	-1.82481000E-04
					-1.19174000E-03	 3.01961000E-02	-8.45423000E-03
					 4.97700000E-06	 2.12194000E-02	-1.05381000E-04
					-6.37041000E-04	 2.95560000E-02	-4.19719000E-03
					-1.46252000E-03	 2.12803000E-02	-7.58200000E-03
					 1.26197000E-03	 2.97172000E-02	 8.04153000E-03
					 1.18007000E-03	 3.03354000E-02	 8.08614000E-03
					 1.47255000E-03	 2.13961000E-02	 7.36640000E-03
					 6.26723000E-04	 2.96220000E-02	 3.84203000E-03
					-2.76941000E-05	 4.91748000E-02	-3.53651000E-04
					-8.98438000E-04	 4.90591000E-02	-8.70375000E-03
					-2.83905000E-05	 4.83657000E-02	-3.45827000E-04
					-7.89626000E-04	 4.82429000E-02	-8.71637000E-03
					-1.80532000E-05	 4.04909000E-02	-2.72963000E-04
					-4.60555000E-04	 4.91340000E-02	-4.50600000E-03
					-9.50784000E-04	 4.04352000E-02	-8.76521000E-03
					-2.82238000E-05	 4.87553000E-02	-3.49816000E-04
					-8.43995000E-04	 4.86347000E-02	-8.69259000E-03
					-1.80775000E-05	 3.95532000E-02	-2.66233000E-04
					-4.08543000E-04	 4.83227000E-02	-4.48875000E-03
					-9.66779000E-04	 3.94926000E-02	-8.78867000E-03
					 8.41797000E-04	 4.91965000E-02	 7.99785000E-03
					 7.31342000E-04	 4.83832000E-02	 8.02655000E-03
					 9.13753000E-04	 4.05787000E-02	 8.21814000E-03
					 4.04783000E-04	 4.92021000E-02	 3.79877000E-03
					 7.86377000E-04	 4.87724000E-02	 7.99473000E-03
					 9.29730000E-04	 3.96384000E-02	 8.25564000E-03
					 3.51649000E-04	 4.83915000E-02	 3.79717000E-03
					-2.80300000E-05	 4.76540000E-02	-3.39659000E-04
					-6.79404000E-04	 4.75358000E-02	-8.68941000E-03
					-2.83545000E-05	 4.79949000E-02	-3.42137000E-04
					-7.34494000E-04	 4.78713000E-02	-8.74351000E-03
					-1.73936000E-05	 3.85942000E-02	-2.59179000E-04
					-3.55515000E-04	 4.76135000E-02	-4.43348000E-03
					-9.86084000E-04	 3.85332000E-02	-8.75095000E-03
					 6.21971000E-04	 4.76786000E-02	 8.01201000E-03
					 6.76463000E-04	 4.80143000E-02	 8.06145000E-03
					 9.50623000E-04	 3.86796000E-02	 8.23236000E-03
					 2.99907000E-04	 4.76820000E-02	 3.75378000E-03
					-2.66253000E-05	 6.47789000E-02	-4.91546000E-04
					-6.29375000E-04	 6.46450000E-02	-7.76115000E-03
					-2.72227000E-05	 6.42632000E-02	-4.76419000E-04
					-4.61768000E-04	 6.41263000E-02	-7.74225000E-03
					-3.11150000E-05	 5.73275000E-02	-4.28104000E-04
					-3.27322000E-04	 6.47334000E-02	-4.15820000E-03
					-7.76606000E-04	 5.71991000E-02	-8.28735000E-03
					-2.71485000E-05	 6.44992000E-02	-4.83398000E-04
					-5.45977000E-04	 6.43623000E-02	-7.72969000E-03
					-3.20279000E-05	 5.66701000E-02	-4.16918000E-04
					-2.45369000E-04	 6.42170000E-02	-4.12040000E-03
					-6.11709000E-04	 5.65358000E-02	-8.28295000E-03
					 5.74156000E-04	 6.47461000E-02	 6.78092000E-03
					 4.06089000E-04	 6.42319000E-02	 6.79274000E-03
					 7.12650000E-04	 5.73191000E-02	 7.43368000E-03
					 2.73840000E-04	 6.47845000E-02	 3.17638000E-03
					 4.89590000E-04	 6.44673000E-02	 6.76524000E-03
					 5.46297000E-04	 5.66597000E-02	 7.45133000E-03
					 1.89390000E-04	 6.42694000E-02	 3.16934000E-03
					-2.57126000E-05	 6.39112000E-02	-4.63418000E-04
					-2.86487000E-04	 6.37789000E-02	-7.73303000E-03
					-2.68223000E-05	 6.40661000E-02	-4.70023000E-04
					-3.75299000E-04	 6.39309000E-02	-7.75059000E-03
					-3.11508000E-05	 5.61702000E-02	-4.08321000E-04
					-1.59314000E-04	 6.38656000E-02	-4.09372000E-03
					-4.40315000E-04	 5.60434000E-02	-8.26785000E-03
					 2.33956000E-04	 6.38870000E-02	 6.80881000E-03
					 3.19988000E-04	 6.40372000E-02	 6.81329000E-03
					 3.75892000E-04	 5.61703000E-02	 7.45320000E-03
					 1.05121000E-04	 6.39197000E-02	 3.16988000E-03
					-6.29408000E-07	 7.81327000E-02	-5.95281000E-04
					-4.56064000E-04	 7.80223000E-02	-6.92790000E-03
					-1.69990000E-06	 7.77365000E-02	-5.66540000E-04
					-3.38539000E-04	 7.76311000E-02	-6.89946000E-03
					-1.64902000E-05	 7.16310000E-02	-5.44664000E-04
					-2.30369000E-04	 7.80923000E-02	-3.75505000E-03
					-4.99011000E-04	 7.15069000E-02	-7.31748000E-03
					-1.41183000E-06	 7.79198000E-02	-5.81771000E-04
					-3.95331000E-04	 7.78215000E-02	-6.91612000E-03
					-1.79174000E-05	 7.12114000E-02	-5.24881000E-04
					-1.62809000E-04	 7.76984000E-02	-3.73075000E-03
					-3.69369000E-04	 7.10933000E-02	-7.29118000E-03
					 4.52789000E-04	 7.80998000E-02	 5.73955000E-03
					 3.28683000E-04	 7.77114000E-02	 5.76904000E-03
					 4.64361000E-04	 7.15960000E-02	 6.22959000E-03
					 2.27285000E-04	 7.81320000E-02	 2.56390000E-03
					 3.89967000E-04	 7.78915000E-02	 5.75686000E-03
					 3.30871000E-04	 7.11840000E-02	 6.24456000E-03
					 1.62650000E-04	 7.77415000E-02	 2.59510000E-03
					-5.36857000E-06	 7.74714000E-02	-5.37774000E-04
					-2.04852000E-04	 7.73556000E-02	-6.86610000E-03
					-3.28383000E-06	 7.75886000E-02	-5.50377000E-04
					-2.68330000E-04	 7.74717000E-02	-6.88195000E-03
					-1.73594000E-05	 7.09300000E-02	-5.05824000E-04
					-9.79789000E-05	 7.74356000E-02	-3.70633000E-03
					-2.26790000E-04	 7.08129000E-02	-7.27588000E-03
					 1.99667000E-04	 7.74470000E-02	 5.79023000E-03
					 2.62942000E-04	 7.75626000E-02	 5.78335000E-03
					 1.91752000E-04	 7.09080000E-02	 6.26804000E-03
					 9.95075000E-05	 7.74807000E-02	 2.61913000E-03
					 7.46752000E-05	 9.00909000E-02	-6.80870000E-04
					-6.27523000E-04	 9.00236000E-02	-6.02033000E-03
					 8.08001000E-05	 8.95060000E-02	-6.38219000E-04
					-4.13300000E-04	 8.93757000E-02	-5.94749000E-03
					 3.23767000E-05	 8.43399000E-02	-6.43208000E-04
					-2.73611000E-04	 9.00795000E-02	-3.32932000E-03
					-4.99176000E-04	 8.42319000E-02	-6.49697000E-03
					 7.71647000E-05	 8.97675000E-02	-6.56793000E-04
					-5.27223000E-04	 8.96403000E-02	-6.01969000E-03
					 3.21697000E-05	 8.38908000E-02	-6.03471000E-04
					-1.95205000E-04	 8.94647000E-02	-3.28904000E-03
					-3.45706000E-04	 8.37770000E-02	-6.46403000E-03
					 7.50743000E-04	 9.00287000E-02	 4.64927000E-03
					 5.88095000E-04	 8.94322000E-02	 4.66620000E-03
					 5.58519000E-04	 8.42933000E-02	 5.21027000E-03
					 4.17106000E-04	 9.00781000E-02	 1.96738000E-03
					 6.69078000E-04	 8.97085000E-02	 4.69298000E-03
					 4.10330000E-04	 8.38522000E-02	 5.24965000E-03
					 3.40027000E-04	 8.94832000E-02	 2.02430000E-03
					 7.89890000E-05	 8.90954000E-02	-5.84667000E-04
					-2.25533000E-04	 8.89172000E-02	-5.88546000E-03
					 7.69421000E-05	 8.92837000E-02	-6.16529000E-04
					-3.35069000E-04	 8.91505000E-02	-5.88990000E-03
					 3.79914000E-05	 8.35946000E-02	-5.68854000E-04
					-9.93004000E-05	 8.90044000E-02	-3.23038000E-03
					-1.86293000E-04	 8.34871000E-02	-6.42082000E-03
					 4.28855000E-04	 8.89979000E-02	 4.68798000E-03
					 5.12652000E-04	 8.91934000E-02	 4.63530000E-03
					 2.43067000E-04	 8.35710000E-02	 5.28114000E-03
					 2.53022000E-04	 8.90482000E-02	 2.09255000E-03
					 3.44277000E-04	 1.00031000E-01	-8.57749000E-04
					-7.60918000E-04	 1.00072000E-01	-5.60140000E-03
					 3.24886000E-04	 9.87728000E-02	-6.74603000E-04
					-9.69531000E-04	 9.80990000E-02	-4.89186000E-03
					 1.32334000E-04	 9.52446000E-02	-7.64689000E-04
					-1.74930000E-04	 1.00064000E-01	-3.24039000E-03
					-8.34012000E-04	 9.52222000E-02	-5.68740000E-03
					 3.37703000E-04	 9.94611000E-02	-7.35805000E-04
					-8.50185000E-04	 9.92463000E-02	-5.33071000E-03
					 1.35218000E-04	 9.43338000E-02	-6.97372000E-04
					-1.32776000E-04	 9.84670000E-02	-2.94833000E-03
					-8.50871000E-04	 9.42653000E-02	-5.35236000E-03
					 1.13831000E-03	 1.00033000E-01	 4.03078000E-03
					 1.11962000E-03	 9.89666000E-02	 4.01796000E-03
					 9.82662000E-04	 9.52001000E-02	 4.21811000E-03
					 7.30442000E-04	 1.00021000E-01	 1.60637000E-03
					 1.13462000E-03	 9.95391000E-02	 4.05514000E-03
					 9.24782000E-04	 9.43397000E-02	 4.21101000E-03
					 6.85491000E-04	 9.89017000E-02	 1.70157000E-03
					 4.86024000E-05	 9.74054000E-02	-6.55964000E-04
					-1.46300000E-03	 9.50214000E-02	-4.13216000E-03
					 2.23865000E-04	 9.80535000E-02	-6.56601000E-04
					-1.17294000E-03	 9.63886000E-02	-4.29514000E-03
					 9.06825000E-05	 9.34674000E-02	-7.11292000E-04
					-6.13830000E-04	 9.63645000E-02	-2.90161000E-03
					-6.50783000E-04	 9.33823000E-02	-5.11950000E-03
					 1.08368000E-03	 9.78627000E-02	 3.98915000E-03
					 1.08978000E-03	 9.83915000E-02	 3.95723000E-03
					 8.05272000E-04	 9.35399000E-02	 4.20145000E-03
					 5.67542000E-04	 9.77411000E-02	 1.75081000E-03
					 0.00000000E+00	 0.00000000E+00	 0.00000000E+00
					 0.00000000E+00	 0.00000000E+00	 0.00000000E+00
					-4.62109000E-05	-1.32469000E-02	-3.90548000E-05
					-2.29825000E-03	-1.41358000E-02	 1.25056000E-02
					 0.00000000E+00	 0.00000000E+00	 0.00000000E+00
					 0.00000000E+00	 0.00000000E+00	 0.00000000E+00
					-3.99939000E-05	-1.46929000E-02	-1.16394000E-04
					-7.03647000E-04	-1.56310000E-02	 1.25749000E-02
					 0.00000000E+00	 0.00000000E+00	 0.00000000E+00
					-6.13638000E-06	-2.98128000E-03	 1.39082000E-05
					-1.17602000E-03	-1.34086000E-02	 6.13873000E-03
					-2.19521000E-03	-4.12999000E-03	 6.47508000E-03
					 0.00000000E+00	 0.00000000E+00	 0.00000000E+00
					 0.00000000E+00	 0.00000000E+00	 0.00000000E+00
					-4.09094000E-05	-1.42417000E-02	-8.40929000E-05
					-1.48628000E-03	-1.51531000E-02	 1.24728000E-02
					 0.00000000E+00	 0.00000000E+00	 0.00000000E+00
					-1.02588000E-05	-4.11717000E-03	-2.54776000E-05
					-3.72948000E-04	-1.48680000E-02	 6.06310000E-03
					-3.03445000E-04	-5.25829000E-03	 6.27006000E-03
					 0.00000000E+00	 0.00000000E+00	 0.00000000E+00
					 2.18577000E-03	-1.37470000E-02	-1.26380000E-02
					 0.00000000E+00	 0.00000000E+00	 0.00000000E+00
					 6.29961000E-04	-1.52411000E-02	-1.28672000E-02
					 0.00000000E+00	 0.00000000E+00	 0.00000000E+00
					 2.17154000E-03	-3.97236000E-03	-6.46390000E-03
					 1.07578000E-03	-1.32140000E-02	-6.23459000E-03
					 0.00000000E+00	 0.00000000E+00	 0.00000000E+00
					 1.40068000E-03	-1.47592000E-02	-1.26972000E-02
					 0.00000000E+00	 0.00000000E+00	 0.00000000E+00
					 2.89284000E-04	-5.11870000E-03	-6.33105000E-03
					 2.92769000E-04	-1.46733000E-02	-6.31619000E-03
					 0.00000000E+00	 0.00000000E+00	 0.00000000E+00
					 0.00000000E+00	 0.00000000E+00	 0.00000000E+00
					-4.15122000E-05	-1.45771000E-02	-1.48801000E-04
					 8.97756000E-04	-1.54413000E-02	 1.24001000E-02
					 0.00000000E+00	 0.00000000E+00	 0.00000000E+00
					 0.00000000E+00	 0.00000000E+00	 0.00000000E+00
					-3.99220000E-05	-1.49051000E-02	-1.39729000E-04
					 8.60029000E-05	-1.58056000E-02	 1.25546000E-02
					 0.00000000E+00	 0.00000000E+00	 0.00000000E+00
					-2.34783000E-05	-3.57242000E-03	-3.43109000E-05
					 4.27511000E-04	-1.47234000E-02	 5.89429000E-03
					 1.60576000E-03	-4.68019000E-03	 6.42776000E-03
					 0.00000000E+00	 0.00000000E+00	 0.00000000E+00
					-9.51679000E-04	-1.50740000E-02	-1.27468000E-02
					 0.00000000E+00	 0.00000000E+00	 0.00000000E+00
					-1.52457000E-04	-1.54242000E-02	-1.28903000E-02
					 0.00000000E+00	 0.00000000E+00	 0.00000000E+00
					-1.63170000E-03	-4.54952000E-03	-6.51255000E-03
					-5.00491000E-04	-1.45448000E-02	-6.20614000E-03
					-1.47153000E-04	-4.90264000E-02	-5.98452000E-04
					-3.07650000E-03	-5.01324000E-02	 2.14732000E-02
					-1.32799000E-04	-5.13473000E-02	-7.61450000E-04
					-1.86417000E-03	-5.24471000E-02	 2.13587000E-02
					-8.68721000E-05	-2.87915000E-02	-2.34728000E-04
					-1.61453000E-03	-4.94484000E-02	 1.04179000E-02
					-2.64838000E-03	-2.98899000E-02	 1.74555000E-02
					-1.38920000E-04	-5.03204000E-02	-6.87920000E-04
					-2.46913000E-03	-5.14177000E-02	 2.13458000E-02
					-8.25770000E-05	-3.06465000E-02	-3.51888000E-04
					-9.93277000E-04	-5.17649000E-02	 1.02164000E-02
					-1.22432000E-03	-3.17277000E-02	 1.73936000E-02
					 2.78360000E-03	-4.90839000E-02	-2.27361000E-02
					 1.60190000E-03	-5.14199000E-02	-2.29465000E-02
					 2.45819000E-03	-2.91997000E-02	-1.79968000E-02
					 1.31849000E-03	-4.89259000E-02	-1.16315000E-02
					 2.19637000E-03	-5.03885000E-02	-2.27826000E-02
					 1.06582000E-03	-3.10452000E-02	-1.81688000E-02
					 7.32819000E-04	-5.12582000E-02	-1.17515000E-02
					-1.33594000E-04	-5.24841000E-02	-8.67757000E-04
					-6.28512000E-04	-5.35374000E-02	 2.12047000E-02
					-1.32332000E-04	-5.20451000E-02	-8.20787000E-04
					-1.24329000E-03	-5.31621000E-02	 2.13907000E-02
					-8.84710000E-05	-3.10788000E-02	-4.15875000E-04
					-3.90768000E-04	-5.28684000E-02	 9.97202000E-03
					 2.09424000E-04	-3.21386000E-02	 1.72767000E-02
					 4.02658000E-04	-5.25505000E-02	-2.30040000E-02
					 1.00103000E-03	-5.21159000E-02	-2.31007000E-02
					-3.46768000E-04	-3.14901000E-02	-1.81761000E-02
					 1.36117000E-04	-5.23920000E-02	-1.17173000E-02
					-2.64337000E-04	-1.00540000E-01	-1.84195000E-03
					-4.18377000E-03	-1.01674000E-01	 2.65825000E-02
					-2.38912000E-04	-1.04074000E-01	-2.09618000E-03
					-3.45338000E-03	-1.05312000E-01	 2.63888000E-02
					-2.03775000E-04	-7.31764000E-02	-1.13442000E-03
					-2.21914000E-03	-1.01013000E-01	 1.23348000E-02
					-3.59362000E-03	-7.43356000E-02	 2.45198000E-02
					-2.49011000E-04	-1.02400000E-01	-1.97075000E-03
					-3.81943000E-03	-1.03595000E-01	 2.63878000E-02
					-1.86993000E-04	-7.60755000E-02	-1.34536000E-03
					-1.87103000E-03	-1.04597000E-01	 1.20034000E-02
					-2.61326000E-03	-7.72344000E-02	 2.43711000E-02
					 3.62167000E-03	-1.00038000E-01	-3.02951000E-02
					 2.98183000E-03	-1.03592000E-01	-3.06451000E-02
					 3.18154000E-03	-7.29606000E-02	-2.68479000E-02
					 1.67854000E-03	-1.00202000E-01	-1.60192000E-02
					 3.30142000E-03	-1.01905000E-01	-3.03862000E-02
					 2.24963000E-03	-7.58574000E-02	-2.71203000E-02
					 1.37163000E-03	-1.03754000E-01	-1.62262000E-02
					-2.29066000E-04	-1.06945000E-01	-2.31232000E-03
					-2.82784000E-03	-1.08280000E-01	 2.61070000E-02
					-2.32243000E-04	-1.05611000E-01	-2.21185000E-03
					-3.14226000E-03	-1.06780000E-01	 2.64118000E-02
					-1.74589000E-04	-7.80211000E-02	-1.50478000E-03
					-1.50116000E-03	-1.07513000E-01	 1.15870000E-02
					-1.66108000E-03	-7.91852000E-02	 2.41542000E-02
					 2.33715000E-03	-1.06494000E-01	-3.08220000E-02
					 2.66066000E-03	-1.05119000E-01	-3.09031000E-02
					 1.28721000E-03	-7.78040000E-02	-2.72233000E-02
					 1.04647000E-03	-1.06658000E-01	-1.62640000E-02
					-3.22034000E-04	-1.60863000E-01	-3.59285000E-03
					-5.27590000E-03	-1.61775000E-01	 2.71812000E-02