# vtk DataFile Version 3.0

ASCII
DATASET UNSTRUCTURED_GRID

POINTS 522 double
	 1.00000000E+00	 1.00000000E+00	-5.96046000E-08
	 1.00000000E+00	 5.00000000E-01	-5.96046000E-08
	 1.00000000E+00	 5.00000000E-01	 1.00000000E+00
	 1.00000000E+00	 1.00000000E+00	 1.00000000E+00
	 5.00000000E-01	 1.00000000E+00	-5.96046000E-08
	 5.00000000E-01	 5.00000000E-01	-5.96046000E-08
	 5.00000000E-01	 5.00000000E-01	 1.00000000E+00
	 5.00000000E-01	 1.00000000E+00	 1.00000000E+00
	 1.00000000E+00	 7.50000000E-01	-5.96046000E-08
	 1.00000000E+00	 5.00000000E-01	 5.00000000E-01
	 1.00000000E+00	 7.50000000E-01	 1.00000000E+00
	 1.00000000E+00	 1.00000000E+00	 5.00000000E-01
	 7.50000000E-01	 1.00000000E+00	-5.96046000E-08
	 7.50000000E-01	 5.00000000E-01	-5.96046000E-08
	 7.50000000E-01	 5.00000000E-01	 1.00000000E+00
	 7.50000000E-01	 1.00000000E+00	 1.00000000E+00
	 5.00000000E-01	 7.50000000E-01	-5.96046000E-08
	 5.00000000E-01	 5.00000000E-01	 5.00000000E-01
	 5.00000000E-01	 7.50000000E-01	 1.00000000E+00
	 5.00000000E-01	 1.00000000E+00	 5.00000000E-01
	 1.00000000E+00	-1.49012000E-08	-5.96046000E-08
	 1.00000000E+00	-1.49012000E-08	 1.00000000E+00
	 5.00000000E-01	-1.49012000E-08	-5.96046000E-08
	 5.00000000E-01	-1.49012000E-08	 1.00000000E+00
	 1.00000000E+00	 2.50000000E-01	-5.96046000E-08
	 1.00000000E+00	-1.49012000E-08	 5.00000000E-01
	 1.00000000E+00	 2.50000000E-01	 1.00000000E+00
	 7.50000000E-01	-1.49012000E-08	-5.96046000E-08
	 7.50000000E-01	-1.49012000E-08	 1.00000000E+00
	 5.00000000E-01	 2.50000000E-01	-5.96046000E-08
	 5.00000000E-01	-1.49012000E-08	 5.00000000E-01
	 5.00000000E-01	 2.50000000E-01	 1.00000000E+00
	-7.45058000E-09	 1.00000000E+00	-5.96046000E-08
	-7.45058000E-09	 5.00000000E-01	-5.96046000E-08
	-7.45058000E-09	 5.00000000E-01	 1.00000000E+00
	-7.45058000E-09	 1.00000000E+00	 1.00000000E+00
	 2.50000000E-01	 1.00000000E+00	-5.96046000E-08
	 2.50000000E-01	 5.00000000E-01	-5.96046000E-08
	 2.50000000E-01	 5.00000000E-01	 1.00000000E+00
	 2.50000000E-01	 1.00000000E+00	 1.00000000E+00
	-7.45058000E-09	 7.50000000E-01	-5.96046000E-08
	-7.45058000E-09	 5.00000000E-01	 5.00000000E-01
	-7.45058000E-09	 7.50000000E-01	 1.00000000E+00
	-7.45058000E-09	 1.00000000E+00	 5.00000000E-01
	-7.45058000E-09	-1.49012000E-08	-5.96046000E-08
	-7.45058000E-09	-1.49012000E-08	 1.00000000E+00
	 2.50000000E-01	-1.49012000E-08	-5.96046000E-08
	 2.50000000E-01	-1.49012000E-08	 1.00000000E+00
	-7.45058000E-09	 2.50000000E-01	-5.96046000E-08
	-7.45058000E-09	-1.49012000E-08	 5.00000000E-01
	-7.45058000E-09	 2.50000000E-01	 1.00000000E+00
	 1.00000000E+00	 5.00000000E-01	 2.00000000E+00
	 1.00000000E+00	 1.00000000E+00	 2.00000000E+00
	 5.00000000E-01	 5.00000000E-01	 2.00000000E+00
	 5.00000000E-01	 1.00000000E+00	 2.00000000E+00
	 1.00000000E+00	 5.00000000E-01	 1.50000000E+00
	 1.00000000E+00	 7.50000000E-01	 2.00000000E+00
	 1.00000000E+00	 1.00000000E+00	 1.50000000E+00
	 7.50000000E-01	 5.00000000E-01	 2.00000000E+00
	 7.50000000E-01	 1.00000000E+00	 2.00000000E+00
	 5.00000000E-01	 5.00000000E-01	 1.50000000E+00
	 5.00000000E-01	 7.50000000E-01	 2.00000000E+00
	 5.00000000E-01	 1.00000000E+00	 1.50000000E+00
	 1.00000000E+00	-1.49012000E-08	 2.00000000E+00
	 5.00000000E-01	-1.49012000E-08	 2.00000000E+00
	 1.00000000E+00	-1.49012000E-08	 1.50000000E+00
	 1.00000000E+00	 2.50000000E-01	 2.00000000E+00
	 7.50000000E-01	-1.49012000E-08	 2.00000000E+00
	 5.00000000E-01	-1.49012000E-08	 1.50000000E+00
	 5.00000000E-01	 2.50000000E-01	 2.00000000E+00
	-7.45058000E-09	 5.00000000E-01	 2.00000000E+00
	-7.45058000E-09	 1.00000000E+00	 2.00000000E+00
	 2.50000000E-01	 5.00000000E-01	 2.00000000E+00
	 2.50000000E-01	 1.00000000E+00	 2.00000000E+00
	-7.45058000E-09	 5.00000000E-01	 1.50000000E+00
	-7.45058000E-09	 7.50000000E-01	 2.00000000E+00
	-7.45058000E-09	 1.00000000E+00	 1.50000000E+00
	-7.45058000E-09	-1.49012000E-08	 2.00000000E+00
	 2.50000000E-01	-1.49012000E-08	 2.00000000E+00
	-7.45058000E-09	-1.49012000E-08	 1.50000000E+00
	-7.45058000E-09	 2.50000000E-01	 2.00000000E+00
	 1.00000000E+00	 5.00000000E-01	 3.00000000E+00
	 1.00000000E+00	 1.00000000E+00	 3.00000000E+00
	 5.00000000E-01	 5.00000000E-01	 3.00000000E+00
	 5.00000000E-01	 1.00000000E+00	 3.00000000E+00
	 1.00000000E+00	 5.00000000E-01	 2.50000000E+00
	 1.00000000E+00	 7.50000000E-01	 3.00000000E+00
	 1.00000000E+00	 1.00000000E+00	 2.50000000E+00
	 7.50000000E-01	 5.00000000E-01	 3.00000000E+00
	 7.50000000E-01	 1.00000000E+00	 3.00000000E+00
	 5.00000000E-01	 5.00000000E-01	 2.50000000E+00
	 5.00000000E-01	 7.50000000E-01	 3.00000000E+00
	 5.00000000E-01	 1.00000000E+00	 2.50000000E+00
	 1.00000000E+00	-1.49012000E-08	 3.00000000E+00
	 5.00000000E-01	-1.49012000E-08	 3.00000000E+00
	 1.00000000E+00	-1.49012000E-08	 2.50000000E+00
	 1.00000000E+00	 2.50000000E-01	 3.00000000E+00
	 7.50000000E-01	-1.49012000E-08	 3.00000000E+00
	 5.00000000E-01	-1.49012000E-08	 2.50000000E+00
	 5.00000000E-01	 2.50000000E-01	 3.00000000E+00
	-7.45058000E-09	 5.00000000E-01	 3.00000000E+00
	-7.45058000E-09	 1.00000000E+00	 3.00000000E+00
	 2.50000000E-01	 5.00000000E-01	 3.00000000E+00
	 2.50000000E-01	 1.00000000E+00	 3.00000000E+00
	-7.45058000E-09	 5.00000000E-01	 2.50000000E+00
	-7.45058000E-09	 7.50000000E-01	 3.00000000E+00
	-7.45058000E-09	 1.00000000E+00	 2.50000000E+00
	-7.45058000E-09	-1.49012000E-08	 3.00000000E+00
	 2.50000000E-01	-1.49012000E-08	 3.00000000E+00
	-7.45058000E-09	-1.49012000E-08	 2.50000000E+00
	-7.45058000E-09	 2.50000000E-01	 3.00000000E+00
	 1.00000000E+00	 5.00000000E-01	 4.00000000E+00
	 1.00000000E+00	 1.00000000E+00	 4.00000000E+00
	 5.00000000E-01	 5.00000000E-01	 4.00000000E+00
	 5.00000000E-01	 1.00000000E+00	 4.00000000E+00
	 1.00000000E+00	 5.00000000E-01	 3.50000000E+00
	 1.00000000E+00	 7.50000000E-01	 4.00000000E+00
	 1.00000000E+00	 1.00000000E+00	 3.50000000E+00
	 7.50000000E-01	 5.00000000E-01	 4.00000000E+00
	 7.50000000E-01	 1.00000000E+00	 4.00000000E+00
	 5.00000000E-01	 5.00000000E-01	 3.50000000E+00
	 5.00000000E-01	 7.50000000E-01	 4.00000000E+00
	 5.00000000E-01	 1.00000000E+00	 3.50000000E+00
	 1.00000000E+00	-1.49012000E-08	 4.00000000E+00
	 5.00000000E-01	-1.49012000E-08	 4.00000000E+00
	 1.00000000E+00	-1.49012000E-08	 3.50000000E+00
	 1.00000000E+00	 2.50000000E-01	 4.00000000E+00
	 7.50000000E-01	-1.49012000E-08	 4.00000000E+00
	 5.00000000E-01	-1.49012000E-08	 3.50000000E+00
	 5.00000000E-01	 2.50000000E-01	 4.00000000E+00
	-7.45058000E-09	 5.00000000E-01	 4.00000000E+00
	-7.45058000E-09	 1.00000000E+00	 4.00000000E+00
	 2.50000000E-01	 5.00000000E-01	 4.00000000E+00
	 2.50000000E-01	 1.00000000E+00	 4.00000000E+00
	-7.45058000E-09	 5.00000000E-01	 3.50000000E+00
	-7.45058000E-09	 7.50000000E-01	 4.00000000E+00
	-7.45058000E-09	 1.00000000E+00	 3.50000000E+00
	-7.45058000E-09	-1.49012000E-08	 4.00000000E+00
	 2.50000000E-01	-1.49012000E-08	 4.00000000E+00
	-7.45058000E-09	-1.49012000E-08	 3.50000000E+00
	-7.45058000E-09	 2.50000000E-01	 4.00000000E+00
	 1.00000000E+00	 5.00000000E-01	 5.00000000E+00
	 1.00000000E+00	 1.00000000E+00	 5.00000000E+00
	 5.00000000E-01	 5.00000000E-01	 5.00000000E+00
	 5.00000000E-01	 1.00000000E+00	 5.00000000E+00
	 1.00000000E+00	 5.00000000E-01	 4.50000000E+00
	 1.00000000E+00	 7.50000000E-01	 5.00000000E+00
	 1.00000000E+00	 1.00000000E+00	 4.50000000E+00
	 7.50000000E-01	 5.00000000E-01	 5.00000000E+00
	 7.50000000E-01	 1.00000000E+00	 5.00000000E+00
	 5.00000000E-01	 5.00000000E-01	 4.50000000E+00
	 5.00000000E-01	 7.50000000E-01	 5.00000000E+00
	 5.00000000E-01	 1.00000000E+00	 4.50000000E+00
	 1.00000000E+00	-1.49012000E-08	 5.00000000E+00
	 5.00000000E-01	-1.49012000E-08	 5.00000000E+00
	 1.00000000E+00	-1.49012000E-08	 4.50000000E+00
	 1.00000000E+00	 2.50000000E-01	 5.00000000E+00
	 7.50000000E-01	-1.49012000E-08	 5.00000000E+00
	 5.00000000E-01	-1.49012000E-08	 4.50000000E+00
	 5.00000000E-01	 2.50000000E-01	 5.00000000E+00
	-7.45058000E-09	 5.00000000E-01	 5.00000000E+00
	-7.45058000E-09	 1.00000000E+00	 5.00000000E+00
	 2.50000000E-01	 5.00000000E-01	 5.00000000E+00
	 2.50000000E-01	 1.00000000E+00	 5.00000000E+00
	-7.45058000E-09	 5.00000000E-01	 4.50000000E+00
	-7.45058000E-09	 7.50000000E-01	 5.00000000E+00
	-7.45058000E-09	 1.00000000E+00	 4.50000000E+00
	-7.45058000E-09	-1.49012000E-08	 5.00000000E+00
	 2.50000000E-01	-1.49012000E-08	 5.00000000E+00
	-7.45058000E-09	-1.49012000E-08	 4.50000000E+00
	-7.45058000E-09	 2.50000000E-01	 5.00000000E+00
	 1.00000000E+00	 5.00000000E-01	 6.00000000E+00
	 1.00000000E+00	 1.00000000E+00	 6.00000000E+00
	 5.00000000E-01	 5.00000000E-01	 6.00000000E+00
	 5.00000000E-01	 1.00000000E+00	 6.00000000E+00
	 1.00000000E+00	 5.00000000E-01	 5.50000000E+00
	 1.00000000E+00	 7.50000000E-01	 6.00000000E+00
	 1.00000000E+00	 1.00000000E+00	 5.50000000E+00
	 7.50000000E-01	 5.00000000E-01	 6.00000000E+00
	 7.50000000E-01	 1.00000000E+00	 6.00000000E+00
	 5.00000000E-01	 5.00000000E-01	 5.50000000E+00
	 5.00000000E-01	 7.50000000E-01	 6.00000000E+00
	 5.00000000E-01	 1.00000000E+00	 5.50000000E+00
	 1.00000000E+00	-1.49012000E-08	 6.00000000E+00
	 5.00000000E-01	-1.49012000E-08	 6.00000000E+00
	 1.00000000E+00	-1.49012000E-08	 5.50000000E+00
	 1.00000000E+00	 2.50000000E-01	 6.00000000E+00
	 7.50000000E-01	-1.49012000E-08	 6.00000000E+00
	 5.00000000E-01	-1.49012000E-08	 5.50000000E+00
	 5.00000000E-01	 2.50000000E-01	 6.00000000E+00
	-7.45058000E-09	 5.00000000E-01	 6.00000000E+00
	-7.45058000E-09	 1.00000000E+00	 6.00000000E+00
	 2.50000000E-01	 5.00000000E-01	 6.00000000E+00
	 2.50000000E-01	 1.00000000E+00	 6.00000000E+00
	-7.45058000E-09	 5.00000000E-01	 5.50000000E+00
	-7.45058000E-09	 7.50000000E-01	 6.00000000E+00
	-7.45058000E-09	 1.00000000E+00	 5.50000000E+00
	-7.45058000E-09	-1.49012000E-08	 6.00000000E+00
	 2.50000000E-01	-1.49012000E-08	 6.00000000E+00
	-7.45058000E-09	-1.49012000E-08	 5.50000000E+00
	-7.45058000E-09	 2.50000000E-01	 6.00000000E+00
	 1.00000000E+00	 5.00000000E-01	 7.00000000E+00
[...]
POINT_DATA 522
FIELD U 1
	U 3 522 double
		 0.00000000E+00	 0.00000000E+00	 0.00000000E+00
		 0.00000000E+00	 0.00000000E+00	 0.00000000E+00
		-2.32765000E-05	-1.40495000E-05	 5.07680000E-05
		 9.69234000E-06	-5.45392000E-05	 7.73786000E-05
		 0.00000000E+00	 0.00000000E+00	 0.00000000E+00
		 0.00000000E+00	 0.00000000E+00	 0.00000000E+00
		 5.00677000E-06	-2.60057000E-05	 5.42714000E-05
		-1.55202000E-05	-2.96455000E-05	 7.78878000E-05
		 0.00000000E+00	 0.00000000E+00	 0.00000000E+00
		-2.94784000E-06	-6.33152000E-06	 4.63882000E-05
		-1.10562000E-05	-2.58807000E-07	 9.15238000E-05
		-6.74297000E-06	-1.38949000E-05	 5.66234000E-06
		 0.00000000E+00	 0.00000000E+00	 0.00000000E+00
		 0.00000000E+00	 0.00000000E+00	 0.00000000E+00
		 3.86596000E-06	-5.01770000E-05	 5.68082000E-05
		-1.89645000E-05	-6.95339000E-05	 6.21128000E-05
		 0.00000000E+00	 0.00000000E+00	 0.00000000E+00
		-4.98990000E-06	-1.39664000E-05	 2.51846000E-05
		 1.54091000E-05	-4.44875000E-05	 6.80578000E-05
		-8.30235000E-06	-1.99338000E-05	 4.07293000E-05
		 0.00000000E+00	 0.00000000E+00	 0.00000000E+00
		 1.51995000E-05	-3.50000000E-06	 3.88558000E-05
		 0.00000000E+00	 0.00000000E+00	 0.00000000E+00
		 1.58781000E-05	-4.40481000E-05	 2.15395000E-05
		 0.00000000E+00	 0.00000000E+00	 0.00000000E+00
		-1.86953000E-05	 8.18998000E-06	 8.98000000E-06
		 9.04805000E-07	-4.25326000E-05	 1.89574000E-05
		 0.00000000E+00	 0.00000000E+00	 0.00000000E+00
		-9.80858000E-06	-1.35376000E-05	 3.81068000E-05
		 0.00000000E+00	 0.00000000E+00	 0.00000000E+00
		-2.72062000E-06	 4.10773000E-06	-7.65282000E-06
		-1.52498000E-05	-9.81558000E-06	 4.55498000E-05
		 0.00000000E+00	 0.00000000E+00	 0.00000000E+00
		 0.00000000E+00	 0.00000000E+00	 0.00000000E+00
		 9.58769000E-06	-3.82715000E-05	 6.69159000E-05
		 1.16819000E-05	-4.42027000E-05	 7.50280000E-05
		 0.00000000E+00	 0.00000000E+00	 0.00000000E+00
		 0.00000000E+00	 0.00000000E+00	 0.00000000E+00
		-2.47071000E-06	-1.07643000E-05	 4.12664000E-05
		-1.39034000E-06	-7.39893000E-06	 1.08130000E-04
		 0.00000000E+00	 0.00000000E+00	 0.00000000E+00
		 2.31510000E-05	-4.85677000E-06	 2.24201000E-05
		 3.50394000E-05	-4.49470000E-05	 3.60077000E-05
		 1.66610000E-05	-3.69128000E-06	 5.53537000E-05
		 0.00000000E+00	 0.00000000E+00	 0.00000000E+00
		-2.28157000E-05	 8.55783000E-06	 1.74613000E-05
		 0.00000000E+00	 0.00000000E+00	 0.00000000E+00
		 2.24547000E-05	-4.29448000E-05	 1.91800000E-06
		 0.00000000E+00	 0.00000000E+00	 0.00000000E+00
		 1.35897000E-05	-1.62364000E-05	 3.99084000E-05
		-1.52693000E-05	-3.51852000E-05	 6.24584000E-05
		-2.14726000E-05	-1.71845000E-04	 7.28359000E-05
		 4.64530000E-05	-1.35124000E-04	 4.45563000E-06
		-5.59070000E-06	-1.69654000E-04	 7.46957000E-05
		 5.54292000E-06	-1.35894000E-04	 3.50652000E-05
		-3.13293000E-06	-1.12061000E-04	 4.54578000E-05
		 3.85164000E-06	-1.60804000E-04	 3.46700000E-05
		-7.74398000E-06	-8.92966000E-05	 9.15971000E-05
		 1.22017000E-05	-1.63866000E-04	 5.20230000E-05
		 4.75393000E-06	-1.39982000E-04	 1.35416000E-05
		-1.91018000E-06	-1.06219000E-04	 6.32579000E-05
		-2.06049000E-05	-1.51153000E-04	 4.71519000E-05
		 2.14347000E-06	-9.26905000E-05	 7.62137000E-05
		-2.31360000E-05	-1.50120000E-04	 9.09827000E-05
		-1.23416000E-06	-1.60586000E-04	 9.68103000E-05
		 1.21955000E-05	-7.13228000E-05	 3.48840000E-05
		 1.61709000E-05	-1.89027000E-04	 1.00740000E-04
		-3.54312000E-05	-1.26752000E-04	 9.93847000E-05
		-1.03633000E-05	-9.74207000E-05	 7.10542000E-05
		 1.86287000E-06	-1.59348000E-04	 9.94775000E-05
		 4.86466000E-06	-1.76971000E-04	 5.98747000E-05
		-5.60063000E-05	-1.53572000E-04	 3.13021000E-05
		-8.54155000E-06	-1.91973000E-04	 6.46883000E-05
		-1.50847000E-05	-1.63783000E-04	 4.69534000E-06
		-9.55072000E-06	-1.08294000E-04	 5.61935000E-05
		-5.05958000E-05	-1.69873000E-04	 3.39786000E-05
		-4.25000000E-06	-8.41145000E-05	 6.70945000E-05
		 3.39574000E-05	-1.57205000E-04	 1.11444000E-04
		 2.27137000E-05	-1.74777000E-04	 8.16587000E-05
		 2.03827000E-05	-9.69057000E-05	 3.40217000E-05
		 2.02556000E-05	-1.71904000E-04	 1.16841000E-04
		 2.59504000E-05	 2.81156000E-04	 5.31696000E-06
		 5.17991000E-05	 2.86137000E-04	-5.05165000E-04
		 5.99707000E-06	 2.64440000E-04	-6.15555000E-06
		-7.20560000E-05	 3.04834000E-04	-5.36898000E-04
		 1.24152000E-05	-1.11697000E-04	 3.98651000E-05
		 2.04197000E-05	 2.90812000E-04	-2.57048000E-04
		 7.28442000E-05	-9.12312000E-05	-2.18223000E-04
		 1.15655000E-05	 3.18410000E-04	 5.63613000E-06
		-8.31015000E-06	 3.67351000E-04	-5.32782000E-04
		 3.54734000E-06	-9.38142000E-05	 3.83259000E-05
		-3.25575000E-05	 2.57120000E-04	-2.56480000E-04
		-3.46132000E-05	-5.68635000E-05	-2.03857000E-04
		-1.05298000E-05	 2.80511000E-04	 5.32757000E-04
		 8.71428000E-05	 2.70692000E-04	 5.48820000E-04
		-3.04590000E-05	-1.04511000E-04	 3.14317000E-04
		 2.40703000E-06	 2.75812000E-04	 2.52823000E-04
		 3.80020000E-05	 3.40055000E-04	 5.58673000E-04
		 3.03047000E-05	-6.98884000E-05	 2.59687000E-04
		 4.34311000E-05	 2.52493000E-04	 2.58717000E-04
		-2.87618000E-06	 1.27871000E-04	-1.09178000E-05
		-1.87993000E-04	 1.46626000E-04	-5.46873000E-04
		-2.57738000E-06	 2.34742000E-04	-5.46427000E-06
		-1.32686000E-04	 2.84326000E-04	-5.39594000E-04
		 7.79853000E-07	-1.71250000E-04	 4.78318000E-05
		-7.54335000E-05	 1.39568000E-04	-2.30604000E-04
		-1.00319000E-04	-1.44694000E-04	-2.26077000E-04
		 1.71323000E-04	 1.38072000E-04	 5.48156000E-04
		 1.41083000E-04	 2.74420000E-04	 5.33361000E-04
		 8.82110000E-05	-1.48080000E-04	 2.79659000E-04
		 7.63452000E-05	 1.14490000E-04	 2.57566000E-04
		-9.55303000E-06	 2.57869000E-03	-2.62519000E-05
		-5.58801000E-04	 2.48875000E-03	-4.73582000E-04
		 5.56550000E-06	 2.08262000E-03	-9.11441000E-06
		-4.07404000E-04	 2.00100000E-03	-4.99573000E-04
		 9.33944000E-06	 1.40524000E-03	-6.75881000E-06
		-2.64238000E-04	 2.52760000E-03	-1.21203000E-04
		-2.11244000E-04	 1.33708000E-03	-6.82147000E-04
		-2.07641000E-05	 2.31229000E-03	 7.63057000E-06
		-4.77061000E-04	 2.21616000E-03	-5.07054000E-04
		-7.45407000E-06	 1.17207000E-03	-1.29036000E-05
		-1.89403000E-04	 2.09197000E-03	-1.99350000E-04
		-2.21919000E-04	 1.15242000E-03	-7.09283000E-04
		 4.94660000E-04	 2.49107000E-03	 4.37037000E-04
		 3.84722000E-04	 2.05015000E-03	 4.75774000E-04
		 1.84596000E-04	 1.34958000E-03	 6.39076000E-04
		 2.45998000E-04	 2.55704000E-03	 9.18417000E-05
		 4.75566000E-04	 2.25017000E-03	 5.00470000E-04
		 2.23459000E-04	 1.16678000E-03	 6.89357000E-04
		 2.03058000E-04	 2.08656000E-03	 1.64254000E-04
		 2.54581000E-06	 1.78212000E-03	 1.46039000E-05
		-2.32671000E-04	 1.72477000E-03	-4.52134000E-04
		 1.18521000E-05	 1.91687000E-03	 5.50816000E-06
		-3.23476000E-04	 1.81857000E-03	-4.17057000E-04
		-8.84761000E-06	 9.44198000E-04	-8.28041000E-06
		-1.32590000E-04	 1.74423000E-03	-2.02374000E-04
		-2.36438000E-04	 9.32966000E-04	-6.42925000E-04
		 2.67362000E-04	 1.70175000E-03	 4.41096000E-04
		 3.20292000E-04	 1.85273000E-03	 4.54094000E-04
		 2.11338000E-04	 9.41004000E-04	 6.64155000E-04
		 1.30079000E-04	 1.76567000E-03	 1.76993000E-04
		 5.79056000E-06	 3.10532000E-03	 4.30593000E-05
		-1.32364000E-03	 2.91425000E-03	 1.41710000E-03
		-4.17999000E-06	 1.98830000E-03	 2.82942000E-05
		-9.51583000E-04	 1.80990000E-03	 1.38895000E-03
		-1.21161000E-05	 3.33780000E-03	-1.76478000E-06
		-6.53454000E-04	 3.04847000E-03	 7.40284000E-04
		-9.66089000E-04	 3.26366000E-03	 3.03421000E-04
		 2.74041000E-07	 2.45203000E-03	 1.24753000E-05
		-1.12762000E-03	 2.30521000E-03	 1.32805000E-03
		 1.43070000E-05	 2.51632000E-03	 1.21020000E-05
		-4.66664000E-04	 1.92659000E-03	 7.07127000E-04
		-6.53281000E-04	 2.40979000E-03	 3.01505000E-04
		 1.37074000E-03	 2.93330000E-03	-1.34462000E-03
		 9.34141000E-04	 1.78762000E-03	-1.33753000E-03
		 9.73933000E-04	 3.23453000E-03	-2.78580000E-04
		 6.57445000E-04	 3.06916000E-03	-6.55129000E-04
		 1.13570000E-03	 2.22555000E-03	-1.30396000E-03
		 6.75780000E-04	 2.39314000E-03	-2.60713000E-04
		 4.50212000E-04	 1.92635000E-03	-6.58549000E-04
		-1.84496000E-05	 1.20806000E-03	-8.16545000E-07
		-5.44834000E-04	 1.08167000E-03	 1.37217000E-03
		-1.44397000E-05	 1.53061000E-03	 2.25978000E-05
		-7.60125000E-04	 1.36296000E-03	 1.40721000E-03
		 2.38151000E-06	 1.99726000E-03	 1.29944000E-05
		-2.69483000E-04	 1.19187000E-03	 6.64223000E-04
		-3.77695000E-04	 1.88856000E-03	 2.98693000E-04
		 5.17261000E-04	 1.07033000E-03	-1.32196000E-03
		 7.32198000E-04	 1.33945000E-03	-1.38150000E-03
		 3.99521000E-04	 1.90056000E-03	-2.79589000E-04
		 2.61067000E-04	 1.17925000E-03	-6.70681000E-04
		-1.24732000E-05	-2.09709000E-03	-1.06321000E-04
		-1.25283000E-03	-2.17746000E-03	 3.14309000E-03
		 1.03198000E-05	-3.30084000E-03	-4.12120000E-05
		-1.12412000E-03	-3.43620000E-03	 3.19788000E-03
		-3.40389000E-06	 1.00989000E-03	-2.01218000E-05
		-6.34603000E-04	-2.12369000E-03	 1.45331000E-03
		-1.34776000E-03	 9.03033000E-04	 2.45116000E-03
		-1.79871000E-06	-2.72623000E-03	-6.87760000E-05
		-1.18816000E-03	-2.82617000E-03	 3.21124000E-03
		-2.49995000E-05	-1.60349000E-04	-1.63544000E-05
		-5.36690000E-04	-3.32626000E-03	 1.54962000E-03
		-1.04498000E-03	-3.27336000E-04	 2.43722000E-03
		 1.25398000E-03	-2.19506000E-03	-3.32964000E-03
		 1.14950000E-03	-3.34004000E-03	-3.31973000E-03
		 1.34765000E-03	 9.12085000E-04	-2.49823000E-03
		 6.37396000E-04	-2.11847000E-03	-1.66142000E-03
		 1.20640000E-03	-2.75838000E-03	-3.31651000E-03
		 1.00255000E-03	-3.08435000E-04	-2.47186000E-03
		 5.66004000E-04	-3.30600000E-03	-1.61669000E-03
		 2.73324000E-05	-4.33741000E-03	 7.88909000E-06
		-9.72497000E-04	-4.46494000E-03	 3.23787000E-03
		 3.25277000E-05	-3.85380000E-03	-3.07447000E-05
		-1.04860000E-03	-3.94610000E-03	 3.22878000E-03
		-8.22958000E-06	-1.05731000E-03	 1.54043000E-05
		-4.83491000E-04	-4.38177000E-03	 1.57960000E-03
		-7.68912000E-04	-1.23555000E-03	 2.42574000E-03
		 9.29368000E-04	-4.39327000E-03	-3.24737000E-03
		 1.03310000E-03	-3.86709000E-03	-3.29064000E-03
		 7.31007000E-04	-1.21101000E-03	-2.41039000E-03
		 4.67971000E-04	-4.32154000E-03	-1.55052000E-03
		-4.61711000E-05	-9.94917000E-03	-5.68739000E-06
		-1.02824000E-03	-9.96961000E-03	 3.93874000E-03
		 6.60079000E-07	-1.09761000E-02	-7.06425000E-06
		-1.00923000E-03	-1.10443000E-02	 4.03449000E-03
		 4.49799000E-06	-5.85317000E-03	-5.10791000E-06
		-5.16414000E-04	-9.95817000E-03	 1.91427000E-03
		-1.21837000E-03	-5.89805000E-03	 3.69801000E-03
		-2.98144000E-05	-1.04592000E-02	 1.07834000E-05
		-1.01076000E-03	-1.04921000E-02	 3.93573000E-03
		 4.11501000E-05	-6.98948000E-03	-4.04177000E-05
		-5.01413000E-04	-1.10015000E-02	 1.95132000E-03
		-1.04803000E-03	-7.05986000E-03	 3.70423000E-03
		 1.01130000E-03	-1.00063000E-02	-3.90558000E-03
		 9.95563000E-04	-1.09276000E-02	-3.88082000E-03
		 1.15371000E-03	-5.91602000E-03	-3.71912000E-03
		 5.09530000E-04	-9.97279000E-03	-1.92558000E-03
		 1.01874000E-03	-1.04480000E-02	-3.90602000E-03
		 1.10682000E-03	-7.05096000E-03	-3.71525000E-03
		 5.03539000E-04	-1.09456000E-02	-1.95383000E-03
		 4.62600000E-05	-1.19929000E-02	-1.36946000E-04
		-9.36778000E-04	-1.19238000E-02	 3.84722000E-03
		 2.84943000E-05	-1.14576000E-02	-5.50731000E-05
		-9.79727000E-04	-1.15019000E-02	 3.89127000E-03
		 3.15737000E-05	-8.00988000E-03	-8.17340000E-05
		-4.75934000E-04	-1.19740000E-02	 1.86325000E-03
		-9.34012000E-04	-8.09136000E-03	 3.65702000E-03
		 8.82865000E-04	-1.19363000E-02	-4.00296000E-03
		 9.36731000E-04	-1.14177000E-02	-3.91248000E-03
		 1.05061000E-03	-8.08089000E-03	-3.77044000E-03
		 4.59594000E-04	-1.19645000E-02	-2.04430000E-03
		-8.03974000E-05	-1.79700000E-02	-3.89381000E-05
		-9.41942000E-04	-1.78434000E-02	 3.81769000E-03
		-3.15093000E-06	-1.89656000E-02	-6.10567000E-05
		-1.03024000E-03	-1.90318000E-02	 3.88832000E-03
		-2.51188000E-05	-1.40300000E-02	-4.86517000E-05
		-5.14942000E-04	-1.79130000E-02	 1.97282000E-03
		-1.01238000E-03	-1.40339000E-02	 3.90437000E-03
		-2.56529000E-05	-1.85069000E-02	-7.50781000E-05
		-9.65433000E-04	-1.84265000E-02	 3.88901000E-03
		 8.56921000E-06	-1.49531000E-02	-7.37961000E-06
		-5.09570000E-04	-1.89770000E-02	 1.92082000E-03
		-1.00134000E-03	-1.50530000E-02	 3.98128000E-03
		 1.24907000E-03	-1.79094000E-02	-4.21928000E-03
		 1.17142000E-03	-1.89837000E-02	-3.97172000E-03
		 1.07546000E-03	-1.40831000E-02	-4.05476000E-03
		 5.76994000E-04	-1.78943000E-02	-2.12495000E-03
		 1.17419000E-03	-1.84576000E-02	-4.02958000E-03
		 1.04450000E-03	-1.49719000E-02	-4.04024000E-03
		 6.09594000E-04	-1.90172000E-02	-2.02560000E-03
		 1.31704000E-04	-2.01321000E-02	-1.36088000E-04
		-9.16754000E-04	-1.99114000E-02	 3.75278000E-03
		 5.38995000E-05	-1.95478000E-02	-1.41969000E-04
		-9.88218000E-04	-1.94846000E-02	 3.85342000E-03
		 5.61969000E-05	-1.60147000E-02	-7.96388000E-05
		-4.67519000E-04	-2.00213000E-02	 1.83972000E-03
		-1.00851000E-03	-1.59619000E-02	 3.85280000E-03
		 1.13635000E-03	-2.03669000E-02	-4.45293000E-03
		 1.15424000E-03	-1.96503000E-02	-4.18592000E-03
		 1.17363000E-03	-1.60509000E-02	-4.16165000E-03
		 5.51748000E-04	-2.02107000E-02	-2.22721000E-03
		 0.00000000E+00	 0.00000000E+00	 0.00000000E+00
		 0.00000000E+00	 0.00000000E+00	 0.00000000E+00
		 8.68317000E-05	-1.26733000E-02	-3.05949000E-04
		-2.67108000E-03	-1.37615000E-02	 1.32333000E-02
		 0.00000000E+00	 0.00000000E+00	 0.00000000E+00
		 0.00000000E+00	 0.00000000E+00	 0.00000000E+00
		 6.63213000E-05	-1.45723000E-02	-2.60294000E-04
		-8.38049000E-04	-1.57445000E-02	 1.33588000E-02
		 0.00000000E+00	 0.00000000E+00	 0.00000000E+00
		 6.46391000E-05	-2.40825000E-03	-1.24770000E-04
		-1.28233000E-03	-1.28626000E-02	 6.42034000E-03
		-2.52029000E-03	-3.60997000E-03	 6.63052000E-03
		 0.00000000E+00	 0.00000000E+00	 0.00000000E+00
		 0.00000000E+00	 0.00000000E+00	 0.00000000E+00
		 1.05630000E-04	-1.38745000E-02	-2.57858000E-04
		-1.76639000E-03	-1.50765000E-02	 1.32030000E-02
		 0.00000000E+00	 0.00000000E+00	 0.00000000E+00
		-1.74166000E-05	-3.79154000E-03	-8.60089000E-05
		-4.54828000E-04	-1.48676000E-02	 6.44135000E-03
		-4.46214000E-04	-5.01905000E-03	 6.43599000E-03
		 0.00000000E+00	 0.00000000E+00	 0.00000000E+00
		 3.02246000E-03	-1.32634000E-02	-1.38392000E-02
		 0.00000000E+00	 0.00000000E+00	 0.00000000E+00
		 1.02781000E-03	-1.52395000E-02	-1.39324000E-02
		 0.00000000E+00	 0.00000000E+00	 0.00000000E+00
		 2.53024000E-03	-3.48638000E-03	-6.84924000E-03
		 1.52807000E-03	-1.26971000E-02	-7.03506000E-03
		 0.00000000E+00	 0.00000000E+00	 0.00000000E+00
		 1.99269000E-03	-1.45455000E-02	-1.38177000E-02
		 0.00000000E+00	 0.00000000E+00	 0.00000000E+00
		 4.27439000E-04	-4.85816000E-03	-6.62288000E-03
		 6.04944000E-04	-1.45387000E-02	-6.98972000E-03
		 0.00000000E+00	 0.00000000E+00	 0.00000000E+00
		 0.00000000E+00	 0.00000000E+00	 0.00000000E+00
		-6.00294000E-05	-1.46946000E-02	-2.13431000E-04
		 8.13281000E-04	-1.58277000E-02	 1.32615000E-02
		 0.00000000E+00	 0.00000000E+00	 0.00000000E+00
		 0.00000000E+00	 0.00000000E+00	 0.00000000E+00
		-1.33028000E-05	-1.49855000E-02	-2.74005000E-04
		 1.58529000E-05	-1.59828000E-02	 1.33717000E-02
		 0.00000000E+00	 0.00000000E+00	 0.00000000E+00
		-7.04933000E-05	-3.29447000E-03	-7.17498000E-05
		 4.66107000E-04	-1.49026000E-02	 6.37432000E-03
		 1.53966000E-03	-4.54696000E-03	 6.70240000E-03
		 0.00000000E+00	 0.00000000E+00	 0.00000000E+00
		-7.95558000E-04	-1.52467000E-02	-1.38151000E-02
		 0.00000000E+00	 0.00000000E+00	 0.00000000E+00
		 1.21645000E-04	-1.55427000E-02	-1.39276000E-02
		 0.00000000E+00	 0.00000000E+00	 0.00000000E+00
		-1.58080000E-03	-4.45156000E-03	-6.81350000E-03
		-4.17112000E-04	-1.46470000E-02	-6.85924000E-03
		 1.98948000E-04	-5.18112000E-02	-1.09232000E-03
		-3.66014000E-03	-5.32360000E-02	 2.41471000E-02
		 2.01273000E-04	-5.48922000E-02	-1.23957000E-03
		-1.98927000E-03	-5.64167000E-02	 2.41279000E-02
		 1.83810000E-04	-2.92552000E-02	-5.79403000E-04
		-1.66465000E-03	-5.23264000E-02	 1.15067000E-02
		-3.21276000E-03	-3.05828000E-02	 1.91103000E-02
		 2.19237000E-04	-5.35563000E-02	-1.20255000E-03
		-2.84437000E-03	-5.50596000E-02	 2.40856000E-02
		 1.57605000E-04	-3.17496000E-02	-6.47593000E-04
		-8.76624000E-04	-5.54827000E-02	 1.13826000E-02
		-1.47151000E-03	-3.30387000E-02	 1.91364000E-02
		 4.15515000E-03	-5.18572000E-02	-2.65889000E-02
		 2.53133000E-03	-5.49088000E-02	-2.66612000E-02
		 3.51881000E-03	-2.97377000E-02	-2.03460000E-02
		 2.15738000E-03	-5.16397000E-02	-1.38267000E-02
		 3.33928000E-03	-5.35966000E-02	-2.65674000E-02
		 1.72679000E-03	-3.22509000E-02	-2.04669000E-02
		 1.31615000E-03	-5.47406000E-02	-1.38418000E-02
		 1.58974000E-04	-5.63666000E-02	-1.29040000E-03
		-4.43403000E-04	-5.78802000E-02	 2.40615000E-02
		 1.70322000E-04	-5.57813000E-02	-1.26440000E-03
		-1.20206000E-03	-5.73304000E-02	 2.41744000E-02
		 8.65362000E-05	-3.24658000E-02	-6.43006000E-04
		-1.44068000E-04	-5.69393000E-02	 1.12302000E-02
		 1.76341000E-04	-3.38999000E-02	 1.90562000E-02
		 8.63287000E-04	-5.63906000E-02	-2.66350000E-02
		 1.71588000E-03	-5.58343000E-02	-2.68279000E-02
		-3.86836000E-05	-3.29986000E-02	-2.03824000E-02
		 4.92793000E-04	-5.62118000E-02	-1.37358000E-02
		 3.93720000E-04	-1.12636000E-01	-3.02823000E-03
		-4.45689000E-03	-1.14316000E-01	 3.14519000E-02
		 3.52026000E-04	-1.16820000E-01	-3.28894000E-03
		-3.26659000E-03	-1.18649000E-01	 3.12920000E-02
		 2.98702000E-04	-7.98806000E-02	-1.93983000E-03
		-2.07607000E-03	-1.13331000E-01	 1.42093000E-02
		-3.98808000E-03	-8.15479000E-02	 2.83744000E-02
		 3.83038000E-04	-1.14894000E-01	-3.16912000E-03
		-3.87099000E-03	-1.16635000E-01	 3.12574000E-02
		 2.88689000E-04	-8.35260000E-02	-2.09678000E-03
		-1.48657000E-03	-1.17596000E-01	 1.38591000E-02
		-2.65287000E-03	-8.51401000E-02	 2.82135000E-02
		 5.18585000E-03	-1.11933000E-01	-3.76213000E-02
		 4.00525000E-03	-1.16172000E-01	-3.79415000E-02
		 4.67891000E-03	-7.95235000E-02	-3.23329000E-02
		 2.74979000E-03	-1.12169000E-01	-2.02519000E-02
		 4.59083000E-03	-1.14298000E-01	-3.77165000E-02
		 3.25185000E-03	-8.32493000E-02	-3.25512000E-02
		 2.20163000E-03	-1.16339000E-01	-2.04441000E-02
		 2.96529000E-04	-1.19919000E-01	-3.35464000E-03
		-2.26831000E-03	-1.21875000E-01	 3.11216000E-02
		 3.21630000E-04	-1.18556000E-01	-3.33043000E-03
		-2.75566000E-03	-1.20395000E-01	 3.13498000E-02
		 3.04262000E-04	-8.57836000E-02	-2.16126000E-03
		-1.00182000E-03	-1.20724000E-01	 1.35731000E-02
		-1.30895000E-03	-8.74032000E-02	 2.80970000E-02
		 2.99041000E-03	-1.19207000E-01	-3.79717000E-02
		 3.50020000E-03	-1.17896000E-01	-3.81367000E-02
		 1.80844000E-03	-8.54650000E-02	-3.25329000E-02
		 1.66282000E-03	-1.19467000E-01	-2.03349000E-02
		 6.52850000E-04	-1.88524000E-01	-6.00444000E-03
		-4.91513000E-03	-1.90208000E-01	 3.33414000E-02
		 6.80154000E-04	-1.93818000E-01	-6.17106000E-03
		-4.58747000E-03	-1.96019000E-01	 3.31491000E-02
		 4.31998000E-04	-1.49410000E-01	-4.45823000E-03
		-2.12601000E-03	-1.89324000E-01	 1.35442000E-02
		-4.75257000E-03	-1.51160000E-01	 3.30568000E-02
		 6.35965000E-04	-1.91203000E-01	-6.04572000E-03
		-4.69511000E-03	-1.93103000E-01	 3.32098000E-02
		 4.16371000E-04	-1.54181000E-01	-4.68547000E-03
		-1.82313000E-03	-1.94846000E-01	 1.33497000E-02
		-4.03151000E-03	-1.55963000E-01	 3.29089000E-02
		 5.78762000E-03	-1.87253000E-01	-4.52841000E-02
		 5.49663000E-03	-1.92316000E-01	-4.55927000E-02
		 5.47367000E-03	-1.48330000E-01	-4.19413000E-02
		 3.28711000E-03	-1.87825000E-01	-2.55189000E-02
		 5.66997000E-03	-1.89737000E-01	-4.53859000E-02
		 4.81645000E-03	-1.53062000E-01	-4.23165000E-02
		 3.08440000E-03	-1.93059000E-01	-2.57703000E-02
		 5.19903000E-04	-1.98857000E-01	-6.40464000E-03
		-4.24428000E-03	-2.01401000E-01	 3.28459000E-02
		 6.19887000E-04	-1.96337000E-01	-6.32190000E-03
		-4.42041000E-03	-1.99172000E-01	 3.31186000E-02
		 3.78950000E-04	-1.58250000E-01	-4.91987000E-03
		-1.90841000E-03	-2.00056000E-01	 1.29763000E-02
		-3.20132000E-03	-1.59911000E-01	 3.26924000E-02
		 5.20216000E-03	-1.96995000E-01	-4.57406000E-02