# vtk DataFile Version 3.0

ASCII
DATASET UNSTRUCTURED_GRID

POINTS 522 double
	 1.00000000E+00	 1.00000000E+00	-5.96046000E-08
	 1.00000000E+00	 5.00000000E-01	-5.96046000E-08
	 1.00000000E+00	 5.00000000E-01	 1.00000000E+00
	 1.00000000E+00	 1.00000000E+00	 1.00000000E+00
	 5.00000000E-01	 1.00000000E+00	-5.96046000E-08
	 5.00000000E-01	 5.00000000E-01	-5.96046000E-08
	 5.00000000E-01	 5.00000000E-01	 1.00000000E+00
	 5.00000000E-01	 1.00000000E+00	 1.00000000E+00
	 1.00000000E+00	 7.50000000E-01	-5.96046000E-08
	 1.00000000E+00	 5.00000000E-01	 5.00000000E-01
	 1.00000000E+00	 7.50000000E-01	 1.00000000E+00
	 1.00000000E+00	 1.00000000E+00	 5.00000000E-01
	 7.50000000E-01	 1.00000000E+00	-5.96046000E-08
	 7.50000000E-01	 5.00000000E-01	-5.96046000E-08
	 7.50000000E-01	 5.00000000E-01	 1.00000000E+00
	 7.50000000E-01	 1.00000000E+00	 1.00000000E+00
	 5.00000000E-01	 7.50000000E-01	-5.96046000E-08
	 5.00000000E-01	 5.00000000E-01	 5.00000000E-01
	 5.00000000E-01	 7.50000000E-01	 1.00000000E+00
	 5.00000000E-01	 1.00000000E+00	 5.00000000E-01
	 1.00000000E+00	-1.49012000E-08	-5.96046000E-08
	 1.00000000E+00	-1.49012000E-08	 1.00000000E+00
	 5.00000000E-01	-1.49012000E-08	-5.96046000E-08
	 5.00000000E-01	-1.49012000E-08	 1.00000000E+00
	 1.00000000E+00	 2.50000000E-01	-5.96046000E-08
	 1.00000000E+00	-1.49012000E-08	 5.00000000E-01
	 1.00000000E+00	 2.50000000E-01	 1.00000000E+00
	 7.50000000E-01	-1.49012000E-08	-5.96046000E-08
	 7.50000000E-01	-1.49012000E-08	 1.00000000E+00
	 5.00000000E-01	 2.50000000E-01	-5.96046000E-08
	 5.00000000E-01	-1.49012000E-08	 5.00000000E-01
	 5.00000000E-01	 2.50000000E-01	 1.00000000E+00
	-7.45058000E-09	 1.00000000E+00	-5.96046000E-08
	-7.45058000E-09	 5.00000000E-01	-5.96046000E-08
	-7.45058000E-09	 5.00000000E-01	 1.00000000E+00
	-7.45058000E-09	 1.00000000E+00	 1.00000000E+00
	 2.50000000E-01	 1.00000000E+00	-5.96046000E-08
	 2.50000000E-01	 5.00000000E-01	-5.96046000E-08
	 2.50000000E-01	 5.00000000E-01	 1.00000000E+00
	 2.50000000E-01	 1.00000000E+00	 1.00000000E+00
	-7.45058000E-09	 7.50000000E-01	-5.96046000E-08
	-7.45058000E-09	 5.00000000E-01	 5.00000000E-01
	-7.45058000E-09	 7.50000000E-01	 1.00000000E+00
	-7.45058000E-09	 1.00000000E+00	 5.00000000E-01
	-7.45058000E-09	-1.49012000E-08	-5.96046000E-08
	-7.45058000E-09	-1.49012000E-08	 1.00000000E+00
	 2.50000000E-01	-1.49012000E-08	-5.96046000E-08
	 2.50000000E-01	-1.49012000E-08	 1.00000000E+00
	-7.45058000E-09	 2.50000000E-01	-5.96046000E-08
	-7.45058000E-09	-1.49012000E-08	 5.00000000E-01
	-7.45058000E-09	 2.50000000E-01	 1.00000000E+00
	 1.00000000E+00	 5.00000000E-01	 2.00000000E+00
	 1.00000000E+00	 1.00000000E+00	 2.00000000E+00
	 5.00000000E-01	 5.00000000E-01	 2.00000000E+00
	 5.00000000E-01	 1.00000000E+00	 2.00000000E+00
	 1.00000000E+00	 5.00000000E-01	 1.50000000E+00
	 1.00000000E+00	 7.50000000E-01	 2.00000000E+00
	 1.00000000E+00	 1.00000000E+00	 1.50000000E+00
	 7.50000000E-01	 5.00000000E-01	 2.00000000E+00
	 7.50000000E-01	 1.00000000E+00	 2.00000000E+00
	 5.00000000E-01	 5.00000000E-01	 1.50000000E+00
	 5.00000000E-01	 7.50000000E-01	 2.00000000E+00
	 5.00000000E-01	 1.00000000E+00	 1.50000000E+00
	 1.00000000E+00	-1.49012000E-08	 2.00000000E+00
	 5.00000000E-01	-1.49012000E-08	 2.00000000E+00
	 1.00000000E+00	-1.49012000E-08	 1.50000000E+00
	 1.00000000E+00	 2.50000000E-01	 2.00000000E+00
	 7.50000000E-01	-1.49012000E-08	 2.00000000E+00
	 5.00000000E-01	-1.49012000E-08	 1.50000000E+00
	 5.00000000E-01	 2.50000000E-01	 2.00000000E+00
	-7.45058000E-09	 5.00000000E-01	 2.00000000E+00
	-7.45058000E-09	 1.00000000E+00	 2.00000000E+00
	 2.50000000E-01	 5.00000000E-01	 2.00000000E+00
	 2.50000000E-01	 1.00000000E+00	 2.00000000E+00
	-7.45058000E-09	 5.00000000E-01	 1.50000000E+00
	-7.45058000E-09	 7.50000000E-01	 2.00000000E+00
	-7.45058000E-09	 1.00000000E+00	 1.50000000E+00
	-7.45058000E-09	-1.49012000E-08	 2.00000000E+00
	 2.50000000E-01	-1.49012000E-08	 2.00000000E+00
	-7.45058000E-09	-1.49012000E-08	 1.50000000E+00
	-7.45058000E-09	 2.50000000E-01	 2.00000000E+00
	 1.00000000E+00	 5.00000000E-01	 3.00000000E+00
	 1.00000000E+00	 1.00000000E+00	 3.00000000E+00
	 5.00000000E-01	 5.00000000E-01	 3.00000000E+00
	 5.00000000E-01	 1.00000000E+00	 3.00000000E+00
	 1.00000000E+00	 5.00000000E-01	 2.50000000E+00
	 1.00000000E+00	 7.50000000E-01	 3.00000000E+00
	 1.00000000E+00	 1.00000000E+00	 2.50000000E+00
	 7.50000000E-01	 5.00000000E-01	 3.00000000E+00
	 7.50000000E-01	 1.00000000E+00	 3.00000000E+00
	 5.00000000E-01	 5.00000000E-01	 2.50000000E+00
	 5.00000000E-01	 7.50000000E-01	 3.00000000E+00
	 5.00000000E-01	 1.00000000E+00	 2.50000000E+00
	 1.00000000E+00	-1.49012000E-08	 3.00000000E+00
	 5.00000000E-01	-1.49012000E-08	 3.00000000E+00
	 1.00000000E+00	-1.49012000E-08	 2.50000000E+00
	 1.00000000E+00	 2.50000000E-01	 3.00000000E+00
	 7.50000000E-01	-1.49012000E-08	 3.00000000E+00
	 5.00000000E-01	-1.49012000E-08	 2.50000000E+00
	 5.00000000E-01	 2.50000000E-01	 3.00000000E+00
	-7.45058000E-09	 5.00000000E-01	 3.00000000E+00
	-7.45058000E-09	 1.00000000E+00	 3.00000000E+00
	 2.50000000E-01	 5.00000000E-01	 3.00000000E+00
	 2.50000000E-01	 1.00000000E+00	 3.00000000E+00
	-7.45058000E-09	 5.00000000E-01	 2.50000000E+00
	-7.45058000E-09	 7.50000000E-01	 3.00000000E+00
	-7.45058000E-09	 1.00000000E+00	 2.50000000E+00
	-7.45058000E-09	-1.49012000E-08	 3.00000000E+00
	 2.50000000E-01	-1.49012000E-08	 3.00000000E+00
	-7.45058000E-09	-1.49012000E-08	 2.50000000E+00
	-7.45058000E-09	 2.50000000E-01	 3.00000000E+00
	 1.00000000E+00	 5.00000000E-01	 4.00000000E+00
	 1.00000000E+00	 1.00000000E+00	 4.00000000E+00
	 5.00000000E-01	 5.00000000E-01	 4.00000000E+00
	 5.00000000E-01	 1.00000000E+00	 4.00000000E+00
	 1.00000000E+00	 5.00000000E-01	 3.50000000E+00
	 1.00000000E+00	 7.50000000E-01	 4.00000000E+00
	 1.00000000E+00	 1.00000000E+00	 3.50000000E+00
	 7.50000000E-01	 5.00000000E-01	 4.00000000E+00
	 7.50000000E-01	 1.00000000E+00	 4.00000000E+00
	 5.00000000E-01	 5.00000000E-01	 3.50000000E+00
	 5.00000000E-01	 7.50000000E-01	 4.00000000E+00
	 5.00000000E-01	 1.00000000E+00	 3.50000000E+00
	 1.00000000E+00	-1.49012000E-08	 4.00000000E+00
	 5.00000000E-01	-1.49012000E-08	 4.00000000E+00
	 1.00000000E+00	-1.49012000E-08	 3.50000000E+00
	 1.00000000E+00	 2.50000000E-01	 4.00000000E+00
	 7.50000000E-01	-1.49012000E-08	 4.00000000E+00
	 5.00000000E-01	-1.49012000E-08	 3.50000000E+00
	 5.00000000E-01	 2.50000000E-01	 4.00000000E+00
	-7.45058000E-09	 5.00000000E-01	 4.00000000E+00
	-7.45058000E-09	 1.00000000E+00	 4.00000000E+00
	 2.50000000E-01	 5.00000000E-01	 4.00000000E+00
	 2.50000000E-01	 1.00000000E+00	 4.00000000E+00
	-7.45058000E-09	 5.00000000E-01	 3.50000000E+00
	-7.45058000E-09	 7.50000000E-01	 4.00000000E+00
	-7.45058000E-09	 1.00000000E+00	 3.50000000E+00
	-7.45058000E-09	-1.49012000E-08	 4.00000000E+00
	 2.50000000E-01	-1.49012000E-08	 4.00000000E+00
	-7.45058000E-09	-1.49012000E-08	 3.50000000E+00
	-7.45058000E-09	 2.50000000E-01	 4.00000000E+00
	 1.00000000E+00	 5.00000000E-01	 5.00000000E+00
	 1.00000000E+00	 1.00000000E+00	 5.00000000E+00
	 5.00000000E-01	 5.00000000E-01	 5.00000000E+00
	 5.00000000E-01	 1.00000000E+00	 5.00000000E+00
	 1.00000000E+00	 5.00000000E-01	 4.50000000E+00
	 1.00000000E+00	 7.50000000E-01	 5.00000000E+00
	 1.00000000E+00	 1.00000000E+00	 4.50000000E+00
	 7.50000000E-01	 5.00000000E-01	 5.00000000E+00
	 7.50000000E-01	 1.00000000E+00	 5.00000000E+00
	 5.00000000E-01	 5.00000000E-01	 4.50000000E+00
	 5.00000000E-01	 7.50000000E-01	 5.00000000E+00
	 5.00000000E-01	 1.00000000E+00	 4.50000000E+00
	 1.00000000E+00	-1.49012000E-08	 5.00000000E+00
	 5.00000000E-01	-1.49012000E-08	 5.00000000E+00
	 1.00000000E+00	-1.49012000E-08	 4.50000000E+00
	 1.00000000E+00	 2.50000000E-01	 5.00000000E+00
	 7.50000000E-01	-1.49012000E-08	 5.00000000E+00
	 5.00000000E-01	-1.49012000E-08	 4.50000000E+00
	 5.00000000E-01	 2.50000000E-01	 5.00000000E+00
	-7.45058000E-09	 5.00000000E-01	 5.00000000E+00
	-7.45058000E-09	 1.00000000E+00	 5.00000000E+00
	 2.50000000E-01	 5.00000000E-01	 5.00000000E+00
	 2.50000000E-01	 1.00000000E+00	 5.00000000E+00
	-7.45058000E-09	 5.00000000E-01	 4.50000000E+00
	-7.45058000E-09	 7.50000000E-01	 5.00000000E+00
	-7.45058000E-09	 1.00000000E+00	 4.50000000E+00
	-7.45058000E-09	-1.49012000E-08	 5.00000000E+00
	 2.50000000E-01	-1.49012000E-08	 5.00000000E+00
	-7.45058000E-09	-1.49012000E-08	 4.50000000E+00
	-7.45058000E-09	 2.50000000E-01	 5.00000000E+00
	 1.00000000E+00	 5.00000000E-01	 6.00000000E+00
	 1.00000000E+00	 1.00000000E+00	 6.00000000E+00
	 5.00000000E-01	 5.00000000E-01	 6.00000000E+00
	 5.00000000E-01	 1.00000000E+00	 6.00000000E+00
	 1.00000000E+00	 5.00000000E-01	 5.50000000E+00
	 1.00000000E+00	 7.50000000E-01	 6.00000000E+00
	 1.00000000E+00	 1.00000000E+00	 5.50000000E+00
	 7.50000000E-01	 5.00000000E-01	 6.00000000E+00
	 7.50000000E-01	 1.00000000E+00	 6.00000000E+00
	 5.00000000E-01	 5.00000000E-01	 5.50000000E+00
	 5.00000000E-01	 7.50000000E-01	 6.00000000E+00
	 5.00000000E-01	 1.00000000E+00	 5.50000000E+00
	 1.00000000E+00	-1.49012000E-08	 6.00000000E+00
	 5.00000000E-01	-1.49012000E-08	 6.00000000E+00
	 1.00000000E+00	-1.49012000E-08	 5.50000000E+00
	 1.00000000E+00	 2.50000000E-01	 6.00000000E+00
	 7.50000000E-01	-1.49012000E-08	 6.00000000E+00
	 5.00000000E-01	-1.49012000E-08	 5.50000000E+00
	 5.00000000E-01	 2.50000000E-01	 6.00000000E+00
	-7.45058000E-09	 5.00000000E-01	 6.00000000E+00
	-7.45058000E-09	 1.00000000E+00	 6.00000000E+00
	 2.50000000E-01	 5.00000000E-01	 6.00000000E+00
	 2.50000000E-01	 1.00000000E+00	 6.00000000E+00
	-7.45058000E-09	 5.00000000E-01	 5.50000000E+00
	-7.45058000E-09	 7.50000000E-01	 6.00000000E+00
	-7.45058000E-09	 1.00000000E+00	 5.50000000E+00
	-7.45058000E-09	-1.49012000E-08	 6.00000000E+00
	 2.50000000E-01	-1.49012000E-08	 6.00000000E+00
	-7.45058000E-09	-1.49012000E-08	 5.50000000E+00
	-7.45058000E-09	 2.50000000E-01	 6.00000000E+00
	 1.00000000E+00	 5.00000000E-01	 7.00000000E+00
[...]
POINT_DATA 522
FIELD U 1
	U 3 522 double
		 0.00000000E+00	 0.00000000E+00	 0.00000000E+00
		 0.00000000E+00	 0.00000000E+00	 0.00000000E+00
		-1.72571000E-05	-1.05058000E-04	 4.94895000E-05
		-3.44112000E-04	-5.04712000E-05	-1.63599000E-04
		 0.00000000E+00	 0.00000000E+00	 0.00000000E+00
		 0.00000000E+00	 0.00000000E+00	 0.00000000E+00
		-1.08918000E-05	-5.02145000E-04	 4.85831000E-05
		-4.66411000E-04	-4.42957000E-04	-1.45968000E-04
		 0.00000000E+00	 0.00000000E+00	 0.00000000E+00
		-1.35520000E-05	-1.28978000E-04	 2.47115000E-05
		-1.81468000E-04	-9.27920000E-05	-6.11266000E-05
		-1.76612000E-04	-1.22507000E-04	 5.14188000E-05
		 0.00000000E+00	 0.00000000E+00	 0.00000000E+00
		 0.00000000E+00	 0.00000000E+00	 0.00000000E+00
		-1.41959000E-05	-2.89772000E-04	 4.86172000E-05
		-4.05174000E-04	-2.31448000E-04	-1.91476000E-04
		 0.00000000E+00	 0.00000000E+00	 0.00000000E+00
		-6.30027000E-06	-3.11338000E-04	 2.16172000E-05
		-2.38173000E-04	-4.87068000E-04	-9.16619000E-05
		-2.07495000E-04	-2.97970000E-04	 6.24326000E-05
		 0.00000000E+00	 0.00000000E+00	 0.00000000E+00
		 3.11084000E-04	-3.47967000E-05	 2.61428000E-04
		 0.00000000E+00	 0.00000000E+00	 0.00000000E+00
		 4.45878000E-04	-4.27326000E-04	 2.42285000E-04
		 0.00000000E+00	 0.00000000E+00	 0.00000000E+00
		 1.50714000E-04	-1.05467000E-04	 1.03307000E-06
		 1.47493000E-04	-8.43079000E-05	 1.59454000E-04
		 0.00000000E+00	 0.00000000E+00	 0.00000000E+00
		 3.78336000E-04	-2.15983000E-04	 2.87550000E-04
		 0.00000000E+00	 0.00000000E+00	 0.00000000E+00
		 1.96394000E-04	-2.82366000E-04	-1.63880000E-05
		 2.16909000E-04	-4.79138000E-04	 1.88210000E-04
		 0.00000000E+00	 0.00000000E+00	 0.00000000E+00
		 0.00000000E+00	 0.00000000E+00	 0.00000000E+00
		-2.99783000E-06	-1.01713000E-03	 4.67758000E-05
		-5.81003000E-04	-9.55562000E-04	-1.66016000E-04
		 0.00000000E+00	 0.00000000E+00	 0.00000000E+00
		 0.00000000E+00	 0.00000000E+00	 0.00000000E+00
		-7.14230000E-06	-7.44539000E-04	 4.80158000E-05
		-5.23350000E-04	-6.86148000E-04	-9.57362000E-05
		 0.00000000E+00	 0.00000000E+00	 0.00000000E+00
		 1.34464000E-06	-5.32830000E-04	 2.08291000E-05
		-2.93555000E-04	-1.00031000E-03	-1.59730000E-04
		-2.17815000E-04	-5.04330000E-04	 4.72069000E-05
		 0.00000000E+00	 0.00000000E+00	 0.00000000E+00
		 5.75460000E-04	-9.40704000E-04	 2.59025000E-04
		 0.00000000E+00	 0.00000000E+00	 0.00000000E+00
		 5.10023000E-04	-6.70791000E-04	 1.91318000E-04
		 0.00000000E+00	 0.00000000E+00	 0.00000000E+00
		 2.21926000E-04	-4.90545000E-04	-3.14387000E-06
		 2.87573000E-04	-9.93082000E-04	 2.52609000E-04
		-1.79004000E-05	 1.70503000E-03	 8.98230000E-05
		-8.01453000E-04	 1.79723000E-03	-1.34169000E-03
		-1.02307000E-05	 8.14993000E-04	 9.19850000E-05
		-1.00269000E-03	 9.08491000E-04	-1.33822000E-03
		-1.79229000E-05	 4.44724000E-04	 7.07133000E-05
		-4.10652000E-04	 1.72361000E-03	-5.91185000E-04
		-5.73731000E-04	 5.18556000E-04	-6.86234000E-04
		-1.42279000E-05	 1.28729000E-03	 9.09295000E-05
		-9.02355000E-04	 1.38030000E-03	-1.37225000E-03
		-1.11191000E-05	-2.04325000E-04	 7.12399000E-05
		-5.06902000E-04	 8.33366000E-04	-6.19870000E-04
		-7.49948000E-04	-1.29777000E-04	-6.75963000E-04
		 7.65037000E-04	 1.81455000E-03	 1.51954000E-03
		 9.80801000E-04	 9.27197000E-04	 1.52058000E-03
		 5.37987000E-04	 5.34523000E-04	 8.26059000E-04
		 3.74711000E-04	 1.73185000E-03	 7.70417000E-04
		 8.73085000E-04	 1.39843000E-03	 1.55220000E-03
		 7.27613000E-04	-1.13602000E-04	 8.17366000E-04
		 4.86048000E-04	 8.42553000E-04	 8.03417000E-04
		-2.08267000E-06	-2.77972000E-04	 9.55520000E-05
		-1.20684000E-03	-1.91411000E-04	-1.33518000E-03
		-6.14785000E-06	 2.94969000E-04	 9.34962000E-05
		-1.10527000E-03	 3.88218000E-04	-1.30703000E-03
		-3.61002000E-06	-1.03223000E-03	 7.21784000E-05
		-6.01388000E-04	-2.63139000E-04	-6.47020000E-04
		-9.32684000E-04	-9.66348000E-04	-6.83954000E-04
		 1.20057000E-03	-1.69455000E-04	 1.52474000E-03
		 1.09089000E-03	 4.08089000E-04	 1.49271000E-03
		 9.24931000E-04	-9.48506000E-04	 8.27880000E-04
		 5.96775000E-04	-2.51780000E-04	 8.37557000E-04
		-1.89979000E-05	 6.40355000E-03	 1.17791000E-04
		-1.25315000E-03	 6.46994000E-03	-2.58961000E-03
		-1.00401000E-05	 5.07725000E-03	 1.25192000E-04
		-1.42272000E-03	 5.14835000E-03	-2.58629000E-03
		-1.87125000E-05	 3.72153000E-03	 1.05723000E-04
		-6.37136000E-04	 6.41525000E-03	-1.19453000E-03
		-1.02678000E-03	 3.80433000E-03	-1.99034000E-03
		-1.49538000E-05	 5.76165000E-03	 1.21453000E-04
		-1.33773000E-03	 5.83188000E-03	-2.62144000E-03
		-1.03701000E-05	 2.61678000E-03	 1.10189000E-04
		-7.15693000E-04	 5.09173000E-03	-1.22232000E-03
		-1.21162000E-03	 2.70030000E-03	-1.98973000E-03
		 1.21708000E-03	 6.50013000E-03	 2.82421000E-03
		 1.40288000E-03	 5.17738000E-03	 2.83508000E-03
		 9.89366000E-04	 3.82652000E-03	 2.20050000E-03
		 5.99748000E-04	 6.42987000E-03	 1.42979000E-03
		 1.30933000E-03	 5.86132000E-03	 2.86333000E-03
		 1.18976000E-03	 2.72330000E-03	 2.20835000E-03
		 6.95865000E-04	 5.10563000E-03	 1.47230000E-03
		 1.27579000E-07	 3.57738000E-03	 1.33614000E-04
		-1.58297000E-03	 3.65111000E-03	-2.57393000E-03
		-4.82645000E-06	 4.34937000E-03	 1.29194000E-04
		-1.50272000E-03	 4.42069000E-03	-2.55134000E-03
		-1.11906000E-06	 1.32004000E-03	 1.16133000E-04
		-7.92023000E-04	 3.59309000E-03	-1.24113000E-03
		-1.39602000E-03	 1.40028000E-03	-1.97953000E-03
		 1.58143000E-03	 3.68288000E-03	 2.83896000E-03
		 1.49199000E-03	 4.45044000E-03	 2.80761000E-03
		 1.39127000E-03	 1.42698000E-03	 2.20964000E-03
		 7.91910000E-04	 3.60885000E-03	 1.50781000E-03
		-2.21839000E-05	 1.37237000E-02	 1.29830000E-04
		-1.99995000E-03	 1.37565000E-02	-3.57973000E-03
		-1.15123000E-05	 1.16779000E-02	 1.42597000E-04
		-2.11774000E-03	 1.17171000E-02	-3.57298000E-03
		-1.92192000E-05	 9.74391000E-03	 1.26114000E-04
		-1.01237000E-03	 1.37250000E-02	-1.64132000E-03
		-1.55823000E-03	 9.79028000E-03	-3.11956000E-03
		-1.72436000E-05	 1.27155000E-02	 1.36282000E-04
		-2.05868000E-03	 1.27529000E-02	-3.64908000E-03
		-9.71104000E-06	 8.11848000E-03	 1.36055000E-04
		-1.06396000E-03	 1.16826000E-02	-1.70361000E-03
		-1.70956000E-03	 8.17495000E-03	-3.11560000E-03
		 1.95895000E-03	 1.38061000E-02	 3.83959000E-03
		 2.09743000E-03	 1.17634000E-02	 3.85803000E-03
		 1.52296000E-03	 9.82946000E-03	 3.37140000E-03
		 9.68919000E-04	 1.37489000E-02	 1.90121000E-03
		 2.02768000E-03	 1.28015000E-02	 3.92159000E-03
		 1.69187000E-03	 8.21128000E-03	 3.38668000E-03
		 1.04201000E-03	 1.17051000E-02	 1.98884000E-03
		 3.16755000E-07	 9.50823000E-03	 1.55241000E-04
		-2.22345000E-03	 9.55430000E-03	-3.55484000E-03
		-5.52495000E-06	 1.06089000E-02	 1.48779000E-04
		-2.17012000E-03	 1.06498000E-02	-3.49874000E-03
		 1.01523000E-06	 6.34196000E-03	 1.46624000E-04
		-1.11321000E-03	 9.51638000E-03	-1.75425000E-03
		-1.84277000E-03	 6.40630000E-03	-3.09965000E-03
		 2.22527000E-03	 9.59943000E-03	 3.86468000E-03
		 2.16103000E-03	 1.06946000E-02	 3.79578000E-03
		 1.84459000E-03	 6.44336000E-03	 3.39119000E-03
		 1.11425000E-03	 9.53900000E-03	 2.06473000E-03
		-3.55221000E-05	 2.30061000E-02	 1.25169000E-04
		-3.12531000E-03	 2.30249000E-02	-4.28036000E-03
		-2.19403000E-05	 1.98679000E-02	 1.42921000E-04
		-3.21139000E-03	 1.98850000E-02	-4.25951000E-03
		-2.71134000E-05	 1.82010000E-02	 1.29354000E-04
		-1.57923000E-03	 2.30044000E-02	-1.99950000E-03
		-2.54280000E-03	 1.82244000E-02	-3.94379000E-03
		-2.86401000E-05	 2.14491000E-02	 1.34515000E-04
		-3.16853000E-03	 2.14651000E-02	-4.35369000E-03
		-1.50419000E-05	 1.56309000E-02	 1.45180000E-04
		-1.61692000E-03	 1.98650000E-02	-2.06474000E-03
		-2.63533000E-03	 1.56574000E-02	-3.93100000E-03
		 3.05524000E-03	 2.30964000E-02	 4.52929000E-03
		 3.16975000E-03	 1.99545000E-02	 4.54434000E-03
		 2.49116000E-03	 1.82848000E-02	 4.20273000E-03
		 1.50843000E-03	 2.30394000E-02	 2.24981000E-03
		 3.11291000E-03	 2.15371000E-02	 4.62100000E-03
		 2.60821000E-03	 1.57148000E-02	 4.22139000E-03
		 1.57381000E-03	 1.99003000E-02	 2.35037000E-03
		-8.27939000E-06	 1.66251000E-02	 1.58550000E-04
		-3.29840000E-03	 1.66459000E-02	-4.24732000E-03
		-1.52471000E-05	 1.82585000E-02	 1.50801000E-04
		-3.25472000E-03	 1.82773000E-02	-4.16517000E-03
		-2.33983000E-06	 1.29570000E-02	 1.59562000E-04
		-1.65465000E-03	 1.66232000E-02	-2.13858000E-03
		-2.71992000E-03	 1.29911000E-02	-3.91426000E-03
		 3.28482000E-03	 1.67119000E-02	 4.56380000E-03
		 3.22703000E-03	 1.83439000E-02	 4.46637000E-03
		 2.71788000E-03	 1.30453000E-02	 4.23310000E-03
		 1.63896000E-03	 1.66578000E-02	 2.45542000E-03
		-7.02799000E-05	 3.34932000E-02	 9.27654000E-05
		-4.15408000E-03	 3.35337000E-02	-5.19787000E-03
		-5.26014000E-05	 2.93309000E-02	 1.14907000E-04
		-4.30066000E-03	 2.93663000E-02	-5.16928000E-03
		-5.00346000E-05	 2.80703000E-02	 1.14171000E-04
		-2.11229000E-03	 3.34918000E-02	-2.50305000E-03
		-3.67432000E-03	 2.81024000E-02	-4.68457000E-03
		-6.12490000E-05	 3.14338000E-02	 1.03930000E-04
		-4.22752000E-03	 3.14707000E-02	-5.24524000E-03
		-3.50915000E-05	 2.43868000E-02	 1.33483000E-04
		-2.17734000E-03	 2.93255000E-02	-2.54017000E-03
		-3.78533000E-03	 2.44133000E-02	-4.65710000E-03
		 4.00988000E-03	 3.36255000E-02	 5.37911000E-03
		 4.19289000E-03	 2.94630000E-02	 5.39488000E-03
		 3.57260000E-03	 2.81829000E-02	 4.90913000E-03
		 1.97067000E-03	 3.35366000E-02	 2.68755000E-03
		 4.10182000E-03	 3.15665000E-02	 5.44868000E-03
		 3.71478000E-03	 2.44955000E-02	 4.92131000E-03
		 2.07144000E-03	 2.93746000E-02	 2.76891000E-03
		-3.38639000E-05	 2.50029000E-02	 1.39664000E-04
		-4.45637000E-03	 2.50293000E-02	-5.14996000E-03
		-4.36709000E-05	 2.71886000E-02	 1.26605000E-04
		-4.37931000E-03	 2.72225000E-02	-5.08889000E-03
		-1.96912000E-05	 2.05716000E-02	 1.52174000E-04
		-2.24294000E-03	 2.49922000E-02	-2.58819000E-03
		-3.90489000E-03	 2.05943000E-02	-4.64613000E-03
		 4.38743000E-03	 2.51295000E-02	 5.42521000E-03
		 4.28997000E-03	 2.73195000E-02	 5.33832000E-03
		 3.86629000E-03	 2.06767000E-02	 4.94877000E-03
		 2.17520000E-03	 2.50447000E-02	 2.86622000E-03
		-1.31585000E-04	 4.60436000E-02	 2.08422000E-05
		-4.95162000E-03	 4.60617000E-02	-6.46458000E-03
		-1.06103000E-04	 4.11544000E-02	 4.92932000E-05
		-5.07513000E-03	 4.11659000E-02	-6.44128000E-03
		-9.66892000E-05	 3.94506000E-02	 6.17642000E-05
		-2.54156000E-03	 4.60336000E-02	-3.15672000E-03
		-4.57502000E-03	 3.94810000E-02	-5.83589000E-03
		-1.19269000E-04	 4.36185000E-02	 3.48860000E-05
		-5.01416000E-03	 4.36319000E-02	-6.49946000E-03
		-7.44663000E-05	 3.48875000E-02	 8.70004000E-05
		-2.59256000E-03	 4.11401000E-02	-3.17312000E-03
		-4.73068000E-03	 3.49136000E-02	-5.81013000E-03
		 4.68669000E-03	 4.61921000E-02	 6.50531000E-03
		 4.86357000E-03	 4.12982000E-02	 6.53837000E-03
		 4.37906000E-03	 3.95912000E-02	 5.95586000E-03
		 2.27798000E-03	 4.60963000E-02	 3.19860000E-03
		 4.77459000E-03	 4.37649000E-02	 6.56811000E-03
		 4.58006000E-03	 3.50275000E-02	 5.97972000E-03
		 2.38071000E-03	 4.12053000E-02	 3.27165000E-03
		-7.96760000E-05	 3.61094000E-02	 7.74918000E-05
		-5.21145000E-03	 3.61126000E-02	-6.39561000E-03
		-9.26800000E-05	 3.86527000E-02	 6.31411000E-05
		-5.14412000E-03	 3.86623000E-02	-6.38656000E-03
		-5.11662000E-05	 3.01455000E-02	 1.16009000E-04
		-2.64476000E-03	 3.60912000E-02	-3.16737000E-03
		-4.89768000E-03	 3.01603000E-02	-5.77857000E-03
		 5.05502000E-03	 3.62427000E-02	 6.54874000E-03
		 4.96111000E-03	 3.87933000E-02	 6.51034000E-03
		 4.79456000E-03	 3.02768000E-02	 6.00558000E-03
		 2.48631000E-03	 3.61554000E-02	 3.32281000E-03
		-2.13537000E-04	 6.03338000E-02	-8.15301000E-05
		-5.45895000E-03	 6.02890000E-02	-7.06593000E-03
		-1.95806000E-04	 5.50892000E-02	-4.84666000E-05
		-5.43738000E-03	 5.50221000E-02	-7.02972000E-03
		-1.73346000E-04	 5.31700000E-02	-3.00696000E-05
		-2.83394000E-03	 6.03120000E-02	-3.54592000E-03
		-5.27613000E-03	 5.31397000E-02	-6.88290000E-03
		-2.03496000E-04	 5.77173000E-02	-6.39397000E-05
		-5.44527000E-03	 5.76588000E-02	-7.06332000E-03
		-1.48952000E-04	 4.80345000E-02	 2.16200000E-06
		-2.81218000E-03	 5.50567000E-02	-3.52200000E-03
		-5.32609000E-03	 4.79935000E-02	-6.85275000E-03
		 5.02517000E-03	 6.04519000E-02	 6.91124000E-03
		 5.04972000E-03	 5.51917000E-02	 6.94322000E-03
		 4.92534000E-03	 5.32863000E-02	 6.82865000E-03
		 2.40522000E-03	 6.03940000E-02	 3.38515000E-03
		 5.03569000E-03	 5.78275000E-02	 6.94441000E-03
		 5.03118000E-03	 4.81442000E-02	 6.86314000E-03
		 2.42205000E-03	 5.51430000E-02	 3.42775000E-03
		-1.77153000E-04	 4.98012000E-02	-2.69179000E-05
		-5.43114000E-03	 4.97309000E-02	-6.96266000E-03
		-1.87924000E-04	 5.24399000E-02	-3.60556000E-05
		-5.43767000E-03	 5.23741000E-02	-6.99636000E-03
		-1.23382000E-04	 4.28140000E-02	 2.61529000E-05
		-2.79902000E-03	 4.97671000E-02	-3.47455000E-03
		-5.38221000E-03	 4.27682000E-02	-6.79414000E-03
		 5.09067000E-03	 4.98851000E-02	 6.92059000E-03
		 5.07235000E-03	 5.25392000E-02	 6.93517000E-03
		 5.14542000E-03	 4.29081000E-02	 6.85266000E-03
		 2.44819000E-03	 4.98433000E-02	 3.42414000E-03
		 0.00000000E+00	 0.00000000E+00	 0.00000000E+00
		 0.00000000E+00	 0.00000000E+00	 0.00000000E+00
		-4.89767000E-05	-3.16163000E-03	-1.60893000E-04
		-2.07773000E-03	-3.37026000E-03	 3.89544000E-03
		 0.00000000E+00	 0.00000000E+00	 0.00000000E+00
		 0.00000000E+00	 0.00000000E+00	 0.00000000E+00
		-7.58836000E-05	-4.95102000E-03	-2.31101000E-04
		-1.62799000E-03	-5.16719000E-03	 3.88681000E-03
		 0.00000000E+00	 0.00000000E+00	 0.00000000E+00
		 4.48878000E-06	-3.56417000E-04	-7.02700000E-05
		-1.06661000E-03	-3.17691000E-03	 1.92434000E-03
		-1.36109000E-03	-7.05716000E-04	 2.04714000E-03
		 0.00000000E+00	 0.00000000E+00	 0.00000000E+00
		 0.00000000E+00	 0.00000000E+00	 0.00000000E+00
		-6.08323000E-05	-4.14303000E-03	-1.97829000E-04
		-1.84670000E-03	-4.35185000E-03	 3.76016000E-03
		 0.00000000E+00	 0.00000000E+00	 0.00000000E+00
		-2.43392000E-05	-1.40798000E-03	-9.96404000E-05
		-8.52856000E-04	-4.96465000E-03	 1.75098000E-03
		-8.02728000E-04	-1.72644000E-03	 1.96622000E-03
		 0.00000000E+00	 0.00000000E+00	 0.00000000E+00
		 1.98334000E-03	-3.37444000E-03	-4.22295000E-03
		 0.00000000E+00	 0.00000000E+00	 0.00000000E+00
		 1.48453000E-03	-5.18507000E-03	-4.35188000E-03
		 0.00000000E+00	 0.00000000E+00	 0.00000000E+00
		 1.37823000E-03	-7.35093000E-04	-2.20012000E-03
		 9.68066000E-04	-3.17775000E-03	-2.24666000E-03
		 0.00000000E+00	 0.00000000E+00	 0.00000000E+00
		 1.73115000E-03	-4.36321000E-03	-4.16005000E-03
		 0.00000000E+00	 0.00000000E+00	 0.00000000E+00
		 7.64369000E-04	-1.77670000E-03	-2.17809000E-03
		 7.01285000E-04	-4.97398000E-03	-2.21323000E-03
		 0.00000000E+00	 0.00000000E+00	 0.00000000E+00
		 0.00000000E+00	 0.00000000E+00	 0.00000000E+00
		-1.08075000E-04	-6.27215000E-03	-2.92649000E-04
		-1.16733000E-03	-6.45357000E-03	 3.76872000E-03
		 0.00000000E+00	 0.00000000E+00	 0.00000000E+00
		 0.00000000E+00	 0.00000000E+00	 0.00000000E+00
		-9.07055000E-05	-5.69591000E-03	-2.61069000E-04
		-1.39966000E-03	-5.89426000E-03	 3.97212000E-03
		 0.00000000E+00	 0.00000000E+00	 0.00000000E+00
		-6.30839000E-05	-1.92226000E-03	-1.37161000E-04
		-6.41071000E-04	-6.27069000E-03	 1.52086000E-03
		-1.99240000E-04	-2.19608000E-03	 1.98017000E-03
		 0.00000000E+00	 0.00000000E+00	 0.00000000E+00
		 9.60173000E-04	-6.48114000E-03	-4.35257000E-03
		 0.00000000E+00	 0.00000000E+00	 0.00000000E+00
		 1.22586000E-03	-5.92047000E-03	-4.49495000E-03
		 0.00000000E+00	 0.00000000E+00	 0.00000000E+00
		 8.23919000E-05	-2.26476000E-03	-2.26824000E-03
		 4.27993000E-04	-6.28779000E-03	-2.10455000E-03
		-1.90172000E-04	-1.36936000E-02	-3.98116000E-04
		-3.42435000E-03	-1.37946000E-02	 6.05166000E-03
		-2.06343000E-04	-1.68316000E-02	-5.00167000E-04
		-3.26183000E-03	-1.69356000E-02	 5.99091000E-03
		-1.17857000E-04	-7.75465000E-03	-2.70167000E-04
		-1.80627000E-03	-1.37278000E-02	 2.82487000E-03
		-2.78804000E-03	-7.94153000E-03	 5.24720000E-03
		-1.99032000E-04	-1.52783000E-02	-4.52355000E-04
		-3.34350000E-03	-1.53793000E-02	 5.94027000E-03
		-1.40868000E-04	-1.02413000E-02	-3.61065000E-04
		-1.72853000E-03	-1.68656000E-02	 2.66359000E-03
		-2.44853000E-03	-1.04296000E-02	 5.19522000E-03
		 3.04542000E-03	-1.37452000E-02	-6.85184000E-03
		 2.84246000E-03	-1.68929000E-02	-6.99291000E-03
		 2.55544000E-03	-7.91876000E-03	-5.79562000E-03
		 1.42602000E-03	-1.37027000E-02	-3.62264000E-03
		 2.94528000E-03	-1.53401000E-02	-6.84615000E-03
		 2.16968000E-03	-1.04157000E-02	-5.92292000E-03
		 1.31884000E-03	-1.68466000E-02	-3.66195000E-03
		-2.27683000E-04	-1.97970000E-02	-5.95860000E-04
		-3.08529000E-03	-1.98848000E-02	 5.85304000E-03
		-2.17043000E-04	-1.83284000E-02	-5.46292000E-04
		-3.17279000E-03	-1.84571000E-02	 6.04783000E-03
		-1.68194000E-04	-1.23741000E-02	-4.44282000E-04
		-1.66270000E-03	-1.98195000E-02	 2.42672000E-03
		-2.11753000E-03	-1.25554000E-02	 5.07562000E-03
		 2.65095000E-03	-1.98565000E-02	-7.04554000E-03
		 2.74646000E-03	-1.83911000E-02	-7.14400000E-03
		 1.79265000E-03	-1.25558000E-02	-5.96578000E-03
		 1.21339000E-03	-1.98097000E-02	-3.61502000E-03
		-2.91491000E-04	-2.67728000E-02	-6.89885000E-04
		-4.62086000E-03	-2.66484000E-02	 5.62872000E-03
		-2.95941000E-04	-3.11547000E-02	-7.62960000E-04
		-4.79462000E-03	-3.11511000E-02	 5.58851000E-03
		-2.50721000E-04	-2.02667000E-02	-5.41007000E-04
		-2.45000000E-03	-2.67341000E-02	 2.47618000E-03
		-4.03793000E-03	-2.02819000E-02	 6.14409000E-03
		-2.93661000E-04	-2.89421000E-02	-7.22677000E-04
		-4.71224000E-03	-2.88921000E-02	 5.52282000E-03
		-2.61958000E-04	-2.40522000E-02	-6.37981000E-04
		-2.56913000E-03	-3.11818000E-02	 2.32001000E-03
		-4.06120000E-03	-2.40825000E-02	 6.09213000E-03
		 3.99313000E-03	-2.66399000E-02	-6.98774000E-03
		 4.19162000E-03	-3.10351000E-02	-7.12784000E-03
		 3.52574000E-03	-2.02303000E-02	-7.22392000E-03
		 1.85244000E-03	-2.67325000E-02	-3.84292000E-03
		 4.09025000E-03	-2.88108000E-02	-6.97644000E-03
		 3.53349000E-03	-2.40077000E-02	-7.36654000E-03
		 1.95094000E-03	-3.11272000E-02	-3.86478000E-03
		-2.99646000E-04	-3.57417000E-02	-8.40703000E-04
		-5.07580000E-03	-3.58755000E-02	 5.47437000E-03
		-2.97812000E-04	-3.34375000E-02	-8.03454000E-04
		-4.93847000E-03	-3.33712000E-02	 5.66462000E-03
		-2.63567000E-04	-2.78536000E-02	-7.32790000E-04
		-2.65361000E-03	-3.58416000E-02	 2.08824000E-03
		-4.11335000E-03	-2.79177000E-02	 5.95430000E-03
		 4.42313000E-03	-3.56508000E-02	-7.19582000E-03
		 4.30665000E-03	-3.33102000E-02	-7.28512000E-03
		 3.54017000E-03	-2.78028000E-02	-7.42068000E-03
		 2.05334000E-03	-3.57372000E-02	-3.81360000E-03
		-2.51341000E-04	-3.73631000E-02	-9.69818000E-04
		-5.17011000E-03	-3.70025000E-02	 2.83438000E-03
		-2.55923000E-04	-4.25790000E-02	-9.58593000E-04
		-5.80340000E-03	-4.26951000E-02	 2.85983000E-03
		-3.22757000E-04	-3.26278000E-02	-8.32974000E-04
		-2.70887000E-03	-3.72485000E-02	 9.05375000E-04
		-5.04082000E-03	-3.24723000E-02	 4.44899000E-03
		-2.54571000E-04	-3.98695000E-02	-9.63897000E-04
		-5.47938000E-03	-3.96953000E-02	 2.84843000E-03
		-3.31326000E-04	-3.75584000E-02	-9.14305000E-04
		-2.90586000E-03	-4.26894000E-02	 9.22608000E-04
		-5.46457000E-03	-3.73673000E-02	 4.47790000E-03
		 4.48678000E-03	-3.71086000E-02	-4.76661000E-03
		 4.98107000E-03	-4.21646000E-02	-4.76828000E-03
		 4.36082000E-03	-3.24219000E-02	-6.10547000E-03
		 2.11766000E-03	-3.73083000E-02	-2.84246000E-03
		 4.73643000E-03	-3.95669000E-02	-4.76889000E-03
		 4.72442000E-03	-3.73130000E-02	-6.19464000E-03
		 2.35350000E-03	-4.24178000E-02	-2.83800000E-03
		-3.86288000E-04	-4.83328000E-02	-9.51637000E-04
		-6.31346000E-03	-4.88399000E-02	 2.85396000E-03
		-3.20760000E-04	-4.53529000E-02	-9.54563000E-04
		-6.05876000E-03	-4.61802000E-02	 2.87179000E-03
		-3.54153000E-04	-4.28695000E-02	-1.02685000E-03
		-3.46069000E-03	-4.86252000E-02	 9.09587000E-04
		-5.75069000E-03	-4.25909000E-02	 4.38872000E-03
		 5.52646000E-03	-4.77624000E-02	-4.74711000E-03