<?xml version="1.0"?>
<VTKFile type="UnstructuredGrid" version="0.1" byte_order="LittleEndian">
	<UnstructuredGrid>
		<Piece NumberOfPoints="522" NumberOfCells="64">
			<Points>
				<DataArray type="Float64" NumberOfComponents="3" format="ascii">
					 1.00000000E+00	 1.00000000E+00	-5.96046000E-08
					 1.00000000E+00	 5.00000000E-01	-5.96046000E-08
					 1.00000000E+00	 5.00000000E-01	 1.00000000E+00
					 1.00000000E+00	 1.00000000E+00	 1.00000000E+00
					 5.00000000E-01	 1.00000000E+00	-5.96046000E-08
					 5.00000000E-01	 5.00000000E-01	-5.96046000E-08
					 5.00000000E-01	 5.00000000E-01	 1.00000000E+00
					 5.00000000E-01	 1.00000000E+00	 1.00000000E+00
					 1.00000000E+00	 7.50000000E-01	-5.96046000E-08
					 1.00000000E+00	 5.00000000E-01	 5.00000000E-01
					 1.00000000E+00	 7.50000000E-01	 1.00000000E+00
					 1.00000000E+00	 1.00000000E+00	 5.00000000E-01
					 7.50000000E-01	 1.00000000E+00	-5.96046000E-08
					 7.50000000E-01	 5.00000000E-01	-5.96046000E-08
					 7.50000000E-01	 5.00000000E-01	 1.00000000E+00
					 7.50000000E-01	 1.00000000E+00	 1.00000000E+00
					 5.00000000E-01	 7.50000000E-01	-5.96046000E-08
					 5.00000000E-01	 5.00000000E-01	 5.00000000E-01
					 5.00000000E-01	 7.50000000E-01	 1.00000000E+00
					 5.00000000E-01	 1.00000000E+00	 5.00000000E-01
					 1.00000000E+00	-1.49012000E-08	-5.96046000E-08
					 1.00000000E+00	-1.49012000E-08	 1.00000000E+00
					 5.00000000E-01	-1.49012000E-08	-5.96046000E-08
					 5.00000000E-01	-1.49012000E-08	 1.00000000E+00
					 1.00000000E+00	 2.50000000E-01	-5.96046000E-08
					 1.00000000E+00	-1.49012000E-08	 5.00000000E-01
					 1.00000000E+00	 2.50000000E-01	 1.00000000E+00
					 7.50000000E-01	-1.49012000E-08	-5.96046000E-08
					 7.50000000E-01	-1.49012000E-08	 1.00000000E+00
					 5.00000000E-01	 2.50000000E-01	-5.96046000E-08
					 5.00000000E-01	-1.49012000E-08	 5.00000000E-01
					 5.00000000E-01	 2.50000000E-01	 1.00000000E+00
					-7.45058000E-09	 1.00000000E+00	-5.96046000E-08
					-7.45058000E-09	 5.00000000E-01	-5.96046000E-08
					-7.45058000E-09	 5.00000000E-01	 1.00000000E+00
					-7.45058000E-09	 1.00000000E+00	 1.00000000E+00
					 2.50000000E-01	 1.00000000E+00	-5.96046000E-08
					 2.50000000E-01	 5.00000000E-01	-5.96046000E-08
					 2.50000000E-01	 5.00000000E-01	 1.00000000E+00
					 2.50000000E-01	 1.00000000E+00	 1.00000000E+00
					-7.45058000E-09	 7.50000000E-01	-5.96046000E-08
					-7.45058000E-09	 5.00000000E-01	 5.00000000E-01
					-7.45058000E-09	 7.50000000E-01	 1.00000000E+00
					-7.45058000E-09	 1.00000000E+00	 5.00000000E-01
					-7.45058000E-09	-1.49012000E-08	-5.96046000E-08
					-7.45058000E-09	-1.49012000E-08	 1.00000000E+00
					 2.50000000E-01	-1.49012000E-08	-5.96046000E-08
					 2.50000000E-01	-1.49012000E-08	 1.00000000E+00
					-7.45058000E-09	 2.50000000E-01	-5.96046000E-08
					-7.45058000E-09	-1.49012000E-08	 5.00000000E-01
					-7.45058000E-09	 2.50000000E-01	 1.00000000E+00
					 1.00000000E+00	 5.00000000E-01	 2.00000000E+00
					 1.00000000E+00	 1.00000000E+00	 2.00000000E+00
					 5.00000000E-01	 5.00000000E-01	 2.00000000E+00
					 5.00000000E-01	 1.00000000E+00	 2.00000000E+00
					 1.00000000E+00	 5.00000000E-01	 1.50000000E+00
					 1.00000000E+00	 7.50000000E-01	 2.00000000E+00
					 1.00000000E+00	 1.00000000E+00	 1.50000000E+00
					 7.50000000E-01	 5.00000000E-01	 2.00000000E+00
					 7.50000000E-01	 1.00000000E+00	 2.00000000E+00
					 5.00000000E-01	 5.00000000E-01	 1.50000000E+00
					 5.00000000E-01	 7.50000000E-01	 2.00000000E+00
					 5.00000000E-01	 1.00000000E+00	 1.50000000E+00
					 1.00000000E+00	-1.49012000E-08	 2.00000000E+00
					 5.00000000E-01	-1.49012000E-08	 2.00000000E+00
					 1.00000000E+00	-1.49012000E-08	 1.50000000E+00
					 1.00000000E+00	 2.50000000E-01	 2.00000000E+00
					 7.50000000E-01	-1.49012000E-08	 2.00000000E+00
					 5.00000000E-01	-1.49012000E-08	 1.50000000E+00
					 5.00000000E-01	 2.50000000E-01	 2.00000000E+00
					-7.45058000E-09	 5.00000000E-01	 2.00000000E+00
					-7.45058000E-09	 1.00000000E+00	 2.00000000E+00
					 2.50000000E-01	 5.00000000E-01	 2.00000000E+00
					 2.50000000E-01	 1.00000000E+00	 2.00000000E+00
					-7.45058000E-09	 5.00000000E-01	 1.50000000E+00
					-7.45058000E-09	 7.50000000E-01	 2.00000000E+00
					-7.45058000E-09	 1.00000000E+00	 1.50000000E+00
					-7.45058000E-09	-1.49012000E-08	 2.00000000E+00
					 2.50000000E-01	-1.49012000E-08	 2.00000000E+00
					-7.45058000E-09	-1.49012000E-08	 1.50000000E+00
					-7.45058000E-09	 2.50000000E-01	 2.00000000E+00
					 1.00000000E+00	 5.00000000E-01	 3.00000000E+00
					 1.00000000E+00	 1.00000000E+00	 3.00000000E+00
					 5.00000000E-01	 5.00000000E-01	 3.00000000E+00
					 5.00000000E-01	 1.00000000E+00	 3.00000000E+00
					 1.00000000E+00	 5.00000000E-01	 2.50000000E+00
					 1.00000000E+00	 7.50000000E-01	 3.00000000E+00
					 1.00000000E+00	 1.00000000E+00	 2.50000000E+00
					 7.50000000E-01	 5.00000000E-01	 3.00000000E+00
					 7.50000000E-01	 1.00000000E+00	 3.00000000E+00
					 5.00000000E-01	 5.00000000E-01	 2.50000000E+00
					 5.00000000E-01	 7.50000000E-01	 3.00000000E+00
					 5.00000000E-01	 1.00000000E+00	 2.50000000E+00
					 1.00000000E+00	-1.49012000E-08	 3.00000000E+00
					 5.00000000E-01	-1.49012000E-08	 3.00000000E+00
					 1.00000000E+00	-1.49012000E-08	 2.50000000E+00
					 1.00000000E+00	 2.50000000E-01	 3.00000000E+00
					 7.50000000E-01	-1.49012000E-08	 3.00000000E+00
					 5.00000000E-01	-1.49012000E-08	 2.50000000E+00
					 5.00000000E-01	 2.50000000E-01	 3.00000000E+00
					-7.45058000E-09	 5.00000000E-01	 3.00000000E+00
					-7.45058000E-09	 1.00000000E+00	 3.00000000E+00
					 2.50000000E-01	 5.00000000E-01	 3.00000000E+00
					 2.50000000E-01	 1.00000000E+00	 3.00000000E+00
					-7.45058000E-09	 5.00000000E-01	 2.50000000E+00
					-7.45058000E-09	 7.50000000E-01	 3.00000000E+00
					-7.45058000E-09	 1.00000000E+00	 2.50000000E+00
					-7.45058000E-09	-1.49012000E-08	 3.00000000E+00
					 2.50000000E-01	-1.49012000E-08	 3.00000000E+00
					-7.45058000E-09	-1.49012000E-08	 2.50000000E+00
					-7.45058000E-09	 2.50000000E-01	 3.00000000E+00
					 1.00000000E+00	 5.00000000E-01	 4.00000000E+00
					 1.00000000E+00	 1.00000000E+00	 4.00000000E+00
					 5.00000000E-01	 5.00000000E-01	 4.00000000E+00
					 5.00000000E-01	 1.00000000E+00	 4.00000000E+00
					 1.00000000E+00	 5.00000000E-01	 3.50000000E+00
					 1.00000000E+00	 7.50000000E-01	 4.00000000E+00
					 1.00000000E+00	 1.00000000E+00	 3.50000000E+00
					 7.50000000E-01	 5.00000000E-01	 4.00000000E+00
					 7.50000000E-01	 1.00000000E+00	 4.00000000E+00
					 5.00000000E-01	 5.00000000E-01	 3.50000000E+00
					 5.00000000E-01	 7.50000000E-01	 4.00000000E+00
					 5.00000000E-01	 1.00000000E+00	 3.50000000E+00
					 1.00000000E+00	-1.49012000E-08	 4.00000000E+00
					 5.00000000E-01	-1.49012000E-08	 4.00000000E+00
					 1.00000000E+00	-1.49012000E-08	 3.50000000E+00
					 1.00000000E+00	 2.50000000E-01	 4.00000000E+00
					 7.50000000E-01	-1.49012000E-08	 4.00000000E+00
					 5.00000000E-01	-1.49012000E-08	 3.50000000E+00
					 5.00000000E-01	 2.50000000E-01	 4.00000000E+00
					-7.45058000E-09	 5.00000000E-01	 4.00000000E+00
					-7.45058000E-09	 1.00000000E+00	 4.00000000E+00
					 2.50000000E-01	 5.00000000E-01	 4.00000000E+00
					 2.50000000E-01	 1.00000000E+00	 4.00000000E+00
					-7.45058000E-09	 5.00000000E-01	 3.50000000E+00
					-7.45058000E-09	 7.50000000E-01	 4.00000000E+00
					-7.45058000E-09	 1.00000000E+00	 3.50000000E+00
					-7.45058000E-09	-1.49012000E-08	 4.00000000E+00
					 2.50000000E-01	-1.49012000E-08	 4.00000000E+00
					-7.45058000E-09	-1.49012000E-08	 3.50000000E+00
					-7.45058000E-09	 2.50000000E-01	 4.00000000E+00
					 1.00000000E+00	 5.00000000E-01	 5.00000000E+00
					 1.00000000E+00	 1.00000000E+00	 5.00000000E+00
					 5.00000000E-01	 5.00000000E-01	 5.00000000E+00
					 5.00000000E-01	 1.00000000E+00	 5.00000000E+00
					 1.00000000E+00	 5.00000000E-01	 4.50000000E+00
					 1.00000000E+00	 7.50000000E-01	 5.00000000E+00
					 1.00000000E+00	 1.00000000E+00	 4.50000000E+00
					 7.50000000E-01	 5.00000000E-01	 5.00000000E+00
					 7.50000000E-01	 1.00000000E+00	 5.00000000E+00
					 5.00000000E-01	 5.00000000E-01	 4.50000000E+00
					 5.00000000E-01	 7.50000000E-01	 5.00000000E+00
					 5.00000000E-01	 1.00000000E+00	 4.50000000E+00
					 1.00000000E+00	-1.49012000E-08	 5.00000000E+00
					 5.00000000E-01	-1.49012000E-08	 5.00000000E+00
					 1.00000000E+00	-1.49012000E-08	 4.50000000E+00
					 1.00000000E+00	 2.50000000E-01	 5.00000000E+00
					 7.50000000E-01	-1.49012000E-08	 5.00000000E+00
					 5.00000000E-01	-1.49012000E-08	 4.50000000E+00
					 5.00000000E-01	 2.50000000E-01	 5.00000000E+00
					-7.45058000E-09	 5.00000000E-01	 5.00000000E+00
					-7.45058000E-09	 1.00000000E+00	 5.00000000E+00
					 2.50000000E-01	 5.00000000E-01	 5.00000000E+00
					 2.50000000E-01	 1.00000000E+00	 5.00000000E+00
					-7.45058000E-09	 5.00000000E-01	 4.50000000E+00
					-7.45058000E-09	 7.50000000E-01	 5.00000000E+00
					-7.45058000E-09	 1.00000000E+00	 4.50000000E+00
					-7.45058000E-09	-1.49012000E-08	 5.00000000E+00
					 2.50000000E-01	-1.49012000E-08	 5.00000000E+00
					-7.45058000E-09	-1.49012000E-08	 4.50000000E+00
					-7.45058000E-09	 2.50000000E-01	 5.00000000E+00
					 1.00000000E+00	 5.00000000E-01	 6.00000000E+00
					 1.00000000E+00	 1.00000000E+00	 6.00000000E+00
					 5.00000000E-01	 5.00000000E-01	 6.00000000E+00
					 5.00000000E-01	 1.00000000E+00	 6.00000000E+00
					 1.00000000E+00	 5.00000000E-01	 5.50000000E+00
					 1.00000000E+00	 7.50000000E-01	 6.00000000E+00
					 1.00000000E+00	 1.00000000E+00	 5.50000000E+00
					 7.50000000E-01	 5.00000000E-01	 6.00000000E+00
					 7.50000000E-01	 1.00000000E+00	 6.00000000E+00
					 5.00000000E-01	 5.00000000E-01	 5.50000000E+00
					 5.00000000E-01	 7.50000000E-01	 6.00000000E+00
					 5.00000000E-01	 1.00000000E+00	 5.50000000E+00
					 1.00000000E+00	-1.49012000E-08	 6.00000000E+00
[...]
			<PointData>
				<DataArray type="Float32" Name="U" NumberOfComponents="3" ComponentName0="D1" ComponentName1="D2" ComponentName2="D3" format="ascii">
					 0.00000000E+00	 0.00000000E+00	 0.00000000E+00
					 0.00000000E+00	 0.00000000E+00	 0.00000000E+00
					-2.02798000E-05	 5.00282000E-03	-2.82049000E-05
					 3.99188000E-04	 5.21537000E-03	-4.47322000E-03
					 0.00000000E+00	 0.00000000E+00	 0.00000000E+00
					 0.00000000E+00	 0.00000000E+00	 0.00000000E+00
					-2.48852000E-05	 5.13340000E-03	-4.39564000E-05
					-1.61127000E-04	 5.37408000E-03	-4.55047000E-03
					 0.00000000E+00	 0.00000000E+00	 0.00000000E+00
					-4.35180000E-06	 1.12275000E-03	-6.99292000E-06
					 1.88430000E-04	 5.00828000E-03	-2.15594000E-03
					 6.19214000E-04	 1.48060000E-03	-2.28585000E-03
					 0.00000000E+00	 0.00000000E+00	 0.00000000E+00
					 0.00000000E+00	 0.00000000E+00	 0.00000000E+00
					-2.22123000E-05	 5.16291000E-03	-3.76203000E-05
					 1.16179000E-04	 5.39091000E-03	-4.53601000E-03
					 0.00000000E+00	 0.00000000E+00	 0.00000000E+00
					-9.41004000E-06	 1.36658000E-03	-1.59970000E-05
					-9.28309000E-05	 5.14825000E-03	-2.22073000E-03
					-6.13599000E-05	 1.73718000E-03	-2.23457000E-03
					 0.00000000E+00	 0.00000000E+00	 0.00000000E+00
					-4.42721000E-04	 5.25586000E-03	 4.40989000E-03
					 0.00000000E+00	 0.00000000E+00	 0.00000000E+00
					 1.12454000E-04	 5.41495000E-03	 4.45512000E-03
					 0.00000000E+00	 0.00000000E+00	 0.00000000E+00
					-6.28674000E-04	 1.49386000E-03	 2.26907000E-03
					-2.30365000E-04	 5.02800000E-03	 2.09796000E-03
					 0.00000000E+00	 0.00000000E+00	 0.00000000E+00
					-1.61137000E-04	 5.43279000E-03	 4.45317000E-03
					 0.00000000E+00	 0.00000000E+00	 0.00000000E+00
					 4.43667000E-05	 1.74628000E-03	 2.20020000E-03
					 4.31618000E-05	 5.16877000E-03	 2.13067000E-03
					 0.00000000E+00	 0.00000000E+00	 0.00000000E+00
					 0.00000000E+00	 0.00000000E+00	 0.00000000E+00
					-2.96918000E-05	 4.72885000E-03	-5.37740000E-05
					-7.13283000E-04	 4.95130000E-03	-4.49820000E-03
					 0.00000000E+00	 0.00000000E+00	 0.00000000E+00
					 0.00000000E+00	 0.00000000E+00	 0.00000000E+00
					-2.72753000E-05	 5.02663000E-03	-4.89420000E-05
					-4.33570000E-04	 5.25765000E-03	-4.51642000E-03
					 0.00000000E+00	 0.00000000E+00	 0.00000000E+00
					-1.64439000E-05	 1.01693000E-03	-2.30504000E-05
					-3.72277000E-04	 4.73950000E-03	-2.21179000E-03
					-7.37429000E-04	 1.38520000E-03	-2.30219000E-03
					 0.00000000E+00	 0.00000000E+00	 0.00000000E+00
					 6.59219000E-04	 4.98850000E-03	 4.38482000E-03
					 0.00000000E+00	 0.00000000E+00	 0.00000000E+00
					 3.81837000E-04	 5.29759000E-03	 4.41204000E-03
					 0.00000000E+00	 0.00000000E+00	 0.00000000E+00
					 7.09082000E-04	 1.39025000E-03	 2.25263000E-03
					 3.14437000E-04	 4.75786000E-03	 2.10263000E-03
					-5.66679000E-05	 1.84994000E-02	-1.42593000E-04
					-3.02408000E-04	 1.85647000E-02	-7.39128000E-03
					-6.03762000E-05	 1.81247000E-02	-1.50549000E-04
					-5.63484000E-04	 1.81948000E-02	-7.42798000E-03
					-3.81965000E-05	 1.09853000E-02	-7.37000000E-05
					-1.78920000E-04	 1.85114000E-02	-3.64690000E-03
					 1.06393000E-04	 1.11618000E-02	-6.18601000E-03
					-5.87039000E-05	 1.83358000E-02	-1.47511000E-04
					-4.32083000E-04	 1.84036000E-02	-7.46906000E-03
					-4.29217000E-05	 1.09182000E-02	-8.84441000E-05
					-3.10859000E-04	 1.81405000E-02	-3.72500000E-03
					-3.18623000E-04	 1.10977000E-02	-6.23996000E-03
					 1.86836000E-04	 1.86638000E-02	 7.10028000E-03
					 4.41364000E-04	 1.82985000E-02	 7.12127000E-03
					-1.85908000E-04	 1.12327000E-02	 6.02971000E-03
					 6.51022000E-05	 1.85573000E-02	 3.36056000E-03
					 3.12842000E-04	 1.85069000E-02	 7.16796000E-03
					 2.32823000E-04	 1.11717000E-02	 6.05441000E-03
					 1.89904000E-04	 1.81904000E-02	 3.42251000E-03
					-6.22686000E-05	 1.74944000E-02	-1.53281000E-04
					-8.06523000E-04	 1.75728000E-02	-7.40171000E-03
					-6.17466000E-05	 1.78350000E-02	-1.52283000E-04
					-6.85553000E-04	 1.79057000E-02	-7.39494000E-03
					-4.71578000E-05	 1.04334000E-02	-9.71715000E-05
					-4.37705000E-04	 1.75126000E-02	-3.73605000E-03
					-7.32472000E-04	 1.06201000E-02	-6.20909000E-03
					 6.81112000E-04	 1.76786000E-02	 7.08978000E-03
					 5.61067000E-04	 1.80099000E-02	 7.08558000E-03
					 6.41168000E-04	 1.06922000E-02	 6.00667000E-03
					 3.13144000E-04	 1.75641000E-02	 3.42774000E-03
					-7.37678000E-05	 3.55712000E-02	-3.18184000E-04
					-1.38126000E-03	 3.55592000E-02	-8.56852000E-03
					-7.41591000E-05	 3.42101000E-02	-2.96161000E-04
					-1.49499000E-03	 3.41986000E-02	-8.54941000E-03
					-6.91479000E-05	 2.68112000E-02	-2.26419000E-04
					-7.26745000E-04	 3.55536000E-02	-4.34936000E-03
					-7.86792000E-04	 2.68351000E-02	-8.08479000E-03
					-7.44085000E-05	 3.49038000E-02	-3.07162000E-04
					-1.43808000E-03	 3.48911000E-02	-8.65168000E-03
					-7.15791000E-05	 2.60171000E-02	-2.21231000E-04
					-7.83376000E-04	 3.41920000E-02	-4.42192000E-03
					-9.45932000E-04	 2.60419000E-02	-8.09523000E-03
					 1.23175000E-03	 3.56898000E-02	 7.92993000E-03
					 1.34389000E-03	 3.43333000E-02	 7.95451000E-03
					 6.45865000E-04	 2.69505000E-02	 7.62815000E-03
					 5.78656000E-04	 3.56155000E-02	 3.71227000E-03
					 1.28709000E-03	 3.50267000E-02	 8.03492000E-03
					 8.00202000E-04	 2.61627000E-02	 7.64907000E-03
					 6.34264000E-04	 3.42591000E-02	 3.82876000E-03
					-7.26893000E-05	 3.27326000E-02	-2.71571000E-04
					-1.59254000E-03	 3.27300000E-02	-8.52238000E-03
					-7.34443000E-05	 3.34863000E-02	-2.84357000E-04
					-1.54338000E-03	 3.34763000E-02	-8.44081000E-03
					-7.19782000E-05	 2.50652000E-02	-2.12034000E-04
					-8.36055000E-04	 3.27173000E-02	-4.49115000E-03
					-1.07871000E-03	 2.51085000E-02	-8.07049000E-03
					 1.44364000E-03	 3.28705000E-02	 7.97585000E-03
					 1.39306000E-03	 3.36105000E-02	 7.86934000E-03
					 9.31839000E-04	 2.52341000E-02	 7.64212000E-03
					 6.89812000E-04	 3.27907000E-02	 3.94677000E-03
					-7.11416000E-05	 5.42472000E-02	-5.20447000E-04
					-2.76292000E-03	 5.42311000E-02	-9.60914000E-03
					-6.65144000E-05	 5.14840000E-02	-4.64948000E-04
					-2.89919000E-03	 5.14676000E-02	-9.55521000E-03
					-7.29336000E-05	 4.46801000E-02	-4.14815000E-04
					-1.41784000E-03	 5.42222000E-02	-4.95784000E-03
					-2.04934000E-03	 4.46662000E-02	-9.06332000E-03
					-6.92463000E-05	 5.28843000E-02	-4.92832000E-04
					-2.83147000E-03	 5.28664000E-02	-9.68848000E-03
					-7.11001000E-05	 4.26390000E-02	-3.75916000E-04
					-1.48301000E-03	 5.14564000E-02	-5.00981000E-03
					-2.17677000E-03	 4.26264000E-02	-9.02069000E-03
					 2.62007000E-03	 5.44020000E-02	 8.56595000E-03
					 2.76440000E-03	 5.16407000E-02	 8.62250000E-03
					 1.90224000E-03	 4.48147000E-02	 8.23138000E-03
					 1.27535000E-03	 5.43037000E-02	 3.91657000E-03
					 2.69217000E-03	 5.30421000E-02	 8.70023000E-03
					 2.03221000E-03	 4.27776000E-02	 8.26601000E-03
					 1.34957000E-03	 5.15426000E-02	 4.07935000E-03
					-6.01581000E-05	 4.85846000E-02	-4.08071000E-04
					-3.03928000E-03	 4.85592000E-02	-9.49754000E-03
					-6.33727000E-05	 5.00521000E-02	-4.36792000E-04
					-2.96972000E-03	 5.00360000E-02	-9.41823000E-03
					-6.75731000E-05	 4.04716000E-02	-3.35362000E-04
					-1.54681000E-03	 4.85507000E-02	-5.06062000E-03
					-2.29656000E-03	 4.04596000E-02	-8.98458000E-03
					 2.91605000E-03	 4.87374000E-02	 8.67841000E-03
					 2.84025000E-03	 5.02074000E-02	 8.54168000E-03
					 2.15806000E-03	 4.06162000E-02	 8.31039000E-03
					 1.42590000E-03	 4.86435000E-02	 4.24387000E-03
					-6.80339000E-05	 7.47888000E-02	-7.58810000E-04
					-4.05720000E-03	 7.47115000E-02	-1.06181000E-02
					-5.54577000E-05	 7.07758000E-02	-6.76974000E-04
					-4.09621000E-03	 7.06944000E-02	-1.05537000E-02
					-6.90579000E-05	 6.43215000E-02	-6.36375000E-04
					-2.06210000E-03	 7.47446000E-02	-5.57526000E-03
					-3.45552000E-03	 6.42792000E-02	-1.01763000E-02
					-6.18540000E-05	 7.27907000E-02	-7.17523000E-04
					-4.07683000E-03	 7.27084000E-02	-1.06634000E-02
					-6.06618000E-05	 6.08810000E-02	-5.65707000E-04
					-2.07668000E-03	 7.07274000E-02	-5.57789000E-03
					-3.55924000E-03	 6.08333000E-02	-1.01155000E-02
					 3.92247000E-03	 7.49318000E-02	 9.09943000E-03
					 3.98596000E-03	 7.09138000E-02	 9.19852000E-03
					 3.31774000E-03	 6.44766000E-02	 8.90188000E-03
					 1.92638000E-03	 7.48504000E-02	 4.05734000E-03
					 3.95441000E-03	 7.29312000E-02	 9.22728000E-03
					 3.43732000E-03	 6.10318000E-02	 8.98200000E-03
					 1.96604000E-03	 7.08355000E-02	 4.22366000E-03
					-4.27563000E-05	 6.67085000E-02	-5.94426000E-04
					-4.14837000E-03	 6.66187000E-02	-1.04546000E-02
					-4.91017000E-05	 6.87491000E-02	-6.36306000E-04
					-4.12304000E-03	 6.86676000E-02	-1.04490000E-02
					-5.11216000E-05	 5.73264000E-02	-4.93806000E-04
					-2.09333000E-03	 6.66547000E-02	-5.54532000E-03
					-3.68006000E-03	 5.72638000E-02	-1.00346000E-02
					 4.06276000E-03	 6.68379000E-02	 9.26465000E-03
					 4.02490000E-03	 6.88845000E-02	 9.17498000E-03
					 3.57622000E-03	 5.74654000E-02	 9.04496000E-03
					 2.00788000E-03	 6.67650000E-02	 4.35640000E-03
					-7.47791000E-05	 9.57286000E-02	-9.99068000E-04
					-4.98615000E-03	 9.55696000E-02	-1.06248000E-02
					-5.43495000E-05	 9.08831000E-02	-9.06559000E-04
					-4.85097000E-03	 9.07173000E-02	-1.05413000E-02
					-7.07023000E-05	 8.53913000E-02	-8.81942000E-04
					-2.52856000E-03	 9.56669000E-02	-5.74688000E-03
					-4.56976000E-03	 8.52696000E-02	-1.07526000E-02
					-6.43765000E-05	 9.32910000E-02	-9.52203000E-04
					-4.91822000E-03	 9.31255000E-02	-1.06319000E-02
					-5.40990000E-05	 8.09176000E-02	-7.93448000E-04
					-2.45333000E-03	 9.08180000E-02	-5.70740000E-03
					-4.51260000E-03	 8.07900000E-02	-1.06840000E-02
					 4.83969000E-03	 9.57972000E-02	 8.62784000E-03
					 4.74432000E-03	 9.09398000E-02	 8.72970000E-03
					 4.43062000E-03	 8.54993000E-02	 8.98857000E-03
					 2.37963000E-03	 9.57781000E-02	 3.74867000E-03
					 4.79235000E-03	 9.33521000E-02	 8.72900000E-03
					 4.40588000E-03	 8.10167000E-02	 9.09733000E-03
					 2.34507000E-03	 9.09283000E-02	 3.89448000E-03
					-3.58734000E-05	 8.61363000E-02	-8.15183000E-04
					-4.72492000E-03	 8.59746000E-02	-1.04415000E-02
					-4.47060000E-05	 8.84949000E-02	-8.61042000E-04
					-4.78787000E-03	 8.83305000E-02	-1.04525000E-02
					-3.84644000E-05	 7.64751000E-02	-7.05408000E-04
					-2.38251000E-03	 8.60713000E-02	-5.65194000E-03
					-4.46660000E-03	 7.63463000E-02	-1.05767000E-02
					 4.65403000E-03	 8.61939000E-02	 8.81250000E-03
					 4.69965000E-03	 8.85497000E-02	 8.73193000E-03
					 4.39026000E-03	 7.65707000E-02	 9.16633000E-03
					 2.31092000E-03	 8.61820000E-02	 4.02174000E-03
					-8.12740000E-05	 1.14653000E-01	-1.19295000E-03
					-5.51838000E-03	 1.14518000E-01	-1.00880000E-02
					-5.31469000E-05	 1.09257000E-01	-1.10112000E-03
					-5.41515000E-03	 1.09120000E-01	-9.98470000E-03
					-7.73959000E-05	 1.05472000E-01	-1.10257000E-03
					-2.79918000E-03	 1.14596000E-01	-5.63775000E-03
					-5.29000000E-03	 1.05321000E-01	-1.03333000E-02
					-6.70701000E-05	 1.11946000E-01	-1.14708000E-03
					-5.46680000E-03	 1.11808000E-01	-1.00646000E-02
					-5.28706000E-05	 1.00323000E-01	-1.00915000E-03
					-2.73530000E-03	 1.09198000E-01	-5.56977000E-03
					-5.15008000E-03	 1.00169000E-01	-1.02347000E-02
					 5.35915000E-03	 1.14731000E-01	 7.70471000E-03
					 5.31143000E-03	 1.09326000E-01	 7.78514000E-03
					 5.13881000E-03	 1.05541000E-01	 8.12940000E-03
					 2.63745000E-03	 1.14701000E-01	 3.25267000E-03
					 5.33567000E-03	 1.12018000E-01	 7.77315000E-03
					 5.04659000E-03	 1.00381000E-01	 8.21768000E-03
					 2.62961000E-03	 1.09301000E-01	 3.36830000E-03
					-2.78103000E-05	 1.03930000E-01	-1.01029000E-03
					-5.32457000E-03	 1.03791000E-01	-9.90305000E-03
					-3.98701000E-05	 1.06585000E-01	-1.05558000E-03
					-5.36971000E-03	 1.06447000E-01	-9.90056000E-03
					-3.09625000E-05	 9.52792000E-02	-9.16647000E-04
					-2.67651000E-03	 1.03869000E-01	-5.52459000E-03
					-5.01644000E-03	 9.51303000E-02	-1.01474000E-02
					 5.27096000E-03	 1.03993000E-01	 7.88522000E-03
					 5.29215000E-03	 1.06650000E-01	 7.79180000E-03
					 4.95537000E-03	 9.53391000E-02	 8.31506000E-03
					 2.62136000E-03	 1.03972000E-01	 3.50507000E-03
					-9.95371000E-05	 1.32254000E-01	-1.35338000E-03
					-5.72539000E-03	 1.32148000E-01	-1.01038000E-02
					-7.06649000E-05	 1.26627000E-01	-1.26393000E-03
					-5.69250000E-03	 1.26513000E-01	-1.00035000E-02
					-8.97035000E-05	 1.23501000E-01	-1.27554000E-03
					-2.91218000E-03	 1.32199000E-01	-5.72957000E-03
					-5.66946000E-03	 1.23385000E-01	-1.00432000E-02
					-8.48048000E-05	 1.29444000E-01	-1.30884000E-03
					-5.70923000E-03	 1.29333000E-01	-1.00576000E-02
					-6.00437000E-05	 1.17937000E-01	-1.18514000E-03
					-2.88131000E-03	 1.26566000E-01	-5.63791000E-03
					-5.61356000E-03	 1.17816000E-01	-9.94068000E-03
					 5.52535000E-03	 1.32369000E-01	 7.40298000E-03
					 5.55332000E-03	 1.26734000E-01	 7.48241000E-03
					 5.49099000E-03	 1.23598000E-01	 7.49723000E-03
					 2.71303000E-03	 1.32310000E-01	 3.02467000E-03
					 5.53996000E-03	 1.29555000E-01	 7.44611000E-03
					 5.49584000E-03	 1.18027000E-01	 7.57580000E-03
					 2.74087000E-03	 1.26678000E-01	 3.11200000E-03
					-4.21666000E-05	 1.21002000E-01	-1.17752000E-03
					-5.67961000E-03	 1.20876000E-01	-9.91797000E-03
					-5.68307000E-05	 1.23814000E-01	-1.22005000E-03
					-5.68629000E-03	 1.23697000E-01	-9.95363000E-03
					-3.13506000E-05	 1.12394000E-01	-1.09703000E-03
					-2.85839000E-03	 1.20936000E-01	-5.55770000E-03
					-5.57018000E-03	 1.12268000E-01	-9.85809000E-03
					 5.60027000E-03	 1.21093000E-01	 7.57073000E-03
					 5.57665000E-03	 1.23917000E-01	 7.52073000E-03
					 5.51136000E-03	 1.12474000E-01	 7.66980000E-03
					 2.77544000E-03	 1.21044000E-01	 3.20501000E-03
					 0.00000000E+00	 0.00000000E+00	 0.00000000E+00
					 0.00000000E+00	 0.00000000E+00	 0.00000000E+00
					-3.50207000E-05	-5.27390000E-03	 2.06836000E-04
					-2.35651000E-03	-5.70994000E-03	 6.48173000E-03
					 0.00000000E+00	 0.00000000E+00	 0.00000000E+00
					 0.00000000E+00	 0.00000000E+00	 0.00000000E+00
					 1.51223000E-06	-7.19241000E-03	 1.58861000E-04
					-1.52967000E-03	-7.65091000E-03	 6.51813000E-03
					 0.00000000E+00	 0.00000000E+00	 0.00000000E+00
					-2.28474000E-05	-7.24057000E-04	 9.85232000E-05
					-1.19859000E-03	-5.35003000E-03	 3.38085000E-03
					-1.70262000E-03	-1.32909000E-03	 3.31033000E-03
					 0.00000000E+00	 0.00000000E+00	 0.00000000E+00
					 0.00000000E+00	 0.00000000E+00	 0.00000000E+00
					-1.47993000E-05	-6.37075000E-03	 1.82364000E-04
					-1.93504000E-03	-6.81469000E-03	 6.36845000E-03
					 0.00000000E+00	 0.00000000E+00	 0.00000000E+00
					 7.84534000E-06	-1.90101000E-03	 7.60920000E-05
					-7.65008000E-04	-7.27178000E-03	 3.23783000E-03
					-7.46121000E-04	-2.48100000E-03	 3.20286000E-03
					 0.00000000E+00	 0.00000000E+00	 0.00000000E+00
					 2.28951000E-03	-5.53546000E-03	-6.08446000E-03
					 0.00000000E+00	 0.00000000E+00	 0.00000000E+00
					 1.54176000E-03	-7.48744000E-03	-6.21798000E-03
					 0.00000000E+00	 0.00000000E+00	 0.00000000E+00
					 1.65769000E-03	-1.22118000E-03	-3.10631000E-03
					 1.12913000E-03	-5.26046000E-03	-2.97482000E-03
					 0.00000000E+00	 0.00000000E+00	 0.00000000E+00
					 1.91154000E-03	-6.64581000E-03	-6.01904000E-03
					 0.00000000E+00	 0.00000000E+00	 0.00000000E+00
					 7.68312000E-04	-2.38522000E-03	-3.04179000E-03
					 7.68696000E-04	-7.18993000E-03	-2.92753000E-03
					 0.00000000E+00	 0.00000000E+00	 0.00000000E+00
					 0.00000000E+00	 0.00000000E+00	 0.00000000E+00
					 2.79989000E-05	-8.34335000E-03	 1.20671000E-04
					-7.00283000E-04	-8.75133000E-03	 6.39792000E-03
					 0.00000000E+00	 0.00000000E+00	 0.00000000E+00
					 0.00000000E+00	 0.00000000E+00	 0.00000000E+00
					 1.60036000E-05	-7.90299000E-03	 1.35503000E-04
					-1.11864000E-03	-8.33676000E-03	 6.60139000E-03
					 0.00000000E+00	 0.00000000E+00	 0.00000000E+00
					 3.12709000E-05	-2.23750000E-03	 7.13089000E-05
					-3.39578000E-04	-8.40155000E-03	 3.01570000E-03
					 2.59538000E-04	-2.77363000E-03	 3.28321000E-03
					 0.00000000E+00	 0.00000000E+00	 0.00000000E+00
					 7.67068000E-04	-8.60859000E-03	-6.17080000E-03
					 0.00000000E+00	 0.00000000E+00	 0.00000000E+00
					 1.15951000E-03	-8.18527000E-03	-6.34831000E-03
					 0.00000000E+00	 0.00000000E+00	 0.00000000E+00
					-1.88830000E-04	-2.68805000E-03	-3.13399000E-03
					 3.98794000E-04	-8.33399000E-03	-2.77880000E-03
					-1.24715000E-04	-2.25580000E-02	 3.26101000E-04
					-3.47349000E-03	-2.28863000E-02	 1.06977000E-02
					-7.73695000E-05	-2.57164000E-02	 1.93767000E-04
					-3.05074000E-03	-2.60425000E-02	 1.06121000E-02
					-6.65464000E-05	-1.27903000E-02	 2.85079000E-04
					-1.79921000E-03	-2.26859000E-02	 5.47435000E-03
					-2.98163000E-03	-1.32202000E-02	 8.97848000E-03
					-1.00087000E-04	-2.41722000E-02	 2.57188000E-04
					-3.26146000E-03	-2.44995000E-02	 1.05971000E-02
					-2.67631000E-05	-1.53922000E-02	 1.94543000E-04
					-1.56101000E-03	-2.58431000E-02	 5.30749000E-03
					-2.32019000E-03	-1.58213000E-02	 8.94257000E-03
					 3.23504000E-03	-2.25614000E-02	-1.00583000E-02
					 2.90038000E-03	-2.57429000E-02	-1.02360000E-02
					 2.85334000E-03	-1.29653000E-02	-8.42645000E-03
					 1.55184000E-03	-2.25245000E-02	-4.82560000E-03
					 3.07119000E-03	-2.41941000E-02	-1.00927000E-02
					 2.27602000E-03	-1.55866000E-02	-8.57219000E-03
					 1.41186000E-03	-2.56973000E-02	-4.91994000E-03
					-4.51371000E-05	-2.85058000E-02	 7.14560000E-05
					-2.63797000E-03	-2.88132000E-02	 1.04419000E-02
					-6.01459000E-05	-2.71461000E-02	 1.33338000E-04
					-2.84284000E-03	-2.74933000E-02	 1.06408000E-02
					 2.29035000E-06	-1.73865000E-02	 1.16106000E-04
					-1.34644000E-03	-2.86178000E-02	 5.05297000E-03
					-1.68250000E-03	-1.78057000E-02	 8.81004000E-03
					 2.58161000E-03	-2.85528000E-02	-1.03115000E-02
					 2.74240000E-03	-2.71803000E-02	-1.03887000E-02
					 1.71099000E-03	-1.76028000E-02	-8.59425000E-03
					 1.26525000E-03	-2.84961000E-02	-4.90924000E-03
					-2.84343000E-04	-4.51573000E-02	 3.20458000E-04
					-4.20373000E-03	-4.53172000E-02	 1.18940000E-02
					-2.32106000E-04	-4.90104000E-02	 1.49046000E-04
					-4.07198000E-03	-4.92778000E-02	 1.17414000E-02
					-1.98443000E-04	-3.35662000E-02	 3.35589000E-04
					-2.24030000E-03	-4.52296000E-02	 6.08911000E-03
					-3.89247000E-03	-3.38336000E-02	 1.15606000E-02
					-2.56460000E-04	-4.70929000E-02	 2.38354000E-04
					-4.14059000E-03	-4.73204000E-02	 1.17868000E-02
					-1.49215000E-04	-3.71583000E-02	 1.74188000E-04
					-2.17758000E-03	-4.91424000E-02	 5.88517000E-03
					-3.65000000E-03	-3.74351000E-02	 1.14378000E-02
					 3.60255000E-03	-4.49951000E-02	-1.12402000E-02
					 3.60940000E-03	-4.88722000E-02	-1.14646000E-02
					 3.49557000E-03	-3.34830000E-02	-1.08962000E-02
					 1.66040000E-03	-4.50724000E-02	-5.43774000E-03
					 3.60527000E-03	-4.69364000E-02	-1.13260000E-02
					 3.35996000E-03	-3.70833000E-02	-1.10965000E-02
					 1.69041000E-03	-4.89433000E-02	-5.60793000E-03
					-1.92405000E-04	-5.28174000E-02	-2.44678000E-05
					-4.06425000E-03	-5.32127000E-02	 1.15457000E-02
					-2.10736000E-04	-5.09346000E-02	 6.00978000E-05
					-4.07015000E-03	-5.11317000E-02	 1.17009000E-02
					-1.01914000E-04	-4.05650000E-02	 1.76647000E-05
					-2.09343000E-03	-5.30180000E-02	 5.63860000E-03
					-3.46984000E-03	-4.08796000E-02	 1.12460000E-02
					 3.63874000E-03	-5.27249000E-02	-1.16430000E-02
					 3.62555000E-03	-5.07951000E-02	-1.16029000E-02
					 3.23377000E-03	-4.05130000E-02	-1.12201000E-02
					 1.71056000E-03	-5.27814000E-02	-5.73306000E-03
					-4.18307000E-04	-6.85690000E-02	 2.49037000E-04
					-4.37383000E-03	-6.85726000E-02	 1.15060000E-02