<?xml version="1.0"?>
<VTKFile type="UnstructuredGrid" version="0.1" byte_order="LittleEndian">
	<UnstructuredGrid>
		<Piece NumberOfPoints="522" NumberOfCells="64">
			<Points>
				<DataArray type="Float64" NumberOfComponents="3" format="ascii">
					 1.00000000E+00	 1.00000000E+00	-5.96046000E-08
					 1.00000000E+00	 5.00000000E-01	-5.96046000E-08
					 1.00000000E+00	 5.00000000E-01	 1.00000000E+00
					 1.00000000E+00	 1.00000000E+00	 1.00000000E+00
					 5.00000000E-01	 1.00000000E+00	-5.96046000E-08
					 5.00000000E-01	 5.00000000E-01	-5.96046000E-08
					 5.00000000E-01	 5.00000000E-01	 1.00000000E+00
					 5.00000000E-01	 1.00000000E+00	 1.00000000E+00
					 1.00000000E+00	 7.50000000E-01	-5.96046000E-08
					 1.00000000E+00	 5.00000000E-01	 5.00000000E-01
					 1.00000000E+00	 7.50000000E-01	 1.00000000E+00
					 1.00000000E+00	 1.00000000E+00	 5.00000000E-01
					 7.50000000E-01	 1.00000000E+00	-5.96046000E-08
					 7.50000000E-01	 5.00000000E-01	-5.96046000E-08
					 7.50000000E-01	 5.00000000E-01	 1.00000000E+00
					 7.50000000E-01	 1.00000000E+00	 1.00000000E+00
					 5.00000000E-01	 7.50000000E-01	-5.96046000E-08
					 5.00000000E-01	 5.00000000E-01	 5.00000000E-01
					 5.00000000E-01	 7.50000000E-01	 1.00000000E+00
					 5.00000000E-01	 1.00000000E+00	 5.00000000E-01
					 1.00000000E+00	-1.49012000E-08	-5.96046000E-08
					 1.00000000E+00	-1.49012000E-08	 1.00000000E+00
					 5.00000000E-01	-1.49012000E-08	-5.96046000E-08
					 5.00000000E-01	-1.49012000E-08	 1.00000000E+00
					 1.00000000E+00	 2.50000000E-01	-5.96046000E-08
					 1.00000000E+00	-1.49012000E-08	 5.00000000E-01
					 1.00000000E+00	 2.50000000E-01	 1.00000000E+00
					 7.50000000E-01	-1.49012000E-08	-5.96046000E-08
					 7.50000000E-01	-1.49012000E-08	 1.00000000E+00
					 5.00000000E-01	 2.50000000E-01	-5.96046000E-08
					 5.00000000E-01	-1.49012000E-08	 5.00000000E-01
					 5.00000000E-01	 2.50000000E-01	 1.00000000E+00
					-7.45058000E-09	 1.00000000E+00	-5.96046000E-08
					-7.45058000E-09	 5.00000000E-01	-5.96046000E-08
					-7.45058000E-09	 5.00000000E-01	 1.00000000E+00
					-7.45058000E-09	 1.00000000E+00	 1.00000000E+00
					 2.50000000E-01	 1.00000000E+00	-5.96046000E-08
					 2.50000000E-01	 5.00000000E-01	-5.96046000E-08
					 2.50000000E-01	 5.00000000E-01	 1.00000000E+00
					 2.50000000E-01	 1.00000000E+00	 1.00000000E+00
					-7.45058000E-09	 7.50000000E-01	-5.96046000E-08
					-7.45058000E-09	 5.00000000E-01	 5.00000000E-01
					-7.45058000E-09	 7.50000000E-01	 1.00000000E+00
					-7.45058000E-09	 1.00000000E+00	 5.00000000E-01
					-7.45058000E-09	-1.49012000E-08	-5.96046000E-08
					-7.45058000E-09	-1.49012000E-08	 1.00000000E+00
					 2.50000000E-01	-1.49012000E-08	-5.96046000E-08
					 2.50000000E-01	-1.49012000E-08	 1.00000000E+00
					-7.45058000E-09	 2.50000000E-01	-5.96046000E-08
					-7.45058000E-09	-1.49012000E-08	 5.00000000E-01
					-7.45058000E-09	 2.50000000E-01	 1.00000000E+00
					 1.00000000E+00	 5.00000000E-01	 2.00000000E+00
					 1.00000000E+00	 1.00000000E+00	 2.00000000E+00
					 5.00000000E-01	 5.00000000E-01	 2.00000000E+00
					 5.00000000E-01	 1.00000000E+00	 2.00000000E+00
					 1.00000000E+00	 5.00000000E-01	 1.50000000E+00
					 1.00000000E+00	 7.50000000E-01	 2.00000000E+00
					 1.00000000E+00	 1.00000000E+00	 1.50000000E+00
					 7.50000000E-01	 5.00000000E-01	 2.00000000E+00
					 7.50000000E-01	 1.00000000E+00	 2.00000000E+00
					 5.00000000E-01	 5.00000000E-01	 1.50000000E+00
					 5.00000000E-01	 7.50000000E-01	 2.00000000E+00
					 5.00000000E-01	 1.00000000E+00	 1.50000000E+00
					 1.00000000E+00	-1.49012000E-08	 2.00000000E+00
					 5.00000000E-01	-1.49012000E-08	 2.00000000E+00
					 1.00000000E+00	-1.49012000E-08	 1.50000000E+00
					 1.00000000E+00	 2.50000000E-01	 2.00000000E+00
					 7.50000000E-01	-1.49012000E-08	 2.00000000E+00
					 5.00000000E-01	-1.49012000E-08	 1.50000000E+00
					 5.00000000E-01	 2.50000000E-01	 2.00000000E+00
					-7.45058000E-09	 5.00000000E-01	 2.00000000E+00
					-7.45058000E-09	 1.00000000E+00	 2.00000000E+00
					 2.50000000E-01	 5.00000000E-01	 2.00000000E+00
					 2.50000000E-01	 1.00000000E+00	 2.00000000E+00
					-7.45058000E-09	 5.00000000E-01	 1.50000000E+00
					-7.45058000E-09	 7.50000000E-01	 2.00000000E+00
					-7.45058000E-09	 1.00000000E+00	 1.50000000E+00
					-7.45058000E-09	-1.49012000E-08	 2.00000000E+00
					 2.50000000E-01	-1.49012000E-08	 2.00000000E+00
					-7.45058000E-09	-1.49012000E-08	 1.50000000E+00
					-7.45058000E-09	 2.50000000E-01	 2.00000000E+00
					 1.00000000E+00	 5.00000000E-01	 3.00000000E+00
					 1.00000000E+00	 1.00000000E+00	 3.00000000E+00
					 5.00000000E-01	 5.00000000E-01	 3.00000000E+00
					 5.00000000E-01	 1.00000000E+00	 3.00000000E+00
					 1.00000000E+00	 5.00000000E-01	 2.50000000E+00
					 1.00000000E+00	 7.50000000E-01	 3.00000000E+00
					 1.00000000E+00	 1.00000000E+00	 2.50000000E+00
					 7.50000000E-01	 5.00000000E-01	 3.00000000E+00
					 7.50000000E-01	 1.00000000E+00	 3.00000000E+00
					 5.00000000E-01	 5.00000000E-01	 2.50000000E+00
					 5.00000000E-01	 7.50000000E-01	 3.00000000E+00
					 5.00000000E-01	 1.00000000E+00	 2.50000000E+00
					 1.00000000E+00	-1.49012000E-08	 3.00000000E+00
					 5.00000000E-01	-1.49012000E-08	 3.00000000E+00
					 1.00000000E+00	-1.49012000E-08	 2.50000000E+00
					 1.00000000E+00	 2.50000000E-01	 3.00000000E+00
					 7.50000000E-01	-1.49012000E-08	 3.00000000E+00
					 5.00000000E-01	-1.49012000E-08	 2.50000000E+00
					 5.00000000E-01	 2.50000000E-01	 3.00000000E+00
					-7.45058000E-09	 5.00000000E-01	 3.00000000E+00
					-7.45058000E-09	 1.00000000E+00	 3.00000000E+00
					 2.50000000E-01	 5.00000000E-01	 3.00000000E+00
					 2.50000000E-01	 1.00000000E+00	 3.00000000E+00
					-7.45058000E-09	 5.00000000E-01	 2.50000000E+00
					-7.45058000E-09	 7.50000000E-01	 3.00000000E+00
					-7.45058000E-09	 1.00000000E+00	 2.50000000E+00
					-7.45058000E-09	-1.49012000E-08	 3.00000000E+00
					 2.50000000E-01	-1.49012000E-08	 3.00000000E+00
					-7.45058000E-09	-1.49012000E-08	 2.50000000E+00
					-7.45058000E-09	 2.50000000E-01	 3.00000000E+00
					 1.00000000E+00	 5.00000000E-01	 4.00000000E+00
					 1.00000000E+00	 1.00000000E+00	 4.00000000E+00
					 5.00000000E-01	 5.00000000E-01	 4.00000000E+00
					 5.00000000E-01	 1.00000000E+00	 4.00000000E+00
					 1.00000000E+00	 5.00000000E-01	 3.50000000E+00
					 1.00000000E+00	 7.50000000E-01	 4.00000000E+00
					 1.00000000E+00	 1.00000000E+00	 3.50000000E+00
					 7.50000000E-01	 5.00000000E-01	 4.00000000E+00
					 7.50000000E-01	 1.00000000E+00	 4.00000000E+00
					 5.00000000E-01	 5.00000000E-01	 3.50000000E+00
					 5.00000000E-01	 7.50000000E-01	 4.00000000E+00
					 5.00000000E-01	 1.00000000E+00	 3.50000000E+00
					 1.00000000E+00	-1.49012000E-08	 4.00000000E+00
					 5.00000000E-01	-1.49012000E-08	 4.00000000E+00
					 1.00000000E+00	-1.49012000E-08	 3.50000000E+00
					 1.00000000E+00	 2.50000000E-01	 4.00000000E+00
					 7.50000000E-01	-1.49012000E-08	 4.00000000E+00
					 5.00000000E-01	-1.49012000E-08	 3.50000000E+00
					 5.00000000E-01	 2.50000000E-01	 4.00000000E+00
					-7.45058000E-09	 5.00000000E-01	 4.00000000E+00
					-7.45058000E-09	 1.00000000E+00	 4.00000000E+00
					 2.50000000E-01	 5.00000000E-01	 4.00000000E+00
					 2.50000000E-01	 1.00000000E+00	 4.00000000E+00
					-7.45058000E-09	 5.00000000E-01	 3.50000000E+00
					-7.45058000E-09	 7.50000000E-01	 4.00000000E+00
					-7.45058000E-09	 1.00000000E+00	 3.50000000E+00
					-7.45058000E-09	-1.49012000E-08	 4.00000000E+00
					 2.50000000E-01	-1.49012000E-08	 4.00000000E+00
					-7.45058000E-09	-1.49012000E-08	 3.50000000E+00
					-7.45058000E-09	 2.50000000E-01	 4.00000000E+00
					 1.00000000E+00	 5.00000000E-01	 5.00000000E+00
					 1.00000000E+00	 1.00000000E+00	 5.00000000E+00
					 5.00000000E-01	 5.00000000E-01	 5.00000000E+00
					 5.00000000E-01	 1.00000000E+00	 5.00000000E+00
					 1.00000000E+00	 5.00000000E-01	 4.50000000E+00
					 1.00000000E+00	 7.50000000E-01	 5.00000000E+00
					 1.00000000E+00	 1.00000000E+00	 4.50000000E+00
					 7.50000000E-01	 5.00000000E-01	 5.00000000E+00
					 7.50000000E-01	 1.00000000E+00	 5.00000000E+00
					 5.00000000E-01	 5.00000000E-01	 4.50000000E+00
					 5.00000000E-01	 7.50000000E-01	 5.00000000E+00
					 5.00000000E-01	 1.00000000E+00	 4.50000000E+00
					 1.00000000E+00	-1.49012000E-08	 5.00000000E+00
					 5.00000000E-01	-1.49012000E-08	 5.00000000E+00
					 1.00000000E+00	-1.49012000E-08	 4.50000000E+00
					 1.00000000E+00	 2.50000000E-01	 5.00000000E+00
					 7.50000000E-01	-1.49012000E-08	 5.00000000E+00
					 5.00000000E-01	-1.49012000E-08	 4.50000000E+00
					 5.00000000E-01	 2.50000000E-01	 5.00000000E+00
					-7.45058000E-09	 5.00000000E-01	 5.00000000E+00
					-7.45058000E-09	 1.00000000E+00	 5.00000000E+00
					 2.50000000E-01	 5.00000000E-01	 5.00000000E+00
					 2.50000000E-01	 1.00000000E+00	 5.00000000E+00
					-7.45058000E-09	 5.00000000E-01	 4.50000000E+00
					-7.45058000E-09	 7.50000000E-01	 5.00000000E+00
					-7.45058000E-09	 1.00000000E+00	 4.50000000E+00
					-7.45058000E-09	-1.49012000E-08	 5.00000000E+00
					 2.50000000E-01	-1.49012000E-08	 5.00000000E+00
					-7.45058000E-09	-1.49012000E-08	 4.50000000E+00
					-7.45058000E-09	 2.50000000E-01	 5.00000000E+00
					 1.00000000E+00	 5.00000000E-01	 6.00000000E+00
					 1.00000000E+00	 1.00000000E+00	 6.00000000E+00
					 5.00000000E-01	 5.00000000E-01	 6.00000000E+00
					 5.00000000E-01	 1.00000000E+00	 6.00000000E+00
					 1.00000000E+00	 5.00000000E-01	 5.50000000E+00
					 1.00000000E+00	 7.50000000E-01	 6.00000000E+00
					 1.00000000E+00	 1.00000000E+00	 5.50000000E+00
					 7.50000000E-01	 5.00000000E-01	 6.00000000E+00
					 7.50000000E-01	 1.00000000E+00	 6.00000000E+00
					 5.00000000E-01	 5.00000000E-01	 5.50000000E+00
					 5.00000000E-01	 7.50000000E-01	 6.00000000E+00
					 5.00000000E-01	 1.00000000E+00	 5.50000000E+00
					 1.00000000E+00	-1.49012000E-08	 6.00000000E+00
[...]
			<PointData>
				<DataArray type="Float32" Name="U" NumberOfComponents="3" ComponentName0="D1" ComponentName1="D2" ComponentName2="D3" format="ascii">
					 0.00000000E+00	 0.00000000E+00	 0.00000000E+00
					 0.00000000E+00	 0.00000000E+00	 0.00000000E+00
					-3.74660000E-06	 3.55163000E-04	-3.61269000E-05
					 3.02084000E-04	 4.16305000E-04	-7.66074000E-04
					 0.00000000E+00	 0.00000000E+00	 0.00000000E+00
					 0.00000000E+00	 0.00000000E+00	 0.00000000E+00
					-1.09481000E-05	 5.97252000E-04	-4.21062000E-05
					 1.73697000E-04	 6.62540000E-04	-7.76988000E-04
					 0.00000000E+00	 0.00000000E+00	 0.00000000E+00
					 2.00445000E-06	-4.19244000E-05	-1.56223000E-05
					 1.49591000E-04	 3.66273000E-04	-4.25436000E-04
					 1.90205000E-04	 3.11523000E-05	-3.47746000E-04
					 0.00000000E+00	 0.00000000E+00	 0.00000000E+00
					 0.00000000E+00	 0.00000000E+00	 0.00000000E+00
					-7.03252000E-06	 4.95041000E-04	-3.90925000E-05
					 2.37236000E-04	 5.57618000E-04	-7.49287000E-04
					 0.00000000E+00	 0.00000000E+00	 0.00000000E+00
					-4.09926000E-06	 9.15659000E-05	-1.80195000E-05
					 8.10993000E-05	 6.09410000E-04	-4.12094000E-04
					 7.89922000E-05	 1.60577000E-04	-3.36927000E-04
					 0.00000000E+00	 0.00000000E+00	 0.00000000E+00
					-3.11122000E-04	 4.05170000E-04	 6.95061000E-04
					 0.00000000E+00	 0.00000000E+00	 0.00000000E+00
					-1.95838000E-04	 6.51976000E-04	 6.93734000E-04
					 0.00000000E+00	 0.00000000E+00	 0.00000000E+00
					-1.87334000E-04	 1.91359000E-05	 3.14405000E-04
					-1.57675000E-04	 3.60587000E-04	 3.53610000E-04
					 0.00000000E+00	 0.00000000E+00	 0.00000000E+00
					-2.52278000E-04	 5.47065000E-04	 6.72549000E-04
					 0.00000000E+00	 0.00000000E+00	 0.00000000E+00
					-8.76610000E-05	 1.48716000E-04	 2.98970000E-04
					-1.03203000E-04	 6.04313000E-04	 3.28410000E-04
					 0.00000000E+00	 0.00000000E+00	 0.00000000E+00
					 0.00000000E+00	 0.00000000E+00	 0.00000000E+00
					-1.85664000E-05	 7.24693000E-04	-4.79375000E-05
					 4.41789000E-05	 7.84979000E-04	-7.78507000E-04
					 0.00000000E+00	 0.00000000E+00	 0.00000000E+00
					 0.00000000E+00	 0.00000000E+00	 0.00000000E+00
					-1.48199000E-05	 6.79394000E-04	-4.47729000E-05
					 1.09567000E-04	 7.42821000E-04	-7.94436000E-04
					 0.00000000E+00	 0.00000000E+00	 0.00000000E+00
					-1.15973000E-05	 1.24497000E-04	-2.33874000E-05
					 1.31349000E-05	 7.34976000E-04	-3.98724000E-04
					-4.20331000E-05	 1.89883000E-04	-3.55565000E-04
					 0.00000000E+00	 0.00000000E+00	 0.00000000E+00
					-8.03078000E-05	 7.74217000E-04	 6.83397000E-04
					 0.00000000E+00	 0.00000000E+00	 0.00000000E+00
					-1.38818000E-04	 7.32324000E-04	 7.05376000E-04
					 0.00000000E+00	 0.00000000E+00	 0.00000000E+00
					 1.90603000E-05	 1.76726000E-04	 3.07127000E-04
					-4.99689000E-05	 7.29803000E-04	 3.03542000E-04
					-1.65869000E-05	 2.63513000E-03	-7.27285000E-05
					 4.12021000E-04	 2.66500000E-03	-1.56153000E-03
					-2.21101000E-05	 3.01140000E-03	-8.58759000E-05
					 3.18901000E-04	 3.05298000E-03	-1.58551000E-03
					-9.05159000E-06	 1.23925000E-03	-5.60367000E-05
					 1.94420000E-04	 2.63822000E-03	-7.90888000E-04
					 3.93720000E-04	 1.28805000E-03	-1.20171000E-03
					-1.91669000E-05	 2.83284000E-03	-7.90149000E-05
					 3.66097000E-04	 2.87206000E-03	-1.57589000E-03
					-1.56834000E-05	 1.57823000E-03	-6.44528000E-05
					 1.48856000E-04	 3.02054000E-03	-8.11137000E-04
					 2.69805000E-04	 1.63457000E-03	-1.21573000E-03
					-4.42552000E-04	 2.66478000E-03	 1.41495000E-03
					-3.59860000E-04	 3.04816000E-03	 1.41269000E-03
					-4.10462000E-04	 1.28304000E-03	 1.09109000E-03
					-2.26907000E-04	 2.63882000E-03	 6.45044000E-04
					-4.01400000E-04	 2.86947000E-03	 1.41670000E-03
					-2.99081000E-04	 1.62711000E-03	 1.08727000E-03
					-1.92058000E-04	 3.01838000E-03	 6.39016000E-04
					-2.86441000E-05	 3.31336000E-03	-9.72395000E-05
					 2.34924000E-04	 3.35821000E-03	-1.58582000E-03
					-2.53518000E-05	 3.17308000E-03	-9.22873000E-05
					 2.77297000E-04	 3.21589000E-03	-1.59681000E-03
					-2.33070000E-05	 1.80820000E-03	-7.16540000E-05
					 1.03390000E-04	 3.32514000E-03	-8.07696000E-04
					 1.51605000E-04	 1.86667000E-03	-1.21852000E-03
					-2.88609000E-04	 3.34793000E-03	 1.39048000E-03
					-3.24429000E-04	 3.20864000E-03	 1.41144000E-03
					-1.95463000E-04	 1.85533000E-03	 1.07460000E-03
					-1.59689000E-04	 3.31971000E-03	 6.12821000E-04
					-4.64235000E-05	 6.54312000E-03	-1.12538000E-04
					 4.04936000E-05	 6.50334000E-03	-1.63016000E-03
					-5.10224000E-05	 6.67303000E-03	-1.29656000E-04
					 1.20438000E-04	 6.63393000E-03	-1.66563000E-03
					-2.99827000E-05	 4.49740000E-03	-9.02848000E-05
					-2.47447000E-06	 6.53587000E-03	-7.93004000E-04
					 2.93959000E-04	 4.48979000E-03	-1.72454000E-03
					-4.89244000E-05	 6.59655000E-03	-1.21368000E-04
					 8.08723000E-05	 6.55719000E-03	-1.68917000E-03
					-3.50365000E-05	 4.80719000E-03	-1.07287000E-04
					 3.54021000E-05	 6.66661000E-03	-8.57889000E-04
					 2.73381000E-04	 4.80970000E-03	-1.76014000E-03
					-1.31759000E-04	 6.49503000E-03	 1.40381000E-03
					-2.22712000E-04	 6.62458000E-03	 1.40525000E-03
					-3.51995000E-04	 4.48633000E-03	 1.54082000E-03
					-8.98827000E-05	 6.53062000E-03	 5.67617000E-04
					-1.77780000E-04	 6.54818000E-03	 1.44520000E-03
					-3.42059000E-04	 4.80378000E-03	 1.54348000E-03
					-1.37436000E-04	 6.66104000E-03	 5.98225000E-04
					-5.53984000E-05	 6.88532000E-03	-1.45790000E-04
					 2.07581000E-04	 6.85111000E-03	-1.66345000E-03
					-5.29835000E-05	 6.76805000E-03	-1.37545000E-04
					 1.64073000E-04	 6.72932000E-03	-1.64644000E-03
					-4.02608000E-05	 5.11171000E-03	-1.22847000E-04
					 7.43717000E-05	 6.88085000E-03	-8.85321000E-04
					 2.67878000E-04	 5.12100000E-03	-1.75608000E-03
					-3.20227000E-04	 6.84406000E-03	 1.37094000E-03
					-2.71383000E-04	 6.72072000E-03	 1.37065000E-03
					-3.47699000E-04	 5.11348000E-03	 1.50935000E-03
					-1.85640000E-04	 6.87704000E-03	 5.93103000E-04
					-7.96860000E-05	 9.34797000E-03	-1.59517000E-04
					-4.90542000E-04	 9.27644000E-03	-6.77730000E-04
					-8.38772000E-05	 9.02499000E-03	-1.69214000E-04
					-3.25400000E-04	 8.94856000E-03	-6.85374000E-04
					-6.39947000E-05	 8.28681000E-03	-1.36590000E-04
					-2.83395000E-04	 9.33449000E-03	-4.02975000E-04
					-2.56031000E-04	 8.23125000E-03	-1.21528000E-03
					-8.25520000E-05	 9.16552000E-03	-1.64595000E-04
					-4.08783000E-04	 9.08955000E-03	-7.05626000E-04
					-6.83183000E-05	 8.17608000E-03	-1.51047000E-04
					-2.05048000E-04	 9.00986000E-03	-4.36514000E-04
					-1.05699000E-04	 8.11534000E-03	-1.23929000E-03
					 3.34970000E-04	 9.26628000E-03	 3.59866000E-04
					 1.58914000E-04	 8.93586000E-03	 3.48012000E-04
					 1.30567000E-04	 8.22073000E-03	 9.42994000E-04
					 1.25185000E-04	 9.32974000E-03	 8.39045000E-05
					 2.47035000E-04	 9.07724000E-03	 3.77959000E-04
					-3.06545000E-05	 8.10311000E-03	 9.37754000E-04
					 3.80223000E-05	 9.00276000E-03	 9.82953000E-05
					-8.55113000E-05	 8.86357000E-03	-1.78534000E-04
					-1.64266000E-04	 8.78490000E-03	-6.96356000E-04
					-8.46459000E-05	 8.92223000E-03	-1.73723000E-04
					-2.45077000E-04	 8.84547000E-03	-6.59854000E-04
					-7.14266000E-05	 8.21127000E-03	-1.64763000E-04
					-1.24654000E-04	 8.84653000E-03	-4.76248000E-04
					 4.48721000E-05	 8.15354000E-03	-1.24391000E-03
					-9.15400000E-06	 8.77609000E-03	 3.40278000E-04
					 7.48339000E-05	 8.83412000E-03	 3.13114000E-04
					-1.90173000E-04	 8.14467000E-03	 9.14531000E-04
					-4.68639000E-05	 8.84144000E-03	 1.19580000E-04
					-8.70131000E-05	 9.51078000E-03	-1.94022000E-04
					-6.32034000E-04	 9.44472000E-03	 2.23826000E-04
					-8.88414000E-05	 9.02752000E-03	-1.96816000E-04
					-5.01391000E-04	 8.96588000E-03	 2.17769000E-04
					-8.62027000E-05	 9.67488000E-03	-1.79736000E-04
					-3.61151000E-04	 9.49239000E-03	 2.43246000E-05
					-5.99318000E-04	 9.61003000E-03	-2.06070000E-04
					-8.82880000E-05	 9.25367000E-03	-1.95308000E-04
					-5.66658000E-04	 9.19110000E-03	 2.19209000E-04
					-8.93278000E-05	 9.23320000E-03	-1.84235000E-04
					-2.95398000E-04	 9.01096000E-03	 1.93048000E-05
					-4.59159000E-04	 9.16560000E-03	-2.05292000E-04
					 4.62495000E-04	 9.44037000E-03	-6.11131000E-04
					 3.25262000E-04	 8.95686000E-03	-6.10354000E-04
					 4.31848000E-04	 9.60289000E-03	-1.52296000E-04
					 1.88362000E-04	 9.49030000E-03	-4.11873000E-04
					 3.93780000E-04	 9.18353000E-03	-6.09340000E-04
					 2.82390000E-04	 9.15428000E-03	-1.62261000E-04
					 1.18322000E-04	 9.00561000E-03	-4.12576000E-04
					-9.02533000E-05	 8.68402000E-03	-1.98602000E-04
					-3.73237000E-04	 8.61640000E-03	 2.21671000E-04
					-8.93112000E-05	 8.83993000E-03	-1.98151000E-04
					-4.37639000E-04	 8.77746000E-03	 2.15573000E-04
					-9.08080000E-05	 8.93354000E-03	-1.88401000E-04
					-2.29684000E-04	 8.66502000E-03	 2.40261000E-05
					-3.30414000E-04	 8.85628000E-03	-2.13686000E-04
					 1.91130000E-04	 8.60885000E-03	-6.17507000E-04
					 2.58491000E-04	 8.76862000E-03	-6.10378000E-04
					 1.47048000E-04	 8.84754000E-03	-1.62352000E-04
					 4.88143000E-05	 8.66066000E-03	-4.20896000E-04
					-8.90006000E-05	 7.94786000E-03	-2.19452000E-04
					-8.04818000E-04	 7.83358000E-03	 1.39932000E-03
					-9.02977000E-05	 7.35131000E-03	-2.13728000E-04
					-5.72133000E-04	 7.23282000E-03	 1.39992000E-03
					-9.01728000E-05	 8.99729000E-03	-2.05599000E-04
					-4.45264000E-04	 7.92220000E-03	 6.23210000E-04
					-6.92206000E-04	 8.90479000E-03	 7.34622000E-04
					-9.02182000E-05	 7.61945000E-03	-2.16617000E-04
					-6.88800000E-04	 7.50251000E-03	 1.38092000E-03
					-9.14269000E-05	 8.47961000E-03	-2.06656000E-04
					-3.29875000E-04	 7.32450000E-03	 6.09365000E-04
					-5.18889000E-04	 8.39079000E-03	 7.23153000E-04
					 6.25276000E-04	 7.83254000E-03	-1.83531000E-03
					 3.89823000E-04	 7.23513000E-03	-1.82442000E-03
					 5.12932000E-04	 8.89978000E-03	-1.14489000E-03
					 2.67086000E-04	 7.92156000E-03	-1.06103000E-03
					 5.06911000E-04	 7.50306000E-03	-1.81139000E-03
					 3.35582000E-04	 8.38542000E-03	-1.13450000E-03
					 1.48987000E-04	 7.32551000E-03	-1.03595000E-03
					-8.94597000E-05	 6.98150000E-03	-2.09243000E-04
					-3.32710000E-04	 6.86712000E-03	 1.41170000E-03
					-8.98647000E-05	 7.13577000E-03	-2.11347000E-04
					-4.52134000E-04	 7.01690000E-03	 1.41340000E-03
					-9.13742000E-05	 8.14171000E-03	-2.06833000E-04
					-2.12903000E-04	 6.95608000E-03	 6.08932000E-04
					-3.37506000E-04	 8.05358000E-03	 7.37530000E-04
					 1.51501000E-04	 6.87435000E-03	-1.82725000E-03
					 2.70283000E-04	 7.02172000E-03	-1.83337000E-03
					 1.52431000E-04	 8.05175000E-03	-1.14825000E-03
					 3.34292000E-05	 6.95972000E-03	-1.02639000E-03
					-5.62454000E-05	 3.16438000E-03	-2.41308000E-04
					-9.51911000E-04	 3.06924000E-03	 2.89308000E-03
					-5.82270000E-05	 2.34938000E-03	-2.31115000E-04
					-7.85977000E-04	 2.25290000E-03	 2.91420000E-03
					-7.50756000E-05	 6.02510000E-03	-2.32924000E-04
					-5.02091000E-04	 3.13866000E-03	 1.30006000E-03
					-9.00323000E-04	 5.91852000E-03	 2.19624000E-03
					-5.65446000E-05	 2.73762000E-03	-2.35858000E-04
					-8.67633000E-04	 2.63988000E-03	 2.89702000E-03
					-7.73636000E-05	 5.31603000E-03	-2.21017000E-04
					-4.20415000E-04	 2.32312000E-03	 1.30341000E-03
					-6.70551000E-04	 5.20428000E-03	 2.21497000E-03
					 8.42121000E-04	 3.09934000E-03	-3.37684000E-03
					 6.72144000E-04	 2.27952000E-03	-3.37865000E-03
					 7.49170000E-04	 5.93163000E-03	-2.65865000E-03
					 3.90328000E-04	 3.15518000E-03	-1.78397000E-03
					 7.57724000E-04	 2.66781000E-03	-3.36948000E-03
					 5.15728000E-04	 5.21920000E-03	-2.65471000E-03
					 3.04906000E-04	 2.33702000E-03	-1.76650000E-03
					-6.03396000E-05	 1.69811000E-03	-2.17209000E-04
					-6.23906000E-04	 1.60369000E-03	 2.90232000E-03
					-5.99737000E-05	 2.00014000E-03	-2.24875000E-04
					-7.05283000E-04	 1.90491000E-03	 2.93875000E-03
					-7.87277000E-05	 4.82987000E-03	-2.10732000E-04
					-3.41514000E-04	 1.67218000E-03	 1.27304000E-03
					-4.36281000E-04	 4.72562000E-03	 2.21565000E-03
					 5.05146000E-04	 1.62737000E-03	-3.33980000E-03
					 5.87334000E-04	 1.93041000E-03	-3.39149000E-03
					 2.79015000E-04	 4.74132000E-03	-2.63583000E-03
					 2.21533000E-04	 1.68425000E-03	-1.70850000E-03
					-3.95585000E-05	-4.04661000E-03	-2.52730000E-04
					-9.29214000E-04	-4.07696000E-03	 3.34676000E-03
					-2.81516000E-05	-4.92391000E-03	-2.55449000E-04
					-9.15155000E-04	-4.94205000E-03	 3.33531000E-03
					-4.26526000E-05	-3.61445000E-04	-2.45419000E-04
					-4.89307000E-04	-4.06456000E-03	 1.53371000E-03
					-9.50019000E-04	-4.17140000E-04	 3.25084000E-03
					-3.53122000E-05	-4.48886000E-03	-2.56016000E-04
					-9.24408000E-04	-4.51033000E-03	 3.34608000E-03
					-4.11184000E-05	-1.23576000E-03	-2.43315000E-04
					-4.78137000E-04	-4.93583000E-03	 1.52777000E-03
					-8.75321000E-04	-1.28506000E-03	 3.25374000E-03
					 8.64554000E-04	-4.05130000E-03	-3.86640000E-03
					 8.64472000E-04	-4.93285000E-03	-3.85990000E-03
					 8.74652000E-04	-3.79998000E-04	-3.75085000E-03
					 4.13781000E-04	-4.05195000E-03	-2.04341000E-03
					 8.65320000E-04	-4.49574000E-03	-3.87175000E-03
					 7.97711000E-04	-1.25970000E-03	-3.75018000E-03
					 4.23909000E-04	-4.93339000E-03	-2.04243000E-03
					-1.59716000E-05	-5.77514000E-03	-2.41995000E-04
					-9.19673000E-04	-5.80224000E-03	 3.30318000E-03
					-2.07803000E-05	-5.34249000E-03	-2.50269000E-04
					-9.15308000E-04	-5.36449000E-03	 3.32472000E-03
					-3.90867000E-05	-2.03828000E-03	-2.28487000E-04
					-4.70196000E-04	-5.79092000E-03	 1.50848000E-03
					-8.14811000E-04	-2.08961000E-03	 3.22918000E-03
					 8.83608000E-04	-5.78923000E-03	-3.79981000E-03
					 8.73629000E-04	-5.35510000E-03	-3.83803000E-03
					 7.35296000E-04	-2.06426000E-03	-3.69640000E-03
					 4.37587000E-04	-5.78671000E-03	-1.99627000E-03
					 0.00000000E+00	 0.00000000E+00	 0.00000000E+00
					 0.00000000E+00	 0.00000000E+00	 0.00000000E+00
					-2.08185000E-05	-2.03723000E-03	 1.90143000E-04
					-1.63902000E-03	-2.25185000E-03	 3.23230000E-03
					 0.00000000E+00	 0.00000000E+00	 0.00000000E+00
					 0.00000000E+00	 0.00000000E+00	 0.00000000E+00
					 9.84979000E-06	-3.45740000E-03	 2.00864000E-04
					-1.22222000E-03	-3.68855000E-03	 3.28134000E-03
					 0.00000000E+00	 0.00000000E+00	 0.00000000E+00
					-3.07965000E-05	-1.20316000E-04	 9.35428000E-05
					-8.31627000E-04	-2.07587000E-03	 1.78628000E-03
					-1.06365000E-03	-4.34304000E-04	 1.64796000E-03
					 0.00000000E+00	 0.00000000E+00	 0.00000000E+00
					 0.00000000E+00	 0.00000000E+00	 0.00000000E+00
					-5.51995000E-06	-2.81493000E-03	 1.95146000E-04
					-1.42748000E-03	-3.03446000E-03	 3.14279000E-03
					 0.00000000E+00	 0.00000000E+00	 0.00000000E+00
					 4.99766000E-07	-9.17615000E-04	 9.12789000E-05
					-6.05695000E-04	-3.50076000E-03	 1.69968000E-03
					-5.94909000E-04	-1.21490000E-03	 1.60525000E-03
					 0.00000000E+00	 0.00000000E+00	 0.00000000E+00
					 1.59358000E-03	-2.17303000E-03	-2.85917000E-03
					 0.00000000E+00	 0.00000000E+00	 0.00000000E+00
					 1.23930000E-03	-3.59872000E-03	-2.88737000E-03
					 0.00000000E+00	 0.00000000E+00	 0.00000000E+00
					 9.97559000E-04	-3.65106000E-04	-1.45237000E-03
					 7.89659000E-04	-2.03533000E-03	-1.40975000E-03
					 0.00000000E+00	 0.00000000E+00	 0.00000000E+00
					 1.41256000E-03	-2.94983000E-03	-2.75950000E-03
					 0.00000000E+00	 0.00000000E+00	 0.00000000E+00
					 5.93302000E-04	-1.14005000E-03	-1.41194000E-03
					 6.23530000E-04	-3.45543000E-03	-1.30235000E-03
					 0.00000000E+00	 0.00000000E+00	 0.00000000E+00
					 0.00000000E+00	 0.00000000E+00	 0.00000000E+00
					 4.24362000E-05	-4.49807000E-03	 2.09303000E-04
					-7.94503000E-04	-4.71232000E-03	 3.25289000E-03
					 0.00000000E+00	 0.00000000E+00	 0.00000000E+00
					 0.00000000E+00	 0.00000000E+00	 0.00000000E+00
					 2.58228000E-05	-4.04368000E-03	 2.04111000E-04
					-1.01093000E-03	-4.26333000E-03	 3.38335000E-03
					 0.00000000E+00	 0.00000000E+00	 0.00000000E+00
					 3.32178000E-05	-1.30758000E-03	 1.00886000E-04
					-3.76147000E-04	-4.53506000E-03	 1.57419000E-03
					-7.81290000E-05	-1.58012000E-03	 1.65738000E-03
					 0.00000000E+00	 0.00000000E+00	 0.00000000E+00
					 8.72795000E-04	-4.61648000E-03	-2.84130000E-03
					 0.00000000E+00	 0.00000000E+00	 0.00000000E+00
					 1.05773000E-03	-4.17527000E-03	-2.98293000E-03
					 0.00000000E+00	 0.00000000E+00	 0.00000000E+00
					 1.40666000E-04	-1.49954000E-03	-1.44430000E-03
					 4.59495000E-04	-4.48795000E-03	-1.15948000E-03
					 4.57165000E-05	-9.98225000E-03	 3.31986000E-04
					-2.61461000E-03	-1.01403000E-02	 5.57328000E-03
					 7.73537000E-05	-1.25147000E-02	 3.44193000E-04
					-2.34595000E-03	-1.26811000E-02	 5.60990000E-03
					 5.93213000E-06	-5.37334000E-03	 2.68648000E-04
					-1.28115000E-03	-1.00353000E-02	 2.95890000E-03
					-2.19682000E-03	-5.58077000E-03	 4.55817000E-03
					 6.11276000E-05	-1.12724000E-02	 3.38125000E-04
					-2.48027000E-03	-1.14368000E-02	 5.53746000E-03
					 3.56736000E-05	-7.40301000E-03	 2.82068000E-04
					-1.13009000E-03	-1.25700000E-02	 2.92913000E-03
					-1.83121000E-03	-7.61905000E-03	 4.59111000E-03
					 2.71011000E-03	-1.00159000E-02	-4.91746000E-03
					 2.49817000E-03	-1.25664000E-02	-4.92877000E-03
					 2.20688000E-03	-5.47744000E-03	-4.02757000E-03
					 1.37321000E-03	-9.97138000E-03	-2.29778000E-03
					 2.60585000E-03	-1.13229000E-02	-4.86641000E-03
					 1.90203000E-03	-7.51631000E-03	-4.03530000E-03
					 1.28904000E-03	-1.25132000E-02	-2.23963000E-03
					 1.04196000E-04	-1.48270000E-02	 3.57079000E-04
					-2.07378000E-03	-1.49770000E-02	 5.59562000E-03
					 9.05094000E-05	-1.36938000E-02	 3.51052000E-04
					-2.20994000E-03	-1.38840000E-02	 5.68428000E-03
					 6.60329000E-05	-9.10949000E-03	 2.95415000E-04
					-9.92296000E-04	-1.48719000E-02	 2.84990000E-03
					-1.47563000E-03	-9.32566000E-03	 4.58332000E-03
					 2.30797000E-03	-1.48831000E-02	-4.89055000E-03
					 2.40346000E-03	-1.37501000E-02	-4.99362000E-03
					 1.61717000E-03	-9.22896000E-03	-4.00042000E-03
					 1.20776000E-03	-1.48273000E-02	-2.13345000E-03
					 1.51273000E-04	-2.17675000E-02	 4.02943000E-04
					-2.92175000E-03	-2.17384000E-02	 6.21237000E-03
					 1.83134000E-04	-2.48389000E-02	 4.24954000E-04
					-2.94082000E-03	-2.49212000E-02	 6.26704000E-03
					 9.60168000E-05	-1.56080000E-02	 3.77593000E-04
					-1.38049000E-03	-2.17611000E-02	 3.23991000E-03
					-2.85678000E-03	-1.56931000E-02	 6.14810000E-03
					 1.68512000E-04	-2.32961000E-02	 4.18684000E-04
					-2.93465000E-03	-2.33372000E-02	 6.22799000E-03
					 1.26631000E-04	-1.84953000E-02	 3.89668000E-04
					-1.40367000E-03	-2.48945000E-02	 3.25099000E-03
					-2.71992000E-03	-1.86027000E-02	 6.19746000E-03
					 3.18795000E-03	-2.16629000E-02	-5.39215000E-03
					 3.30371000E-03	-2.47538000E-02	-5.43722000E-03
					 3.04359000E-03	-1.55701000E-02	-5.39825000E-03
					 1.67074000E-03	-2.17283000E-02	-2.42305000E-03
					 3.24492000E-03	-2.31951000E-02	-5.40494000E-03
					 2.97588000E-03	-1.84675000E-02	-5.42480000E-03
					 1.74566000E-03	-2.48146000E-02	-2.42166000E-03
					 2.07379000E-04	-2.79965000E-02	 4.42123000E-04
					-3.07289000E-03	-2.82066000E-02	 6.24906000E-03
					 1.96149000E-04	-2.64214000E-02	 4.30876000E-04
					-3.00894000E-03	-2.64346000E-02	 6.32070000E-03
					 1.62993000E-04	-2.12973000E-02	 4.00746000E-04
					-1.39902000E-03	-2.81215000E-02	 3.18510000E-03
					-2.63308000E-03	-2.14366000E-02	 6.17405000E-03
					 3.44177000E-03	-2.79470000E-02	-5.41206000E-03
					 3.37300000E-03	-2.63326000E-02	-5.47995000E-03
					 2.92038000E-03	-2.12732000E-02	-5.38144000E-03
					 1.81464000E-03	-2.79974000E-02	-2.34647000E-03
					 3.10944000E-04	-3.26258000E-02	 4.48347000E-04
					-2.74596000E-03	-3.23982000E-02	 4.61099000E-03