<?xml version="1.0"?>
<VTKFile type="UnstructuredGrid" version="0.1" byte_order="LittleEndian">
	<UnstructuredGrid>
		<Piece NumberOfPoints="522" NumberOfCells="64">
			<Points>
				<DataArray type="Float64" NumberOfComponents="3" format="ascii">
					 1.00000000E+00	 1.00000000E+00	-5.96046000E-08
					 1.00000000E+00	 5.00000000E-01	-5.96046000E-08
					 1.00000000E+00	 5.00000000E-01	 1.00000000E+00
					 1.00000000E+00	 1.00000000E+00	 1.00000000E+00
					 5.00000000E-01	 1.00000000E+00	-5.96046000E-08
					 5.00000000E-01	 5.00000000E-01	-5.96046000E-08
					 5.00000000E-01	 5.00000000E-01	 1.00000000E+00
					 5.00000000E-01	 1.00000000E+00	 1.00000000E+00
					 1.00000000E+00	 7.50000000E-01	-5.96046000E-08
					 1.00000000E+00	 5.00000000E-01	 5.00000000E-01
					 1.00000000E+00	 7.50000000E-01	 1.00000000E+00
					 1.00000000E+00	 1.00000000E+00	 5.00000000E-01
					 7.50000000E-01	 1.00000000E+00	-5.96046000E-08
					 7.50000000E-01	 5.00000000E-01	-5.96046000E-08
					 7.50000000E-01	 5.00000000E-01	 1.00000000E+00
					 7.50000000E-01	 1.00000000E+00	 1.00000000E+00
					 5.00000000E-01	 7.50000000E-01	-5.96046000E-08
					 5.00000000E-01	 5.00000000E-01	 5.00000000E-01
					 5.00000000E-01	 7.50000000E-01	 1.00000000E+00
					 5.00000000E-01	 1.00000000E+00	 5.00000000E-01
					 1.00000000E+00	-1.49012000E-08	-5.96046000E-08
					 1.00000000E+00	-1.49012000E-08	 1.00000000E+00
					 5.00000000E-01	-1.49012000E-08	-5.96046000E-08
					 5.00000000E-01	-1.49012000E-08	 1.00000000E+00
					 1.00000000E+00	 2.50000000E-01	-5.96046000E-08
					 1.00000000E+00	-1.49012000E-08	 5.00000000E-01
					 1.00000000E+00	 2.50000000E-01	 1.00000000E+00
					 7.50000000E-01	-1.49012000E-08	-5.96046000E-08
					 7.50000000E-01	-1.49012000E-08	 1.00000000E+00
					 5.00000000E-01	 2.50000000E-01	-5.96046000E-08
					 5.00000000E-01	-1.49012000E-08	 5.00000000E-01
					 5.00000000E-01	 2.50000000E-01	 1.00000000E+00
					-7.45058000E-09	 1.00000000E+00	-5.96046000E-08
					-7.45058000E-09	 5.00000000E-01	-5.96046000E-08
					-7.45058000E-09	 5.00000000E-01	 1.00000000E+00
					-7.45058000E-09	 1.00000000E+00	 1.00000000E+00
					 2.50000000E-01	 1.00000000E+00	-5.96046000E-08
					 2.50000000E-01	 5.00000000E-01	-5.96046000E-08
					 2.50000000E-01	 5.00000000E-01	 1.00000000E+00
					 2.50000000E-01	 1.00000000E+00	 1.00000000E+00
					-7.45058000E-09	 7.50000000E-01	-5.96046000E-08
					-7.45058000E-09	 5.00000000E-01	 5.00000000E-01
					-7.45058000E-09	 7.50000000E-01	 1.00000000E+00
					-7.45058000E-09	 1.00000000E+00	 5.00000000E-01
					-7.45058000E-09	-1.49012000E-08	-5.96046000E-08
					-7.45058000E-09	-1.49012000E-08	 1.00000000E+00
					 2.50000000E-01	-1.49012000E-08	-5.96046000E-08
					 2.50000000E-01	-1.49012000E-08	 1.00000000E+00
					-7.45058000E-09	 2.50000000E-01	-5.96046000E-08
					-7.45058000E-09	-1.49012000E-08	 5.00000000E-01
					-7.45058000E-09	 2.50000000E-01	 1.00000000E+00
					 1.00000000E+00	 5.00000000E-01	 2.00000000E+00
					 1.00000000E+00	 1.00000000E+00	 2.00000000E+00
					 5.00000000E-01	 5.00000000E-01	 2.00000000E+00
					 5.00000000E-01	 1.00000000E+00	 2.00000000E+00
					 1.00000000E+00	 5.00000000E-01	 1.50000000E+00
					 1.00000000E+00	 7.50000000E-01	 2.00000000E+00
					 1.00000000E+00	 1.00000000E+00	 1.50000000E+00
					 7.50000000E-01	 5.00000000E-01	 2.00000000E+00
					 7.50000000E-01	 1.00000000E+00	 2.00000000E+00
					 5.00000000E-01	 5.00000000E-01	 1.50000000E+00
					 5.00000000E-01	 7.50000000E-01	 2.00000000E+00
					 5.00000000E-01	 1.00000000E+00	 1.50000000E+00
					 1.00000000E+00	-1.49012000E-08	 2.00000000E+00
					 5.00000000E-01	-1.49012000E-08	 2.00000000E+00
					 1.00000000E+00	-1.49012000E-08	 1.50000000E+00
					 1.00000000E+00	 2.50000000E-01	 2.00000000E+00
					 7.50000000E-01	-1.49012000E-08	 2.00000000E+00
					 5.00000000E-01	-1.49012000E-08	 1.50000000E+00
					 5.00000000E-01	 2.50000000E-01	 2.00000000E+00
					-7.45058000E-09	 5.00000000E-01	 2.00000000E+00
					-7.45058000E-09	 1.00000000E+00	 2.00000000E+00
					 2.50000000E-01	 5.00000000E-01	 2.00000000E+00
					 2.50000000E-01	 1.00000000E+00	 2.00000000E+00
					-7.45058000E-09	 5.00000000E-01	 1.50000000E+00
					-7.45058000E-09	 7.50000000E-01	 2.00000000E+00
					-7.45058000E-09	 1.00000000E+00	 1.50000000E+00
					-7.45058000E-09	-1.49012000E-08	 2.00000000E+00
					 2.50000000E-01	-1.49012000E-08	 2.00000000E+00
					-7.45058000E-09	-1.49012000E-08	 1.50000000E+00
					-7.45058000E-09	 2.50000000E-01	 2.00000000E+00
					 1.00000000E+00	 5.00000000E-01	 3.00000000E+00
					 1.00000000E+00	 1.00000000E+00	 3.00000000E+00
					 5.00000000E-01	 5.00000000E-01	 3.00000000E+00
					 5.00000000E-01	 1.00000000E+00	 3.00000000E+00
					 1.00000000E+00	 5.00000000E-01	 2.50000000E+00
					 1.00000000E+00	 7.50000000E-01	 3.00000000E+00
					 1.00000000E+00	 1.00000000E+00	 2.50000000E+00
					 7.50000000E-01	 5.00000000E-01	 3.00000000E+00
					 7.50000000E-01	 1.00000000E+00	 3.00000000E+00
					 5.00000000E-01	 5.00000000E-01	 2.50000000E+00
					 5.00000000E-01	 7.50000000E-01	 3.00000000E+00
					 5.00000000E-01	 1.00000000E+00	 2.50000000E+00
					 1.00000000E+00	-1.49012000E-08	 3.00000000E+00
					 5.00000000E-01	-1.49012000E-08	 3.00000000E+00
					 1.00000000E+00	-1.49012000E-08	 2.50000000E+00
					 1.00000000E+00	 2.50000000E-01	 3.00000000E+00
					 7.50000000E-01	-1.49012000E-08	 3.00000000E+00
					 5.00000000E-01	-1.49012000E-08	 2.50000000E+00
					 5.00000000E-01	 2.50000000E-01	 3.00000000E+00
					-7.45058000E-09	 5.00000000E-01	 3.00000000E+00
					-7.45058000E-09	 1.00000000E+00	 3.00000000E+00
					 2.50000000E-01	 5.00000000E-01	 3.00000000E+00
					 2.50000000E-01	 1.00000000E+00	 3.00000000E+00
					-7.45058000E-09	 5.00000000E-01	 2.50000000E+00
					-7.45058000E-09	 7.50000000E-01	 3.00000000E+00
					-7.45058000E-09	 1.00000000E+00	 2.50000000E+00
					-7.45058000E-09	-1.49012000E-08	 3.00000000E+00
					 2.50000000E-01	-1.49012000E-08	 3.00000000E+00
					-7.45058000E-09	-1.49012000E-08	 2.50000000E+00
					-7.45058000E-09	 2.50000000E-01	 3.00000000E+00
					 1.00000000E+00	 5.00000000E-01	 4.00000000E+00
					 1.00000000E+00	 1.00000000E+00	 4.00000000E+00
					 5.00000000E-01	 5.00000000E-01	 4.00000000E+00
					 5.00000000E-01	 1.00000000E+00	 4.00000000E+00
					 1.00000000E+00	 5.00000000E-01	 3.50000000E+00
					 1.00000000E+00	 7.50000000E-01	 4.00000000E+00
					 1.00000000E+00	 1.00000000E+00	 3.50000000E+00
					 7.50000000E-01	 5.00000000E-01	 4.00000000E+00
					 7.50000000E-01	 1.00000000E+00	 4.00000000E+00
					 5.00000000E-01	 5.00000000E-01	 3.50000000E+00
					 5.00000000E-01	 7.50000000E-01	 4.00000000E+00
					 5.00000000E-01	 1.00000000E+00	 3.50000000E+00
					 1.00000000E+00	-1.49012000E-08	 4.00000000E+00
					 5.00000000E-01	-1.49012000E-08	 4.00000000E+00
					 1.00000000E+00	-1.49012000E-08	 3.50000000E+00
					 1.00000000E+00	 2.50000000E-01	 4.00000000E+00
					 7.50000000E-01	-1.49012000E-08	 4.00000000E+00
					 5.00000000E-01	-1.49012000E-08	 3.50000000E+00
					 5.00000000E-01	 2.50000000E-01	 4.00000000E+00
					-7.45058000E-09	 5.00000000E-01	 4.00000000E+00
					-7.45058000E-09	 1.00000000E+00	 4.00000000E+00
					 2.50000000E-01	 5.00000000E-01	 4.00000000E+00
					 2.50000000E-01	 1.00000000E+00	 4.00000000E+00
					-7.45058000E-09	 5.00000000E-01	 3.50000000E+00
					-7.45058000E-09	 7.50000000E-01	 4.00000000E+00
					-7.45058000E-09	 1.00000000E+00	 3.50000000E+00
					-7.45058000E-09	-1.49012000E-08	 4.00000000E+00
					 2.50000000E-01	-1.49012000E-08	 4.00000000E+00
					-7.45058000E-09	-1.49012000E-08	 3.50000000E+00
					-7.45058000E-09	 2.50000000E-01	 4.00000000E+00
					 1.00000000E+00	 5.00000000E-01	 5.00000000E+00
					 1.00000000E+00	 1.00000000E+00	 5.00000000E+00
					 5.00000000E-01	 5.00000000E-01	 5.00000000E+00
					 5.00000000E-01	 1.00000000E+00	 5.00000000E+00
					 1.00000000E+00	 5.00000000E-01	 4.50000000E+00
					 1.00000000E+00	 7.50000000E-01	 5.00000000E+00
					 1.00000000E+00	 1.00000000E+00	 4.50000000E+00
					 7.50000000E-01	 5.00000000E-01	 5.00000000E+00
					 7.50000000E-01	 1.00000000E+00	 5.00000000E+00
					 5.00000000E-01	 5.00000000E-01	 4.50000000E+00
					 5.00000000E-01	 7.50000000E-01	 5.00000000E+00
					 5.00000000E-01	 1.00000000E+00	 4.50000000E+00
					 1.00000000E+00	-1.49012000E-08	 5.00000000E+00
					 5.00000000E-01	-1.49012000E-08	 5.00000000E+00
					 1.00000000E+00	-1.49012000E-08	 4.50000000E+00
					 1.00000000E+00	 2.50000000E-01	 5.00000000E+00
					 7.50000000E-01	-1.49012000E-08	 5.00000000E+00
					 5.00000000E-01	-1.49012000E-08	 4.50000000E+00
					 5.00000000E-01	 2.50000000E-01	 5.00000000E+00
					-7.45058000E-09	 5.00000000E-01	 5.00000000E+00
					-7.45058000E-09	 1.00000000E+00	 5.00000000E+00
					 2.50000000E-01	 5.00000000E-01	 5.00000000E+00
					 2.50000000E-01	 1.00000000E+00	 5.00000000E+00
					-7.45058000E-09	 5.00000000E-01	 4.50000000E+00
					-7.45058000E-09	 7.50000000E-01	 5.00000000E+00
					-7.45058000E-09	 1.00000000E+00	 4.50000000E+00
					-7.45058000E-09	-1.49012000E-08	 5.00000000E+00
					 2.50000000E-01	-1.49012000E-08	 5.00000000E+00
					-7.45058000E-09	-1.49012000E-08	 4.50000000E+00
					-7.45058000E-09	 2.50000000E-01	 5.00000000E+00
					 1.00000000E+00	 5.00000000E-01	 6.00000000E+00
					 1.00000000E+00	 1.00000000E+00	 6.00000000E+00
					 5.00000000E-01	 5.00000000E-01	 6.00000000E+00
					 5.00000000E-01	 1.00000000E+00	 6.00000000E+00
					 1.00000000E+00	 5.00000000E-01	 5.50000000E+00
					 1.00000000E+00	 7.50000000E-01	 6.00000000E+00
					 1.00000000E+00	 1.00000000E+00	 5.50000000E+00
					 7.50000000E-01	 5.00000000E-01	 6.00000000E+00
					 7.50000000E-01	 1.00000000E+00	 6.00000000E+00
					 5.00000000E-01	 5.00000000E-01	 5.50000000E+00
					 5.00000000E-01	 7.50000000E-01	 6.00000000E+00
					 5.00000000E-01	 1.00000000E+00	 5.50000000E+00
					 1.00000000E+00	-1.49012000E-08	 6.00000000E+00
[...]
			<PointData>
				<DataArray type="Float32" Name="U" NumberOfComponents="3" ComponentName0="D1" ComponentName1="D2" ComponentName2="D3" format="ascii">
					 0.00000000E+00	 0.00000000E+00	 0.00000000E+00
					 0.00000000E+00	 0.00000000E+00	 0.00000000E+00
					 3.53838000E-06	 1.76837000E-03	 3.32934000E-05
					 9.21415000E-04	 1.99611000E-03	-2.99015000E-03
					 0.00000000E+00	 0.00000000E+00	 0.00000000E+00
					 0.00000000E+00	 0.00000000E+00	 0.00000000E+00
					 9.72113000E-06	 2.41899000E-03	 3.47129000E-05
					 4.07949000E-04	 2.65853000E-03	-2.99703000E-03
					 0.00000000E+00	 0.00000000E+00	 0.00000000E+00
					-2.46781000E-06	 3.07605000E-05	 1.53888000E-05
					 4.64549000E-04	 1.79942000E-03	-1.55908000E-03
					 6.09448000E-04	 2.94691000E-04	-1.33998000E-03
					 0.00000000E+00	 0.00000000E+00	 0.00000000E+00
					 0.00000000E+00	 0.00000000E+00	 0.00000000E+00
					 6.72155000E-06	 2.17393000E-03	 3.41792000E-05
					 6.62119000E-04	 2.40540000E-03	-2.93472000E-03
					 0.00000000E+00	 0.00000000E+00	 0.00000000E+00
					 2.70811000E-06	 4.11093000E-04	 1.62315000E-05
					 2.08054000E-04	 2.45323000E-03	-1.50492000E-03
					 1.72819000E-04	 6.63213000E-04	-1.28131000E-03
					 0.00000000E+00	 0.00000000E+00	 0.00000000E+00
					-9.15438000E-04	 2.03316000E-03	 3.05442000E-03
					 0.00000000E+00	 0.00000000E+00	 0.00000000E+00
					-3.87629000E-04	 2.69465000E-03	 3.06359000E-03
					 0.00000000E+00	 0.00000000E+00	 0.00000000E+00
					-6.16317000E-04	 3.12717000E-04	 1.37351000E-03
					-4.57829000E-04	 1.81935000E-03	 1.62393000E-03
					 0.00000000E+00	 0.00000000E+00	 0.00000000E+00
					-6.48431000E-04	 2.44184000E-03	 3.00118000E-03
					 0.00000000E+00	 0.00000000E+00	 0.00000000E+00
					-1.67502000E-04	 6.82042000E-04	 1.31726000E-03
					-1.88271000E-04	 2.47222000E-03	 1.57290000E-03
					 0.00000000E+00	 0.00000000E+00	 0.00000000E+00
					 0.00000000E+00	 0.00000000E+00	 0.00000000E+00
					 1.51591000E-05	 2.56400000E-03	 3.89906000E-05
					-1.14810000E-04	 2.78485000E-03	-2.98474000E-03
					 0.00000000E+00	 0.00000000E+00	 0.00000000E+00
					 0.00000000E+00	 0.00000000E+00	 0.00000000E+00
					 1.24116000E-05	 2.57028000E-03	 3.57047000E-05
					 1.48447000E-04	 2.80200000E-03	-3.02087000E-03
					 0.00000000E+00	 0.00000000E+00	 0.00000000E+00
					 8.16753000E-06	 3.71094000E-04	 2.05575000E-05
					-4.93497000E-05	 2.59128000E-03	-1.46611000E-03
					-2.82421000E-04	 6.15490000E-04	-1.33463000E-03
					 0.00000000E+00	 0.00000000E+00	 0.00000000E+00
					 1.47778000E-04	 2.81880000E-03	 3.05986000E-03
					 0.00000000E+00	 0.00000000E+00	 0.00000000E+00
					-1.22162000E-04	 2.83768000E-03	 3.08893000E-03
					 0.00000000E+00	 0.00000000E+00	 0.00000000E+00
					 3.00187000E-04	 6.35123000E-04	 1.37886000E-03
					 8.06254000E-05	 2.60877000E-03	 1.54308000E-03
					 1.24584000E-05	 1.10813000E-02	 4.49410000E-05
					 1.50145000E-03	 1.12574000E-02	-6.65276000E-03
					 2.21435000E-05	 1.23048000E-02	 2.64741000E-05
					 1.00311000E-03	 1.24967000E-02	-6.68961000E-03
					 1.10965000E-05	 5.38906000E-03	 4.59266000E-05
					 7.52320000E-04	 1.11066000E-02	-3.29110000E-03
					 1.24878000E-03	 5.61173000E-03	-4.84911000E-03
					 1.78547000E-05	 1.17536000E-02	 3.48135000E-05
					 1.25356000E-03	 1.19421000E-02	-6.64294000E-03
					 1.82355000E-05	 6.34347000E-03	 3.96627000E-05
					 5.12545000E-04	 1.23383000E-02	-3.28742000E-03
					 7.02745000E-04	 6.57554000E-03	-4.86085000E-03
					-1.47486000E-03	 1.13752000E-02	 6.73506000E-03
					-9.55569000E-04	 1.26078000E-02	 6.73467000E-03
					-1.22638000E-03	 5.68375000E-03	 4.93633000E-03
					-7.27510000E-04	 1.11657000E-02	 3.37928000E-03
					-1.21514000E-03	 1.20559000E-02	 6.70500000E-03
					-6.64010000E-04	 6.64270000E-03	 4.93491000E-03
					-4.67617000E-04	 1.23933000E-02	 3.33874000E-03
					 2.80994000E-05	 1.30399000E-02	 1.55591000E-05
					 5.07249000E-04	 1.32292000E-02	-6.68229000E-03
					 2.56858000E-05	 1.27337000E-02	 1.98643000E-05
					 7.55426000E-04	 1.29253000E-02	-6.74325000E-03
					 2.30730000E-05	 6.75584000E-03	 3.93531000E-05
					 2.69738000E-04	 1.30734000E-02	-3.23538000E-03
					 1.54247000E-04	 6.98319000E-03	-4.85616000E-03
					-4.45801000E-04	 1.33325000E-02	 6.70585000E-03
					-7.00136000E-04	 1.30343000E-02	 6.77477000E-03
					-1.03567000E-04	 7.04533000E-03	 4.92946000E-03
					-2.12038000E-04	 1.31229000E-02	 3.26527000E-03
					-5.58013000E-06	 2.76613000E-02	-2.65964000E-05
					 1.63098000E-03	 2.76840000E-02	-9.21961000E-03
					 5.32696000E-06	 2.91763000E-02	-6.53799000E-05
					 1.39748000E-03	 2.92020000E-02	-9.28207000E-03
					 6.76321000E-06	 1.86844000E-02	 2.14936000E-05
					 8.13637000E-04	 2.76446000E-02	-4.57687000E-03
					 1.61970000E-03	 1.87845000E-02	-8.12338000E-03
					 7.85775000E-08	 2.84480000E-02	-4.72394000E-05
					 1.51466000E-03	 2.84720000E-02	-9.25047000E-03
					 1.70429000E-05	 2.01014000E-02	-9.21117000E-06
					 7.01792000E-04	 2.91620000E-02	-4.62290000E-03
					 1.24827000E-03	 2.02105000E-02	-8.18410000E-03
					-1.64091000E-03	 2.78779000E-02	 9.16065000E-03
					-1.38501000E-03	 2.93933000E-02	 9.14588000E-03
					-1.60449000E-03	 1.89436000E-02	 8.15823000E-03
					-8.24500000E-04	 2.77398000E-02	 4.52232000E-03
					-1.51294000E-03	 2.86646000E-02	 9.15022000E-03
					-1.21134000E-03	 2.03647000E-02	 8.15772000E-03
					-6.90650000E-04	 2.92558000E-02	 4.49065000E-03
					 1.44739000E-05	 3.04430000E-02	-9.95233000E-05
					 1.17489000E-03	 3.04821000E-02	-9.29244000E-03
					 1.01120000E-05	 2.98402000E-02	-8.24067000E-05
					 1.28680000E-03	 2.98681000E-02	-9.31798000E-03
					 2.44615000E-05	 2.11435000E-02	-3.33109000E-05
					 5.90962000E-04	 3.04358000E-02	-4.61740000E-03
					 8.85977000E-04	 2.12617000E-02	-8.17803000E-03
					-1.14357000E-03	 3.06688000E-02	 9.08802000E-03
					-1.26453000E-03	 3.00584000E-02	 9.14808000E-03
					-8.32697000E-04	 2.14084000E-02	 8.10389000E-03
					-5.61325000E-04	 3.05261000E-02	 4.41662000E-03
					-2.84893000E-05	 4.75957000E-02	-1.72289000E-04
					 1.49983000E-03	 4.75525000E-02	-1.04784000E-02
					-1.93865000E-05	 4.90486000E-02	-2.11188000E-04
					 1.35597000E-03	 4.90079000E-02	-1.05141000E-02
					-1.81308000E-05	 3.74038000E-02	-9.33071000E-05
					 7.36239000E-04	 4.75578000E-02	-5.32143000E-03
					 1.59058000E-03	 3.73899000E-02	-9.91574000E-03
					-2.38976000E-05	 4.83388000E-02	-1.92049000E-04
					 1.42832000E-03	 4.82968000E-02	-1.05104000E-02
					-7.94128000E-06	 3.89304000E-02	-1.33818000E-04
					 6.68896000E-04	 4.90127000E-02	-5.37380000E-03
					 1.43374000E-03	 3.89173000E-02	-9.96665000E-03
					-1.55657000E-03	 4.77846000E-02	 1.01299000E-02
					-1.39405000E-03	 4.92390000E-02	 1.00878000E-02
					-1.62637000E-03	 3.76044000E-02	 9.72455000E-03
					-7.93165000E-04	 4.76738000E-02	 4.97579000E-03
					-1.47564000E-03	 4.85290000E-02	 1.01223000E-02
					-1.44862000E-03	 3.91309000E-02	 9.69459000E-03
					-7.07438000E-04	 4.91289000E-02	 4.95030000E-03
					-1.06872000E-05	 5.03449000E-02	-2.47850000E-04
					 1.22543000E-03	 5.03165000E-02	-1.05543000E-02
					-1.50120000E-05	 4.97147000E-02	-2.29620000E-04
					 1.29107000E-03	 4.96770000E-02	-1.05116000E-02
					 1.33453000E-06	 4.02853000E-02	-1.71510000E-04
					 6.04133000E-04	 5.03144000E-02	-5.43364000E-03
					 1.29111000E-03	 4.02881000E-02	-9.99411000E-03
					-1.24574000E-03	 5.05465000E-02	 1.00542000E-02
					-1.32019000E-03	 4.99068000E-02	 1.00484000E-02
					-1.28707000E-03	 4.04996000E-02	 9.64631000E-03
					-6.25146000E-04	 5.04307000E-02	 4.93660000E-03
					-4.37085000E-05	 6.96454000E-02	-3.77895000E-04
					 1.10449000E-03	 6.96112000E-02	-1.19666000E-02
					-3.87179000E-05	 7.06678000E-02	-4.06358000E-04
					 8.72041000E-04	 7.06429000E-02	-1.19935000E-02
					-3.67214000E-05	 5.82410000E-02	-2.63980000E-04
					 5.27480000E-04	 6.95976000E-02	-6.13025000E-03
					 1.35810000E-03	 5.82023000E-02	-1.11503000E-02
					-4.12291000E-05	 7.01861000E-02	-3.93080000E-04
					 9.88681000E-04	 7.01587000E-02	-1.20280000E-02
					-2.96096000E-05	 5.95316000E-02	-2.99459000E-04
					 4.17164000E-04	 7.06231000E-02	-6.20548000E-03
					 1.16542000E-03	 5.95008000E-02	-1.11758000E-02
					-1.19261000E-03	 6.98908000E-02	 1.12044000E-02
					-9.49567000E-04	 7.09229000E-02	 1.11742000E-02
					-1.43156000E-03	 5.84552000E-02	 1.06173000E-02
					-6.15169000E-04	 6.97356000E-02	 5.37337000E-03
					-1.07146000E-03	 7.04407000E-02	 1.12349000E-02
					-1.22418000E-03	 5.97526000E-02	 1.05717000E-02
					-4.94604000E-04	 7.07635000E-02	 5.39131000E-03
					-3.33681000E-05	 7.14666000E-02	-4.30888000E-04
					 6.49505000E-04	 7.14417000E-02	-1.20198000E-02
					-3.61069000E-05	 7.10978000E-02	-4.18731000E-04
					 7.60835000E-04	 7.10743000E-02	-1.19551000E-02
					-2.25701000E-05	 6.06298000E-02	-3.32016000E-04
					 3.08967000E-04	 7.14218000E-02	-6.28200000E-03
					 9.86399000E-04	 6.06058000E-02	-1.12188000E-02
					-7.15862000E-04	 7.17221000E-02	 1.11516000E-02
					-8.32942000E-04	 7.13522000E-02	 1.11114000E-02
					-1.03058000E-03	 6.08570000E-02	 1.05493000E-02
					-3.75515000E-04	 7.15647000E-02	 5.41850000E-03
					-4.32991000E-05	 9.53548000E-02	-6.95238000E-04
					 2.22938000E-04	 9.52571000E-02	-1.36646000E-02
					-4.18268000E-05	 9.55488000E-02	-6.94259000E-04
					 7.93267000E-05	 9.54497000E-02	-1.36798000E-02
					-4.66551000E-05	 8.20548000E-02	-5.22653000E-04
					 8.95204000E-05	 9.52901000E-02	-7.07131000E-03
					 7.08846000E-04	 8.19881000E-02	-1.28681000E-02
					-4.27589000E-05	 9.54702000E-02	-6.95111000E-04
					 1.50834000E-04	 9.53700000E-02	-1.37477000E-02
					-4.37357000E-05	 8.26976000E-02	-5.38310000E-04
					 1.86999000E-05	 9.54813000E-02	-7.15129000E-03
					 4.96324000E-04	 8.26377000E-02	-1.28941000E-02
					-3.11270000E-04	 9.55959000E-02	 1.22696000E-02
					-1.64033000E-04	 9.57924000E-02	 1.22866000E-02
					-8.03590000E-04	 8.22986000E-02	 1.18170000E-02
					-1.76545000E-04	 9.54538000E-02	 5.67990000E-03
					-2.37724000E-04	 9.57149000E-02	 1.23528000E-02
					-5.84607000E-04	 8.29509000E-02	 1.18114000E-02
					-1.02529000E-04	 9.56509000E-02	 5.76167000E-03
					-3.88186000E-05	 9.55993000E-02	-6.90587000E-04
					-6.48193000E-05	 9.54972000E-02	-1.36600000E-02
					-4.05918000E-05	 9.55926000E-02	-6.92810000E-04
					 7.03975000E-06	 9.54939000E-02	-1.36164000E-02
					-3.97742000E-05	 8.31358000E-02	-5.49989000E-04
					-5.10566000E-05	 9.55290000E-02	-7.19566000E-03
					 2.91379000E-04	 8.30739000E-02	-1.28957000E-02
					-1.34731000E-05	 9.58415000E-02	 1.22742000E-02
					-8.90271000E-05	 9.58347000E-02	 1.22262000E-02
					-3.71424000E-04	 8.33887000E-02	 1.17898000E-02
					-2.66339000E-05	 9.57021000E-02	 5.81339000E-03
					-2.12122000E-05	 1.23051000E-01	-1.07444000E-03
					-6.30700000E-04	 1.22888000E-01	-1.45095000E-02
					-2.05466000E-05	 1.22447000E-01	-1.04479000E-03
					-6.36773000E-04	 1.22272000E-01	-1.44848000E-02
					-3.40308000E-05	 1.09165000E-01	-8.83490000E-04
					-3.23485000E-04	 1.22971000E-01	-7.73513000E-03
					-2.58378000E-04	 1.09033000E-01	-1.41854000E-02
					-2.08482000E-05	 1.22751000E-01	-1.05942000E-03
					-6.34220000E-04	 1.22577000E-01	-1.45413000E-02
					-3.32027000E-05	 1.08916000E-01	-8.66258000E-04
					-3.29755000E-04	 1.22360000E-01	-7.75126000E-03
					-3.18816000E-04	 1.08775000E-01	-1.41826000E-02
					 5.87478000E-04	 1.23251000E-01	 1.23589000E-02
					 5.95116000E-04	 1.22638000E-01	 1.23938000E-02
					 1.88805000E-04	 1.09389000E-01	 1.24156000E-02
					 2.80846000E-04	 1.23150000E-01	 5.58538000E-03
					 5.91848000E-04	 1.22944000E-01	 1.24212000E-02
					 2.51528000E-04	 1.09135000E-01	 1.24474000E-02
					 2.88542000E-04	 1.22542000E-01	 5.66114000E-03
					-1.91196000E-05	 1.21822000E-01	-1.01485000E-03
					-6.55684000E-04	 1.21644000E-01	-1.44459000E-02
					-2.00412000E-05	 1.22136000E-01	-1.02995000E-03
					-6.46926000E-04	 1.21961000E-01	-1.44277000E-02
					-3.12049000E-05	 1.08597000E-01	-8.48126000E-04
					-3.37567000E-04	 1.21732000E-01	-7.75428000E-03
					-3.88651000E-04	 1.08453000E-01	-1.41492000E-02
					 6.17082000E-04	 1.22010000E-01	 1.24149000E-02
					 6.06390000E-04	 1.22324000E-01	 1.23665000E-02
					 3.25828000E-04	 1.08813000E-01	 1.24502000E-02
					 2.99253000E-04	 1.21916000E-01	 5.72415000E-03
					 7.76840000E-06	 1.50308000E-01	-1.44324000E-03
					-9.02114000E-04	 1.50138000E-01	-1.48918000E-02
					 9.93036000E-06	 1.49403000E-01	-1.40440000E-03
					-8.87942000E-04	 1.49222000E-01	-1.48471000E-02
					-6.74668000E-06	 1.36770000E-01	-1.26077000E-03
					-4.44475000E-04	 1.50224000E-01	-8.16767000E-03
					-8.41794000E-04	 1.36602000E-01	-1.47172000E-02
					 8.68782000E-06	 1.49858000E-01	-1.42400000E-03
					-8.95329000E-04	 1.49679000E-01	-1.48727000E-02
					-5.62491000E-06	 1.35945000E-01	-1.22422000E-03
					-4.38096000E-04	 1.49313000E-01	-8.12803000E-03
					-8.33821000E-04	 1.35766000E-01	-1.46773000E-02
					 9.18913000E-04	 1.50500000E-01	 1.20024000E-02
					 9.07760000E-04	 1.49582000E-01	 1.20358000E-02
					 8.28746000E-04	 1.36967000E-01	 1.21931000E-02
					 4.60281000E-04	 1.50405000E-01	 5.28017000E-03
					 9.13482000E-04	 1.50040000E-01	 1.20223000E-02
					 8.22338000E-04	 1.36130000E-01	 1.22266000E-02
					 4.57927000E-04	 1.49493000E-01	 5.31857000E-03
					 1.21938000E-05	 1.48500000E-01	-1.36406000E-03
					-8.92439000E-04	 1.48307000E-01	-1.47977000E-02
					 1.12364000E-05	 1.48949000E-01	-1.38436000E-03
					-8.90503000E-04	 1.48764000E-01	-1.48180000E-02
					-4.12585000E-06	 1.35116000E-01	-1.18663000E-03
					-4.38481000E-04	 1.48404000E-01	-8.08658000E-03
					-8.39608000E-04	 1.34930000E-01	-1.46328000E-02
					 9.15569000E-04	 1.48668000E-01	 1.20677000E-02
					 9.12160000E-04	 1.49124000E-01	 1.20470000E-02
					 8.30460000E-04	 1.35296000E-01	 1.22576000E-02
					 4.62564000E-04	 1.48585000E-01	 5.35804000E-03
					 0.00000000E+00	 0.00000000E+00	 0.00000000E+00
					 0.00000000E+00	 0.00000000E+00	 0.00000000E+00
					-4.26495000E-05	-7.19242000E-03	-8.30854000E-05
					-2.52157000E-03	-7.85157000E-03	 8.69572000E-03
					 0.00000000E+00	 0.00000000E+00	 0.00000000E+00
					 0.00000000E+00	 0.00000000E+00	 0.00000000E+00
					-5.55538000E-05	-9.02589000E-03	-1.67068000E-04
					-1.27094000E-03	-9.71303000E-03	 8.68938000E-03
					 0.00000000E+00	 0.00000000E+00	 0.00000000E+00
					 1.31416000E-06	-1.04375000E-03	-2.58696000E-05
					-1.28686000E-03	-7.31109000E-03	 4.38951000E-03
					-1.86627000E-03	-1.84140000E-03	 4.27217000E-03
					 0.00000000E+00	 0.00000000E+00	 0.00000000E+00
					 0.00000000E+00	 0.00000000E+00	 0.00000000E+00
					-4.66645000E-05	-8.31593000E-03	-1.27613000E-04
					-1.88493000E-03	-8.98461000E-03	 8.55894000E-03
					 0.00000000E+00	 0.00000000E+00	 0.00000000E+00
					-1.55428000E-05	-2.20703000E-03	-6.11138000E-05
					-6.64481000E-04	-9.14915000E-03	 4.20969000E-03
					-5.78094000E-04	-2.97421000E-03	 4.10209000E-03
					 0.00000000E+00	 0.00000000E+00	 0.00000000E+00
					 2.42996000E-03	-7.67685000E-03	-8.88881000E-03
					 0.00000000E+00	 0.00000000E+00	 0.00000000E+00
					 1.17030000E-03	-9.55299000E-03	-9.05064000E-03
					 0.00000000E+00	 0.00000000E+00	 0.00000000E+00
					 1.86753000E-03	-1.79124000E-03	-4.33322000E-03
					 1.19765000E-03	-7.21846000E-03	-4.56550000E-03
					 0.00000000E+00	 0.00000000E+00	 0.00000000E+00
					 1.79527000E-03	-8.81662000E-03	-8.83902000E-03
					 0.00000000E+00	 0.00000000E+00	 0.00000000E+00
					 5.56935000E-04	-2.94545000E-03	-4.22993000E-03
					 5.54132000E-04	-9.06621000E-03	-4.55304000E-03
					 0.00000000E+00	 0.00000000E+00	 0.00000000E+00
					 0.00000000E+00	 0.00000000E+00	 0.00000000E+00
					-7.88700000E-05	-9.63042000E-03	-2.26400000E-04
					-1.51193000E-05	-1.02567000E-02	 8.55727000E-03
					 0.00000000E+00	 0.00000000E+00	 0.00000000E+00
					 0.00000000E+00	 0.00000000E+00	 0.00000000E+00
					-6.57187000E-05	-9.53236000E-03	-2.00296000E-04
					-6.49262000E-04	-1.01891000E-02	 8.72731000E-03
					 0.00000000E+00	 0.00000000E+00	 0.00000000E+00
					-4.45397000E-05	-2.17728000E-03	-8.98115000E-05
					-4.93450000E-05	-9.72830000E-03	 4.00813000E-03
					 7.46416000E-04	-2.90566000E-03	 4.20906000E-03
					 0.00000000E+00	 0.00000000E+00	 0.00000000E+00
					-1.19373000E-04	-1.01174000E-02	-9.03055000E-03
					 0.00000000E+00	 0.00000000E+00	 0.00000000E+00
					 5.31998000E-04	-1.00394000E-02	-9.15371000E-03
					 0.00000000E+00	 0.00000000E+00	 0.00000000E+00
					-8.17776000E-04	-2.89490000E-03	-4.39756000E-03
					-1.00479000E-04	-9.66034000E-03	-4.46585000E-03
					-1.77072000E-04	-3.27351000E-02	-4.55938000E-04
					-3.85608000E-03	-3.35067000E-02	 1.62872000E-02
					-1.76502000E-04	-3.58922000E-02	-6.42616000E-04
					-2.84324000E-03	-3.66663000E-02	 1.61494000E-02
					-9.96040000E-05	-1.78085000E-02	-2.17516000E-04
					-2.01347000E-03	-3.30040000E-02	 7.88750000E-03
					-3.24379000E-03	-1.85778000E-02	 1.28011000E-02
					-1.75292000E-04	-3.44283000E-02	-5.55298000E-04
					-3.34804000E-03	-3.52025000E-02	 1.61457000E-02
					-1.10565000E-04	-2.03452000E-02	-3.50668000E-04
					-1.50660000E-03	-3.61598000E-02	 7.65583000E-03
					-2.05242000E-03	-2.11111000E-02	 1.27056000E-02
					 3.50987000E-03	-3.29059000E-02	-1.72391000E-02
					 2.49843000E-03	-3.60973000E-02	-1.74749000E-02
					 3.04321000E-03	-1.82131000E-02	-1.32751000E-02
					 1.65949000E-03	-3.27037000E-02	-8.80933000E-03
					 3.00844000E-03	-3.46262000E-02	-1.72932000E-02
					 1.84245000E-03	-2.07687000E-02	-1.34462000E-02
					 1.16007000E-03	-3.58804000E-02	-8.94741000E-03
					-1.94924000E-04	-3.80688000E-02	-7.90435000E-04
					-1.83336000E-03	-3.88006000E-02	 1.59527000E-02
					-1.84261000E-04	-3.70937000E-02	-7.20749000E-04
					-2.33602000E-03	-3.78855000E-02	 1.61754000E-02
					-1.35133000E-04	-2.17007000E-02	-4.49699000E-04
					-1.02585000E-03	-3.83087000E-02	 7.35904000E-03
					-8.73386000E-04	-2.24414000E-02	 1.25705000E-02
					 1.48772000E-03	-3.82799000E-02	-1.75731000E-02
					 1.99374000E-03	-3.73032000E-02	-1.76612000E-02
					 6.36051000E-04	-2.21350000E-02	-1.35062000E-02
					 6.48960000E-04	-3.80619000E-02	-8.94372000E-03
					-3.54810000E-04	-7.24129000E-02	-1.26144000E-03
					-4.67703000E-03	-7.30680000E-02	 2.03012000E-02
					-3.39335000E-04	-7.64727000E-02	-1.52391000E-03
					-4.19248000E-03	-7.72318000E-02	 2.00913000E-02
					-2.60547000E-04	-5.12845000E-02	-8.07293000E-04
					-2.51307000E-03	-7.26810000E-02	 9.44563000E-03
					-4.32060000E-03	-5.20330000E-02	 1.87825000E-02
					-3.44561000E-04	-7.45013000E-02	-1.39260000E-03
					-4.43651000E-03	-7.52206000E-02	 2.01496000E-02
					-2.54090000E-04	-5.49618000E-02	-1.04095000E-03
					-2.29196000E-03	-7.67969000E-02	 9.15124000E-03
					-3.57199000E-03	-5.57194000E-02	 1.86164000E-02
					 3.93774000E-03	-7.21450000E-02	-2.28289000E-02
					 3.52130000E-03	-7.62294000E-02	-2.31788000E-02
					 3.80008000E-03	-5.12339000E-02	-2.04312000E-02
					 1.79282000E-03	-7.22290000E-02	-1.19627000E-02
					 3.72951000E-03	-7.42395000E-02	-2.29685000E-02
					 3.07749000E-03	-5.49253000E-02	-2.07328000E-02
					 1.59210000E-03	-7.63082000E-02	-1.22243000E-02
					-3.40184000E-04	-8.00976000E-02	-1.76668000E-03
					-3.83572000E-03	-8.09761000E-02	 1.97912000E-02
					-3.37884000E-04	-7.83547000E-02	-1.64958000E-03
					-4.01589000E-03	-7.90440000E-02	 2.00540000E-02
					-2.53996000E-04	-5.79163000E-02	-1.24175000E-03
					-2.05433000E-03	-8.04820000E-02	 8.76617000E-03
					-2.88088000E-03	-5.86914000E-02	 1.83522000E-02
					 3.12224000E-03	-7.99064000E-02	-2.33923000E-02
					 3.32377000E-03	-7.81097000E-02	-2.33950000E-02
					 2.35013000E-03	-5.78981000E-02	-2.08722000E-02
					 1.37757000E-03	-7.99710000E-02	-1.23490000E-02
					-4.92319000E-04	-1.18003000E-01	-2.32532000E-03
					-5.01966000E-03	-1.18462000E-01	 2.05539000E-02