# vtk DataFile Version 3.0

ASCII
DATASET UNSTRUCTURED_GRID

POINTS 522 double
	 1.00000000E+00	 1.00000000E+00	-5.96046000E-08
	 1.00000000E+00	 5.00000000E-01	-5.96046000E-08
	 1.00000000E+00	 5.00000000E-01	 1.00000000E+00
	 1.00000000E+00	 1.00000000E+00	 1.00000000E+00
	 5.00000000E-01	 1.00000000E+00	-5.96046000E-08
	 5.00000000E-01	 5.00000000E-01	-5.96046000E-08
	 5.00000000E-01	 5.00000000E-01	 1.00000000E+00
	 5.00000000E-01	 1.00000000E+00	 1.00000000E+00
	 1.00000000E+00	 7.50000000E-01	-5.96046000E-08
	 1.00000000E+00	 5.00000000E-01	 5.00000000E-01
	 1.00000000E+00	 7.50000000E-01	 1.00000000E+00
	 1.00000000E+00	 1.00000000E+00	 5.00000000E-01
	 7.50000000E-01	 1.00000000E+00	-5.96046000E-08
	 7.50000000E-01	 5.00000000E-01	-5.96046000E-08
	 7.50000000E-01	 5.00000000E-01	 1.00000000E+00
	 7.50000000E-01	 1.00000000E+00	 1.00000000E+00
	 5.00000000E-01	 7.50000000E-01	-5.96046000E-08
	 5.00000000E-01	 5.00000000E-01	 5.00000000E-01
	 5.00000000E-01	 7.50000000E-01	 1.00000000E+00
	 5.00000000E-01	 1.00000000E+00	 5.00000000E-01
	 1.00000000E+00	-1.49012000E-08	-5.96046000E-08
	 1.00000000E+00	-1.49012000E-08	 1.00000000E+00
	 5.00000000E-01	-1.49012000E-08	-5.96046000E-08
	 5.00000000E-01	-1.49012000E-08	 1.00000000E+00
	 1.00000000E+00	 2.50000000E-01	-5.96046000E-08
	 1.00000000E+00	-1.49012000E-08	 5.00000000E-01
	 1.00000000E+00	 2.50000000E-01	 1.00000000E+00
	 7.50000000E-01	-1.49012000E-08	-5.96046000E-08
	 7.50000000E-01	-1.49012000E-08	 1.00000000E+00
	 5.00000000E-01	 2.50000000E-01	-5.96046000E-08
	 5.00000000E-01	-1.49012000E-08	 5.00000000E-01
	 5.00000000E-01	 2.50000000E-01	 1.00000000E+00
	-7.45058000E-09	 1.00000000E+00	-5.96046000E-08
	-7.45058000E-09	 5.00000000E-01	-5.96046000E-08
	-7.45058000E-09	 5.00000000E-01	 1.00000000E+00
	-7.45058000E-09	 1.00000000E+00	 1.00000000E+00
	 2.50000000E-01	 1.00000000E+00	-5.96046000E-08
	 2.50000000E-01	 5.00000000E-01	-5.96046000E-08
	 2.50000000E-01	 5.00000000E-01	 1.00000000E+00
	 2.50000000E-01	 1.00000000E+00	 1.00000000E+00
	-7.45058000E-09	 7.50000000E-01	-5.96046000E-08
	-7.45058000E-09	 5.00000000E-01	 5.00000000E-01
	-7.45058000E-09	 7.50000000E-01	 1.00000000E+00
	-7.45058000E-09	 1.00000000E+00	 5.00000000E-01
	-7.45058000E-09	-1.49012000E-08	-5.96046000E-08
	-7.45058000E-09	-1.49012000E-08	 1.00000000E+00
	 2.50000000E-01	-1.49012000E-08	-5.96046000E-08
	 2.50000000E-01	-1.49012000E-08	 1.00000000E+00
	-7.45058000E-09	 2.50000000E-01	-5.96046000E-08
	-7.45058000E-09	-1.49012000E-08	 5.00000000E-01
	-7.45058000E-09	 2.50000000E-01	 1.00000000E+00
	 1.00000000E+00	 5.00000000E-01	 2.00000000E+00
	 1.00000000E+00	 1.00000000E+00	 2.00000000E+00
	 5.00000000E-01	 5.00000000E-01	 2.00000000E+00
	 5.00000000E-01	 1.00000000E+00	 2.00000000E+00
	 1.00000000E+00	 5.00000000E-01	 1.50000000E+00
	 1.00000000E+00	 7.50000000E-01	 2.00000000E+00
	 1.00000000E+00	 1.00000000E+00	 1.50000000E+00
	 7.50000000E-01	 5.00000000E-01	 2.00000000E+00
	 7.50000000E-01	 1.00000000E+00	 2.00000000E+00
	 5.00000000E-01	 5.00000000E-01	 1.50000000E+00
	 5.00000000E-01	 7.50000000E-01	 2.00000000E+00
	 5.00000000E-01	 1.00000000E+00	 1.50000000E+00
	 1.00000000E+00	-1.49012000E-08	 2.00000000E+00
	 5.00000000E-01	-1.49012000E-08	 2.00000000E+00
	 1.00000000E+00	-1.49012000E-08	 1.50000000E+00
	 1.00000000E+00	 2.50000000E-01	 2.00000000E+00
	 7.50000000E-01	-1.49012000E-08	 2.00000000E+00
	 5.00000000E-01	-1.49012000E-08	 1.50000000E+00
	 5.00000000E-01	 2.50000000E-01	 2.00000000E+00
	-7.45058000E-09	 5.00000000E-01	 2.00000000E+00
	-7.45058000E-09	 1.00000000E+00	 2.00000000E+00
	 2.50000000E-01	 5.00000000E-01	 2.00000000E+00
	 2.50000000E-01	 1.00000000E+00	 2.00000000E+00
	-7.45058000E-09	 5.00000000E-01	 1.50000000E+00
	-7.45058000E-09	 7.50000000E-01	 2.00000000E+00
	-7.45058000E-09	 1.00000000E+00	 1.50000000E+00
	-7.45058000E-09	-1.49012000E-08	 2.00000000E+00
	 2.50000000E-01	-1.49012000E-08	 2.00000000E+00
	-7.45058000E-09	-1.49012000E-08	 1.50000000E+00
	-7.45058000E-09	 2.50000000E-01	 2.00000000E+00
	 1.00000000E+00	 5.00000000E-01	 3.00000000E+00
	 1.00000000E+00	 1.00000000E+00	 3.00000000E+00
	 5.00000000E-01	 5.00000000E-01	 3.00000000E+00
	 5.00000000E-01	 1.00000000E+00	 3.00000000E+00
	 1.00000000E+00	 5.00000000E-01	 2.50000000E+00
	 1.00000000E+00	 7.50000000E-01	 3.00000000E+00
	 1.00000000E+00	 1.00000000E+00	 2.50000000E+00
	 7.50000000E-01	 5.00000000E-01	 3.00000000E+00
	 7.50000000E-01	 1.00000000E+00	 3.00000000E+00
	 5.00000000E-01	 5.00000000E-01	 2.50000000E+00
	 5.00000000E-01	 7.50000000E-01	 3.00000000E+00
	 5.00000000E-01	 1.00000000E+00	 2.50000000E+00
	 1.00000000E+00	-1.49012000E-08	 3.00000000E+00
	 5.00000000E-01	-1.49012000E-08	 3.00000000E+00
	 1.00000000E+00	-1.49012000E-08	 2.50000000E+00
	 1.00000000E+00	 2.50000000E-01	 3.00000000E+00
	 7.50000000E-01	-1.49012000E-08	 3.00000000E+00
	 5.00000000E-01	-1.49012000E-08	 2.50000000E+00
	 5.00000000E-01	 2.50000000E-01	 3.00000000E+00
	-7.45058000E-09	 5.00000000E-01	 3.00000000E+00
	-7.45058000E-09	 1.00000000E+00	 3.00000000E+00
	 2.50000000E-01	 5.00000000E-01	 3.00000000E+00
	 2.50000000E-01	 1.00000000E+00	 3.00000000E+00
	-7.45058000E-09	 5.00000000E-01	 2.50000000E+00
	-7.45058000E-09	 7.50000000E-01	 3.00000000E+00
	-7.45058000E-09	 1.00000000E+00	 2.50000000E+00
	-7.45058000E-09	-1.49012000E-08	 3.00000000E+00
	 2.50000000E-01	-1.49012000E-08	 3.00000000E+00
	-7.45058000E-09	-1.49012000E-08	 2.50000000E+00
	-7.45058000E-09	 2.50000000E-01	 3.00000000E+00
	 1.00000000E+00	 5.00000000E-01	 4.00000000E+00
	 1.00000000E+00	 1.00000000E+00	 4.00000000E+00
	 5.00000000E-01	 5.00000000E-01	 4.00000000E+00
	 5.00000000E-01	 1.00000000E+00	 4.00000000E+00
	 1.00000000E+00	 5.00000000E-01	 3.50000000E+00
	 1.00000000E+00	 7.50000000E-01	 4.00000000E+00
	 1.00000000E+00	 1.00000000E+00	 3.50000000E+00
	 7.50000000E-01	 5.00000000E-01	 4.00000000E+00
	 7.50000000E-01	 1.00000000E+00	 4.00000000E+00
	 5.00000000E-01	 5.00000000E-01	 3.50000000E+00
	 5.00000000E-01	 7.50000000E-01	 4.00000000E+00
	 5.00000000E-01	 1.00000000E+00	 3.50000000E+00
	 1.00000000E+00	-1.49012000E-08	 4.00000000E+00
	 5.00000000E-01	-1.49012000E-08	 4.00000000E+00
	 1.00000000E+00	-1.49012000E-08	 3.50000000E+00
	 1.00000000E+00	 2.50000000E-01	 4.00000000E+00
	 7.50000000E-01	-1.49012000E-08	 4.00000000E+00
	 5.00000000E-01	-1.49012000E-08	 3.50000000E+00
	 5.00000000E-01	 2.50000000E-01	 4.00000000E+00
	-7.45058000E-09	 5.00000000E-01	 4.00000000E+00
	-7.45058000E-09	 1.00000000E+00	 4.00000000E+00
	 2.50000000E-01	 5.00000000E-01	 4.00000000E+00
	 2.50000000E-01	 1.00000000E+00	 4.00000000E+00
	-7.45058000E-09	 5.00000000E-01	 3.50000000E+00
	-7.45058000E-09	 7.50000000E-01	 4.00000000E+00
	-7.45058000E-09	 1.00000000E+00	 3.50000000E+00
	-7.45058000E-09	-1.49012000E-08	 4.00000000E+00
	 2.50000000E-01	-1.49012000E-08	 4.00000000E+00
	-7.45058000E-09	-1.49012000E-08	 3.50000000E+00
	-7.45058000E-09	 2.50000000E-01	 4.00000000E+00
	 1.00000000E+00	 5.00000000E-01	 5.00000000E+00
	 1.00000000E+00	 1.00000000E+00	 5.00000000E+00
	 5.00000000E-01	 5.00000000E-01	 5.00000000E+00
	 5.00000000E-01	 1.00000000E+00	 5.00000000E+00
	 1.00000000E+00	 5.00000000E-01	 4.50000000E+00
	 1.00000000E+00	 7.50000000E-01	 5.00000000E+00
	 1.00000000E+00	 1.00000000E+00	 4.50000000E+00
	 7.50000000E-01	 5.00000000E-01	 5.00000000E+00
	 7.50000000E-01	 1.00000000E+00	 5.00000000E+00
	 5.00000000E-01	 5.00000000E-01	 4.50000000E+00
	 5.00000000E-01	 7.50000000E-01	 5.00000000E+00
	 5.00000000E-01	 1.00000000E+00	 4.50000000E+00
	 1.00000000E+00	-1.49012000E-08	 5.00000000E+00
	 5.00000000E-01	-1.49012000E-08	 5.00000000E+00
	 1.00000000E+00	-1.49012000E-08	 4.50000000E+00
	 1.00000000E+00	 2.50000000E-01	 5.00000000E+00
	 7.50000000E-01	-1.49012000E-08	 5.00000000E+00
	 5.00000000E-01	-1.49012000E-08	 4.50000000E+00
	 5.00000000E-01	 2.50000000E-01	 5.00000000E+00
	-7.45058000E-09	 5.00000000E-01	 5.00000000E+00
	-7.45058000E-09	 1.00000000E+00	 5.00000000E+00
	 2.50000000E-01	 5.00000000E-01	 5.00000000E+00
	 2.50000000E-01	 1.00000000E+00	 5.00000000E+00
	-7.45058000E-09	 5.00000000E-01	 4.50000000E+00
	-7.45058000E-09	 7.50000000E-01	 5.00000000E+00
	-7.45058000E-09	 1.00000000E+00	 4.50000000E+00
	-7.45058000E-09	-1.49012000E-08	 5.00000000E+00
	 2.50000000E-01	-1.49012000E-08	 5.00000000E+00
	-7.45058000E-09	-1.49012000E-08	 4.50000000E+00
	-7.45058000E-09	 2.50000000E-01	 5.00000000E+00
	 1.00000000E+00	 5.00000000E-01	 6.00000000E+00
	 1.00000000E+00	 1.00000000E+00	 6.00000000E+00
	 5.00000000E-01	 5.00000000E-01	 6.00000000E+00
	 5.00000000E-01	 1.00000000E+00	 6.00000000E+00
	 1.00000000E+00	 5.00000000E-01	 5.50000000E+00
	 1.00000000E+00	 7.50000000E-01	 6.00000000E+00
	 1.00000000E+00	 1.00000000E+00	 5.50000000E+00
	 7.50000000E-01	 5.00000000E-01	 6.00000000E+00
	 7.50000000E-01	 1.00000000E+00	 6.00000000E+00
	 5.00000000E-01	 5.00000000E-01	 5.50000000E+00
	 5.00000000E-01	 7.50000000E-01	 6.00000000E+00
	 5.00000000E-01	 1.00000000E+00	 5.50000000E+00
	 1.00000000E+00	-1.49012000E-08	 6.00000000E+00
	 5.00000000E-01	-1.49012000E-08	 6.00000000E+00
	 1.00000000E+00	-1.49012000E-08	 5.50000000E+00
	 1.00000000E+00	 2.50000000E-01	 6.00000000E+00
	 7.50000000E-01	-1.49012000E-08	 6.00000000E+00
	 5.00000000E-01	-1.49012000E-08	 5.50000000E+00
	 5.00000000E-01	 2.50000000E-01	 6.00000000E+00
	-7.45058000E-09	 5.00000000E-01	 6.00000000E+00
	-7.45058000E-09	 1.00000000E+00	 6.00000000E+00
	 2.50000000E-01	 5.00000000E-01	 6.00000000E+00
	 2.50000000E-01	 1.00000000E+00	 6.00000000E+00
	-7.45058000E-09	 5.00000000E-01	 5.50000000E+00
	-7.45058000E-09	 7.50000000E-01	 6.00000000E+00
	-7.45058000E-09	 1.00000000E+00	 5.50000000E+00
	-7.45058000E-09	-1.49012000E-08	 6.00000000E+00
	 2.50000000E-01	-1.49012000E-08	 6.00000000E+00
	-7.45058000E-09	-1.49012000E-08	 5.50000000E+00
	-7.45058000E-09	 2.50000000E-01	 6.00000000E+00
	 1.00000000E+00	 5.00000000E-01	 7.00000000E+00
[...]
POINT_DATA 522
FIELD U 1
	U 3 522 double
		 0.00000000E+00	 0.00000000E+00	 0.00000000E+00
		 0.00000000E+00	 0.00000000E+00	 0.00000000E+00
		-8.46988000E-06	 4.87177000E-04	-3.42723000E-05
		 5.04929000E-04	 5.30368000E-04	-8.00947000E-04
		 0.00000000E+00	 0.00000000E+00	 0.00000000E+00
		 0.00000000E+00	 0.00000000E+00	 0.00000000E+00
		-1.44873000E-05	 9.54824000E-04	-4.30972000E-05
		 4.10990000E-04	 1.00215000E-03	-8.19904000E-04
		 0.00000000E+00	 0.00000000E+00	 0.00000000E+00
		 2.20345000E-07	 1.69934000E-05	-1.44846000E-05
		 2.48772000E-04	 4.92252000E-04	-4.41947000E-04
		 3.19503000E-04	 9.34591000E-05	-4.19791000E-04
		 0.00000000E+00	 0.00000000E+00	 0.00000000E+00
		 0.00000000E+00	 0.00000000E+00	 0.00000000E+00
		-1.15753000E-05	 7.37006000E-04	-3.89664000E-05
		 4.56784000E-04	 7.81379000E-04	-7.72902000E-04
		 0.00000000E+00	 0.00000000E+00	 0.00000000E+00
		-5.51018000E-06	 2.77872000E-04	-1.87927000E-05
		 1.97884000E-04	 9.61186000E-04	-4.17288000E-04
		 2.06417000E-04	 3.49472000E-04	-4.14869000E-04
		 0.00000000E+00	 0.00000000E+00	 0.00000000E+00
		-5.20715000E-04	 5.20089000E-04	 7.31166000E-04
		 0.00000000E+00	 0.00000000E+00	 0.00000000E+00
		-4.38684000E-04	 9.89671000E-04	 7.33068000E-04
		 0.00000000E+00	 0.00000000E+00	 0.00000000E+00
		-3.16811000E-04	 8.45202000E-05	 3.88193000E-04
		-2.65536000E-04	 4.87292000E-04	 3.73426000E-04
		 0.00000000E+00	 0.00000000E+00	 0.00000000E+00
		-4.78535000E-04	 7.69774000E-04	 6.93965000E-04
		 0.00000000E+00	 0.00000000E+00	 0.00000000E+00
		-2.15492000E-04	 3.36627000E-04	 3.74523000E-04
		-2.26460000E-04	 9.54870000E-04	 3.31225000E-04
		 0.00000000E+00	 0.00000000E+00	 0.00000000E+00
		 0.00000000E+00	 0.00000000E+00	 0.00000000E+00
		-2.02847000E-05	 1.33634000E-03	-5.13313000E-05
		 3.15720000E-04	 1.37916000E-03	-8.16914000E-04
		 0.00000000E+00	 0.00000000E+00	 0.00000000E+00
		 0.00000000E+00	 0.00000000E+00	 0.00000000E+00
		-1.72231000E-05	 1.16067000E-03	-4.67395000E-05
		 3.64281000E-04	 1.20671000E-03	-8.57499000E-04
		 0.00000000E+00	 0.00000000E+00	 0.00000000E+00
		-1.23964000E-05	 4.38843000E-04	-2.49012000E-05
		 1.48290000E-04	 1.34109000E-03	-3.81023000E-04
		 7.58765000E-05	 5.02115000E-04	-4.29915000E-04
		 0.00000000E+00	 0.00000000E+00	 0.00000000E+00
		-3.55147000E-04	 1.36625000E-03	 7.14162000E-04
		 0.00000000E+00	 0.00000000E+00	 0.00000000E+00
		-3.97571000E-04	 1.19412000E-03	 7.63775000E-04
		 0.00000000E+00	 0.00000000E+00	 0.00000000E+00
		-9.90411000E-05	 4.86328000E-04	 3.77275000E-04
		-1.88406000E-04	 1.33430000E-03	 2.78547000E-04
		-2.29272000E-05	 2.44674000E-03	-8.35083000E-05
		 7.57939000E-04	 2.46794000E-03	-1.35632000E-03
		-2.89950000E-05	 3.18876000E-03	-9.22763000E-05
		 6.88693000E-04	 3.22108000E-03	-1.37238000E-03
		-1.68947000E-05	 1.29302000E-03	-5.84121000E-05
		 3.64714000E-04	 2.45036000E-03	-7.09105000E-04
		 6.73601000E-04	 1.33030000E-03	-1.11197000E-03
		-2.59709000E-05	 2.82325000E-03	-8.77774000E-05
		 7.24290000E-04	 2.85371000E-03	-1.35980000E-03
		-2.29647000E-05	 1.93775000E-03	-6.65974000E-05
		 3.30827000E-04	 3.19856000E-03	-7.16689000E-04
		 5.85816000E-04	 1.98279000E-03	-1.12397000E-03
		-8.00794000E-04	 2.45991000E-03	 1.19006000E-03
		-7.44925000E-04	 3.20926000E-03	 1.18802000E-03
		-7.05946000E-04	 1.31909000E-03	 9.94311000E-04
		-4.09740000E-04	 2.44621000E-03	 5.41974000E-04
		-7.73530000E-04	 2.84327000E-03	 1.18503000E-03
		-6.30818000E-04	 1.97028000E-03	 9.89852000E-04
		-3.88219000E-04	 3.19202000E-03	 5.32170000E-04
		-3.52395000E-05	 3.87959000E-03	-1.00602000E-04
		 6.32401000E-04	 3.91624000E-03	-1.37422000E-03
		-3.20344000E-05	 3.54134000E-03	-9.67374000E-05
		 6.60808000E-04	 3.57391000E-03	-1.38492000E-03
		-2.89551000E-05	 2.50875000E-03	-7.51121000E-05
		 2.97589000E-04	 3.89216000E-03	-7.10757000E-04
		 5.11080000E-04	 2.55971000E-03	-1.12850000E-03
		-7.02536000E-04	 3.90343000E-03	 1.17285000E-03
		-7.23987000E-04	 3.56148000E-03	 1.19122000E-03
		-5.69305000E-04	 2.54742000E-03	 9.77222000E-04
		-3.67994000E-04	 3.88513000E-03	 5.09734000E-04
		-4.85582000E-05	 5.64520000E-03	-1.22629000E-04
		 5.06099000E-04	 5.61536000E-03	-1.41624000E-03
		-5.24536000E-05	 6.23131000E-03	-1.38920000E-04
		 5.63025000E-04	 6.20279000E-03	-1.44668000E-03
		-3.19877000E-05	 3.95786000E-03	-1.04223000E-04
		 2.28743000E-04	 5.63872000E-03	-7.08787000E-04
		 7.02404000E-04	 3.95054000E-03	-1.47880000E-03
		-5.07201000E-05	 5.93020000E-03	-1.31714000E-04
		 5.34805000E-04	 5.90098000E-03	-1.46506000E-03
		-3.68504000E-05	 4.67878000E-03	-1.17493000E-04
		 2.55187000E-04	 6.22591000E-03	-7.63043000E-04
		 6.82290000E-04	 4.68240000E-03	-1.50595000E-03
		-6.01622000E-04	 5.60985000E-03	 1.17168000E-03
		-6.67419000E-04	 6.19541000E-03	 1.17054000E-03
		-7.62533000E-04	 3.94631000E-03	 1.27163000E-03
		-3.25517000E-04	 5.63574000E-03	 4.64117000E-04
		-6.34934000E-04	 5.89439000E-03	 1.20224000E-03
		-7.53800000E-04	 4.67298000E-03	 1.27240000E-03
		-3.59962000E-04	 6.22184000E-03	 4.85631000E-04
		-5.64972000E-05	 6.87619000E-03	-1.54639000E-04
		 6.23383000E-04	 6.85107000E-03	-1.44811000E-03
		-5.41913000E-05	 6.54616000E-03	-1.46029000E-04
		 5.93109000E-04	 6.51869000E-03	-1.43153000E-03
		-4.21654000E-05	 5.39374000E-03	-1.29299000E-04
		 2.82723000E-04	 6.87214000E-03	-7.88733000E-04
		 6.76200000E-04	 5.40455000E-03	-1.50460000E-03
		-7.36915000E-04	 6.84391000E-03	 1.14144000E-03
		-7.01743000E-04	 6.51111000E-03	 1.14211000E-03
		-7.59602000E-04	 5.39283000E-03	 1.24755000E-03
		-3.95864000E-04	 6.86842000E-03	 4.79833000E-04
		-7.60040000E-05	 8.05499000E-03	-1.64676000E-04
		 1.45120000E-04	 7.99488000E-03	-6.95985000E-04
		-8.12720000E-05	 8.34931000E-03	-1.72097000E-04
		 2.77876000E-04	 8.28443000E-03	-7.06185000E-04
		-6.58183000E-05	 7.11425000E-03	-1.43775000E-04
		 3.58910000E-05	 8.04291000E-03	-4.20503000E-04
		 2.82179000E-04	 7.07351000E-03	-1.11359000E-03
		-7.86443000E-05	 8.18497000E-03	-1.68293000E-04
		 2.11274000E-04	 8.12104000E-03	-7.10260000E-04
		-7.01906000E-05	 7.52899000E-03	-1.56553000E-04
		 9.79753000E-05	 8.33467000E-03	-4.39076000E-04
		 3.98208000E-04	 7.48012000E-03	-1.13449000E-03
		-3.00762000E-04	 7.98307000E-03	 3.68427000E-04
		-4.42942000E-04	 8.27775000E-03	 3.63589000E-04
		-4.15779000E-04	 7.06297000E-03	 8.26768000E-04
		-1.88783000E-04	 8.03664000E-03	 9.17503000E-05
		-3.71921000E-04	 8.11225000E-03	 3.75375000E-04
		-5.40470000E-04	 7.47298000E-03	 8.22904000E-04
		-2.61244000E-04	 8.33149000E-03	 9.54204000E-05
		-8.56260000E-05	 8.77696000E-03	-1.81015000E-04
		 4.08867000E-04	 8.71065000E-03	-7.12377000E-04
		-8.37445000E-05	 8.54582000E-03	-1.76380000E-04
		 3.42815000E-04	 8.48073000E-03	-6.99239000E-04
		-7.39012000E-05	 8.05406000E-03	-1.70386000E-04
		 1.61916000E-04	 8.76118000E-03	-4.55986000E-04
		 5.07912000E-04	 8.00351000E-03	-1.13988000E-03
		-5.81423000E-04	 8.70688000E-03	 3.51816000E-04
		-5.12079000E-04	 8.47558000E-03	 3.47713000E-04
		-6.57875000E-04	 7.99981000E-03	 8.01392000E-04
		-3.33415000E-04	 8.75955000E-03	 9.47409000E-05
		-8.63889000E-05	 8.43317000E-03	-1.97567000E-04
		-1.08837000E-05	 8.34377000E-03	 2.49062000E-04
		-9.27272000E-05	 8.59435000E-03	-1.98596000E-04
		 1.57795000E-04	 8.50707000E-03	 2.38193000E-04
		-8.19218000E-05	 8.45042000E-03	-1.82056000E-04
		-4.97612000E-05	 8.40901000E-03	 5.98447000E-05
		 8.13303000E-05	 8.37686000E-03	-2.56627000E-04
		-8.92173000E-05	 8.49175000E-03	-1.98241000E-04
		 7.38468000E-05	 8.40513000E-03	 2.26490000E-04
		-8.78375000E-05	 8.68622000E-03	-1.86288000E-04
		 3.32328000E-05	 8.57083000E-03	 3.80495000E-05
		 2.19989000E-04	 8.61214000E-03	-2.65045000E-04
		-1.67048000E-04	 8.33608000E-03	-6.41998000E-04
		-3.44283000E-04	 8.50581000E-03	-6.33123000E-04
		-2.49499000E-04	 8.36673000E-03	-1.05008000E-04
		-1.24381000E-04	 8.40553000E-03	-4.54305000E-04
		-2.56059000E-04	 8.40160000E-03	-6.20811000E-04
		-3.97299000E-04	 8.60726000E-03	-1.05446000E-04
		-2.18930000E-04	 8.57115000E-03	-4.34708000E-04
		-9.75221000E-05	 8.93503000E-03	-2.00103000E-04
		 3.35268000E-04	 8.85061000E-03	 2.46924000E-04
		-9.58265000E-05	 8.74363000E-03	-1.99058000E-04
		 2.46365000E-04	 8.65653000E-03	 2.47327000E-04
		-9.27594000E-05	 9.06845000E-03	-1.91484000E-04
		 1.18331000E-04	 8.91399000E-03	 3.58694000E-05
		 3.60056000E-04	 8.99293000E-03	-2.65829000E-04
		-5.27355000E-04	 8.84783000E-03	-6.44908000E-04
		-4.36341000E-04	 8.65548000E-03	-6.43306000E-04
		-5.44295000E-04	 8.98792000E-03	-1.15469000E-04
		-3.12617000E-04	 8.91271000E-03	-4.35528000E-04
		-7.96858000E-05	 6.78890000E-03	-2.25252000E-04
		-5.07313000E-04	 6.65444000E-03	 1.75007000E-03
		-8.49643000E-05	 6.50327000E-03	-2.19443000E-04
		-2.37699000E-04	 6.36374000E-03	 1.75250000E-03
		-8.55390000E-05	 7.96879000E-03	-2.12385000E-04
		-2.91581000E-04	 6.75726000E-03	 8.16544000E-04
		-2.10933000E-04	 7.85100000E-03	 9.27057000E-04
		-8.19436000E-05	 6.61050000E-03	-2.22659000E-04
		-3.72402000E-04	 6.47257000E-03	 1.70371000E-03
		-9.21300000E-05	 7.95488000E-03	-2.09217000E-04
		-1.60849000E-04	 6.46984000E-03	 7.73856000E-04
		 9.08240000E-06	 7.84006000E-03	 9.18443000E-04
		 3.43923000E-04	 6.65913000E-03	-2.20370000E-03
		 6.70620000E-05	 6.37321000E-03	-2.19470000E-03
		 3.48007000E-05	 7.84840000E-03	-1.35129000E-03
		 1.30884000E-04	 6.76097000E-03	-1.26846000E-03
		 2.05933000E-04	 6.47969000E-03	-2.15163000E-03
		-1.94340000E-04	 7.84382000E-03	-1.33609000E-03
		-9.12930000E-06	 6.47597000E-03	-1.21368000E-03
		-8.88230000E-05	 6.48431000E-03	-2.08680000E-04
		 3.72481000E-05	 6.35166000E-03	 1.76542000E-03
		-8.76990000E-05	 6.45881000E-03	-2.14791000E-04
		-1.00325000E-04	 6.31957000E-03	 1.80037000E-03
		-9.71229000E-05	 8.17142000E-03	-2.04895000E-04
		-2.85863000E-05	 6.45425000E-03	 7.42693000E-04
		 2.45836000E-04	 8.06636000E-03	 9.34244000E-04
		-2.12511000E-04	 6.36063000E-03	-2.18622000E-03
		-7.38933000E-05	 6.32963000E-03	-2.23342000E-03
		-4.37321000E-04	 8.06931000E-03	-1.34305000E-03
		-1.48006000E-04	 6.45936000E-03	-1.16107000E-03
		-5.95240000E-05	 1.34674000E-03	-2.58162000E-04
		-9.36037000E-04	 1.24883000E-03	 3.38205000E-03
		-5.79163000E-05	 5.71563000E-04	-2.47921000E-04
		-7.38500000E-04	 4.66658000E-04	 3.41172000E-03
		-7.15873000E-05	 4.58531000E-03	-2.38850000E-04
		-4.96277000E-04	 1.32293000E-03	 1.54764000E-03
		-7.70448000E-04	 4.46956000E-03	 2.63248000E-03
		-5.93799000E-05	 9.35200000E-04	-2.53324000E-04
		-8.39244000E-04	 8.31464000E-04	 3.37625000E-03
		-7.30038000E-05	 4.02280000E-03	-2.31820000E-04
		-3.99384000E-04	 5.43983000E-04	 1.54534000E-03
		-5.10905000E-04	 3.89863000E-03	 2.64866000E-03
		 8.14288000E-04	 1.26843000E-03	-3.89831000E-03
		 6.24174000E-04	 4.88515000E-04	-3.90751000E-03
		 6.25810000E-04	 4.48198000E-03	-3.11498000E-03
		 3.76511000E-04	 1.33099000E-03	-2.06282000E-03
		 7.18941000E-04	 8.52755000E-04	-3.88339000E-03
		 3.65455000E-04	 3.91246000E-03	-3.11780000E-03
		 2.84074000E-04	 5.53565000E-04	-2.04056000E-03
		-5.59290000E-05	-1.40960000E-05	-2.38225000E-04
		-5.50470000E-04	-1.20151000E-04	 3.40417000E-03
		-5.63321000E-05	 2.54594000E-04	-2.43496000E-04
		-6.43359000E-04	 1.49195000E-04	 3.45018000E-03
		-7.34658000E-05	 3.71051000E-03	-2.18193000E-04
		-3.03367000E-04	-4.15273000E-05	 1.50663000E-03
		-2.56467000E-04	 3.58882000E-03	 2.65197000E-03
		 4.43936000E-04	-1.03850000E-04	-3.88054000E-03
		 5.35217000E-04	 1.69968000E-04	-3.93781000E-03
		 1.11785000E-04	 3.60120000E-03	-3.09436000E-03
		 1.92979000E-04	-3.68232000E-05	-1.98169000E-03
		-9.26970000E-06	-6.93587000E-03	-3.07329000E-04
		-9.47768000E-04	-6.97263000E-03	 3.88706000E-03
		-2.51382000E-05	-7.87695000E-03	-2.87888000E-04
		-9.39965000E-04	-7.92908000E-03	 3.93619000E-03
		-3.93051000E-05	-2.67371000E-03	-2.83928000E-04
		-4.73277000E-04	-6.95644000E-03	 1.76805000E-03
		-9.90330000E-04	-2.72331000E-03	 3.77833000E-03
		-1.48426000E-05	-7.40469000E-03	-2.95048000E-04
		-9.45593000E-04	-7.45320000E-03	 3.91716000E-03
		-4.15739000E-05	-3.57173000E-03	-2.67590000E-04
		-4.81729000E-04	-7.90778000E-03	 1.80394000E-03
		-8.93249000E-04	-3.63272000E-03	 3.82098000E-03
		 9.10012000E-04	-6.92574000E-03	-4.48165000E-03
		 8.88496000E-04	-7.86051000E-03	-4.49078000E-03
		 8.99511000E-04	-2.69784000E-03	-4.33378000E-03
		 4.50011000E-04	-6.93239000E-03	-2.37666000E-03
		 9.02912000E-04	-7.39088000E-03	-4.48766000E-03
		 8.10128000E-04	-3.59453000E-03	-4.34275000E-03
		 4.31108000E-04	-7.87001000E-03	-2.37412000E-03
		-4.16792000E-05	-8.77417000E-03	-2.90948000E-04
		-9.50118000E-04	-8.83333000E-03	 3.91484000E-03
		-3.56343000E-05	-8.32647000E-03	-2.86885000E-04
		-9.43549000E-04	-8.38412000E-03	 3.94249000E-03
		-4.39243000E-05	-4.37599000E-03	-2.66763000E-04
		-4.98672000E-04	-8.80640000E-03	 1.78046000E-03
		-8.05314000E-04	-4.43680000E-03	 3.80374000E-03
		 8.84045000E-04	-8.78209000E-03	-4.47523000E-03
		 8.82918000E-04	-8.31927000E-03	-4.49488000E-03
		 7.30307000E-04	-4.41218000E-03	-4.32297000E-03
		 4.19403000E-04	-8.77969000E-03	-2.35645000E-03
		 0.00000000E+00	 0.00000000E+00	 0.00000000E+00
		 0.00000000E+00	 0.00000000E+00	 0.00000000E+00
		-5.32413000E-06	-2.09096000E-03	 1.55899000E-04
		-1.74683000E-03	-2.28569000E-03	 3.15366000E-03
		 0.00000000E+00	 0.00000000E+00	 0.00000000E+00
		 0.00000000E+00	 0.00000000E+00	 0.00000000E+00
		 2.42044000E-05	-3.65516000E-03	 1.69277000E-04
		-1.36607000E-03	-3.86294000E-03	 3.20790000E-03
		 0.00000000E+00	 0.00000000E+00	 0.00000000E+00
		-2.04796000E-05	-1.64869000E-04	 7.42870000E-05
		-8.78415000E-04	-2.12364000E-03	 1.72918000E-03
		-1.13133000E-03	-4.71765000E-04	 1.64742000E-03
		 0.00000000E+00	 0.00000000E+00	 0.00000000E+00
		 0.00000000E+00	 0.00000000E+00	 0.00000000E+00
		 9.01441000E-06	-2.93697000E-03	 1.62448000E-04
		-1.55344000E-03	-3.13424000E-03	 3.05735000E-03
		 0.00000000E+00	 0.00000000E+00	 0.00000000E+00
		 6.14586000E-06	-1.04575000E-03	 7.55507000E-05
		-6.70609000E-04	-3.69065000E-03	 1.63606000E-03
		-6.77006000E-04	-1.33296000E-03	 1.61178000E-03
		 0.00000000E+00	 0.00000000E+00	 0.00000000E+00
		 1.73527000E-03	-2.21202000E-03	-2.84795000E-03
		 0.00000000E+00	 0.00000000E+00	 0.00000000E+00
		 1.41364000E-03	-3.78236000E-03	-2.87569000E-03
		 0.00000000E+00	 0.00000000E+00	 0.00000000E+00
		 1.08864000E-03	-4.11410000E-04	-1.49197000E-03
		 8.68239000E-04	-2.08572000E-03	-1.42053000E-03
		 0.00000000E+00	 0.00000000E+00	 0.00000000E+00
		 1.57023000E-03	-3.05743000E-03	-2.73847000E-03
		 0.00000000E+00	 0.00000000E+00	 0.00000000E+00
		 6.88419000E-04	-1.26929000E-03	-1.45201000E-03
		 7.17908000E-04	-3.65057000E-03	-1.30131000E-03
		 0.00000000E+00	 0.00000000E+00	 0.00000000E+00
		 0.00000000E+00	 0.00000000E+00	 0.00000000E+00
		 5.55848000E-05	-4.86938000E-03	 1.82922000E-04
		-9.74705000E-04	-5.06119000E-03	 3.18119000E-03
		 0.00000000E+00	 0.00000000E+00	 0.00000000E+00
		 0.00000000E+00	 0.00000000E+00	 0.00000000E+00
		 3.97953000E-05	-4.32412000E-03	 1.74470000E-04
		-1.17287000E-03	-4.52090000E-03	 3.32425000E-03
		 0.00000000E+00	 0.00000000E+00	 0.00000000E+00
		 3.54711000E-05	-1.52970000E-03	 8.90687000E-05
		-4.59633000E-04	-4.89856000E-03	 1.50041000E-03
		-1.68878000E-04	-1.78907000E-03	 1.66300000E-03
		 0.00000000E+00	 0.00000000E+00	 0.00000000E+00
		 1.07979000E-03	-4.97531000E-03	-2.82089000E-03
		 0.00000000E+00	 0.00000000E+00	 0.00000000E+00
		 1.24863000E-03	-4.44245000E-03	-2.98135000E-03
		 0.00000000E+00	 0.00000000E+00	 0.00000000E+00
		 2.36380000E-04	-1.71907000E-03	-1.47599000E-03
		 5.69707000E-04	-4.85745000E-03	-1.13802000E-03
		 6.43599000E-05	-9.61112000E-03	 2.83970000E-04
		-2.80523000E-03	-9.75983000E-03	 5.28294000E-03
		 9.61473000E-05	-1.23594000E-02	 3.00333000E-04
		-2.54778000E-03	-1.25158000E-02	 5.31889000E-03
		 2.37500000E-05	-5.28180000E-03	 2.26545000E-04
		-1.36776000E-03	-9.66162000E-03	 2.80197000E-03
		-2.35192000E-03	-5.47374000E-03	 4.35561000E-03
		 7.96252000E-05	-1.10073000E-02	 2.91660000E-04
		-2.67704000E-03	-1.11618000E-02	 5.24341000E-03
		 5.36042000E-05	-7.49900000E-03	 2.42653000E-04
		-1.22183000E-03	-1.24122000E-02	 2.77173000E-03
		-2.01536000E-03	-7.69967000E-03	 4.38843000E-03
		 2.93876000E-03	-9.64418000E-03	-4.72121000E-03
		 2.73665000E-03	-1.24105000E-02	-4.72397000E-03
		 2.39866000E-03	-5.37877000E-03	-3.90864000E-03
		 1.49724000E-03	-9.60236000E-03	-2.23649000E-03
		 2.83972000E-03	-1.10573000E-02	-4.66330000E-03
		 2.12156000E-03	-7.60607000E-03	-3.90996000E-03
		 1.41804000E-03	-1.23602000E-02	-2.16954000E-03
		 1.23218000E-04	-1.48958000E-02	 3.15700000E-04
		-2.28873000E-03	-1.50401000E-02	 5.31237000E-03
		 1.09752000E-04	-1.36491000E-02	 3.09300000E-04
		-2.41801000E-03	-1.38298000E-02	 5.39393000E-03
		 8.44970000E-05	-9.42030000E-03	 2.58468000E-04
		-1.08871000E-03	-1.49406000E-02	 2.70093000E-03
		-1.69377000E-03	-9.62705000E-03	 4.38641000E-03
		 2.55859000E-03	-1.49523000E-02	-4.68886000E-03
		 2.64809000E-03	-1.37041000E-02	-4.78568000E-03
		 1.86996000E-03	-9.53727000E-03	-3.87506000E-03
		 1.34153000E-03	-1.48985000E-02	-2.06673000E-03
		 1.74479000E-04	-2.07823000E-02	 3.49204000E-04
		-3.16948000E-03	-2.07725000E-02	 6.02065000E-03
		 2.05184000E-04	-2.41042000E-02	 3.72502000E-04
		-3.14647000E-03	-2.42049000E-02	 6.07268000E-03
		 1.17784000E-04	-1.49047000E-02	 3.26122000E-04
		-1.49235000E-03	-2.07798000E-02	 3.13245000E-03
		-3.07297000E-03	-1.49957000E-02	 5.86553000E-03
		 1.91222000E-04	-2.24418000E-02	 3.65336000E-04
		-3.16106000E-03	-2.25017000E-02	 6.02942000E-03
		 1.48127000E-04	-1.80244000E-02	 3.42088000E-04
		-1.49494000E-03	-2.41630000E-02	 3.13838000E-03
		-2.92068000E-03	-1.81356000E-02	 5.91312000E-03
		 3.48265000E-03	-2.06997000E-02	-5.30847000E-03
		 3.55478000E-03	-2.40422000E-02	-5.34760000E-03
		 3.30547000E-03	-1.48777000E-02	-5.21668000E-03
		 1.82903000E-03	-2.07475000E-02	-2.42279000E-03
		 3.51768000E-03	-2.23633000E-02	-5.31374000E-03
		 3.22082000E-03	-1.80085000E-02	-5.23451000E-03
		 1.88130000E-03	-2.40849000E-02	-2.41370000E-03
		 2.27474000E-04	-2.74699000E-02	 3.89363000E-04
		-3.23400000E-03	-2.76945000E-02	 6.05974000E-03
		 2.17252000E-04	-2.57966000E-02	 3.78765000E-04
		-3.19207000E-03	-2.58278000E-02	 6.12817000E-03
		 1.83506000E-04	-2.10410000E-02	 3.55517000E-04
		-1.47092000E-03	-2.75958000E-02	 3.07556000E-03
		-2.81757000E-03	-2.11833000E-02	 5.89810000E-03
		 3.64478000E-03	-2.74424000E-02	-5.32730000E-03
		 3.59990000E-03	-2.57319000E-02	-5.39094000E-03
		 3.14654000E-03	-2.10291000E-02	-5.19575000E-03
		 1.92711000E-03	-2.74754000E-02	-2.34187000E-03
		 3.41651000E-04	-3.15941000E-02	 3.74601000E-04
		-3.10988000E-03	-3.13870000E-02	 4.77810000E-03
		 3.62278000E-04	-3.52416000E-02	 4.29335000E-04
		-3.49591000E-03	-3.54923000E-02	 4.83997000E-03
		 2.17934000E-04	-2.65579000E-02	 3.63128000E-04
		-1.38444000E-03	-3.15269000E-02	 2.56845000E-03
		-3.15614000E-03	-2.65448000E-02	 5.57184000E-03
		 3.53528000E-04	-3.33462000E-02	 4.02814000E-04
		-3.29302000E-03	-3.33136000E-02	 4.80987000E-03
		 2.38820000E-04	-3.00745000E-02	 3.55675000E-04
		-1.44309000E-03	-3.53903000E-02	 2.62618000E-03
		-3.38050000E-03	-3.00017000E-02	 5.66774000E-03
		 3.62350000E-03	-3.14221000E-02	-4.02485000E-03
		 3.92344000E-03	-3.49145000E-02	-3.97637000E-03
		 3.56620000E-03	-2.64295000E-02	-4.84204000E-03
		 1.98232000E-03	-3.15519000E-02	-1.81765000E-03
		 3.77704000E-03	-3.31254000E-02	-4.00026000E-03
		 3.78980000E-03	-2.99009000E-02	-4.85038000E-03
		 2.13030000E-03	-3.50940000E-02	-1.76666000E-03
		 2.42062000E-04	-3.92015000E-02	 4.78725000E-04
		-3.75122000E-03	-3.98143000E-02	 4.88347000E-03
		 3.03973000E-04	-3.71469000E-02	 4.54176000E-04
		-3.62211000E-03	-3.81002000E-02	 4.86474000E-03
		 2.33465000E-04	-3.37849000E-02	 3.16046000E-04
		-1.87216000E-03	-3.95163000E-02	 2.66887000E-03
		-3.44941000E-03	-3.36001000E-02	 5.66010000E-03
		 4.23880000E-03	-3.87209000E-02	-3.91976000E-03