<?xml version="1.0"?>
<VTKFile type="UnstructuredGrid" version="0.1" byte_order="LittleEndian">
	<UnstructuredGrid>
		<Piece NumberOfPoints="522" NumberOfCells="64">
			<Points>
				<DataArray type="Float64" NumberOfComponents="3" format="ascii">
					 1.00000000E+00	 1.00000000E+00	-5.96046000E-08
					 1.00000000E+00	 5.00000000E-01	-5.96046000E-08
					 1.00000000E+00	 5.00000000E-01	 1.00000000E+00
					 1.00000000E+00	 1.00000000E+00	 1.00000000E+00
					 5.00000000E-01	 1.00000000E+00	-5.96046000E-08
					 5.00000000E-01	 5.00000000E-01	-5.96046000E-08
					 5.00000000E-01	 5.00000000E-01	 1.00000000E+00
					 5.00000000E-01	 1.00000000E+00	 1.00000000E+00
					 1.00000000E+00	 7.50000000E-01	-5.96046000E-08
					 1.00000000E+00	 5.00000000E-01	 5.00000000E-01
					 1.00000000E+00	 7.50000000E-01	 1.00000000E+00
					 1.00000000E+00	 1.00000000E+00	 5.00000000E-01
					 7.50000000E-01	 1.00000000E+00	-5.96046000E-08
					 7.50000000E-01	 5.00000000E-01	-5.96046000E-08
					 7.50000000E-01	 5.00000000E-01	 1.00000000E+00
					 7.50000000E-01	 1.00000000E+00	 1.00000000E+00
					 5.00000000E-01	 7.50000000E-01	-5.96046000E-08
					 5.00000000E-01	 5.00000000E-01	 5.00000000E-01
					 5.00000000E-01	 7.50000000E-01	 1.00000000E+00
					 5.00000000E-01	 1.00000000E+00	 5.00000000E-01
					 1.00000000E+00	-1.49012000E-08	-5.96046000E-08
					 1.00000000E+00	-1.49012000E-08	 1.00000000E+00
					 5.00000000E-01	-1.49012000E-08	-5.96046000E-08
					 5.00000000E-01	-1.49012000E-08	 1.00000000E+00
					 1.00000000E+00	 2.50000000E-01	-5.96046000E-08
					 1.00000000E+00	-1.49012000E-08	 5.00000000E-01
					 1.00000000E+00	 2.50000000E-01	 1.00000000E+00
					 7.50000000E-01	-1.49012000E-08	-5.96046000E-08
					 7.50000000E-01	-1.49012000E-08	 1.00000000E+00
					 5.00000000E-01	 2.50000000E-01	-5.96046000E-08
					 5.00000000E-01	-1.49012000E-08	 5.00000000E-01
					 5.00000000E-01	 2.50000000E-01	 1.00000000E+00
					-7.45058000E-09	 1.00000000E+00	-5.96046000E-08
					-7.45058000E-09	 5.00000000E-01	-5.96046000E-08
					-7.45058000E-09	 5.00000000E-01	 1.00000000E+00
					-7.45058000E-09	 1.00000000E+00	 1.00000000E+00
					 2.50000000E-01	 1.00000000E+00	-5.96046000E-08
					 2.50000000E-01	 5.00000000E-01	-5.96046000E-08
					 2.50000000E-01	 5.00000000E-01	 1.00000000E+00
					 2.50000000E-01	 1.00000000E+00	 1.00000000E+00
					-7.45058000E-09	 7.50000000E-01	-5.96046000E-08
					-7.45058000E-09	 5.00000000E-01	 5.00000000E-01
					-7.45058000E-09	 7.50000000E-01	 1.00000000E+00
					-7.45058000E-09	 1.00000000E+00	 5.00000000E-01
					-7.45058000E-09	-1.49012000E-08	-5.96046000E-08
					-7.45058000E-09	-1.49012000E-08	 1.00000000E+00
					 2.50000000E-01	-1.49012000E-08	-5.96046000E-08
					 2.50000000E-01	-1.49012000E-08	 1.00000000E+00
					-7.45058000E-09	 2.50000000E-01	-5.96046000E-08
					-7.45058000E-09	-1.49012000E-08	 5.00000000E-01
					-7.45058000E-09	 2.50000000E-01	 1.00000000E+00
					 1.00000000E+00	 5.00000000E-01	 2.00000000E+00
					 1.00000000E+00	 1.00000000E+00	 2.00000000E+00
					 5.00000000E-01	 5.00000000E-01	 2.00000000E+00
					 5.00000000E-01	 1.00000000E+00	 2.00000000E+00
					 1.00000000E+00	 5.00000000E-01	 1.50000000E+00
					 1.00000000E+00	 7.50000000E-01	 2.00000000E+00
					 1.00000000E+00	 1.00000000E+00	 1.50000000E+00
					 7.50000000E-01	 5.00000000E-01	 2.00000000E+00
					 7.50000000E-01	 1.00000000E+00	 2.00000000E+00
					 5.00000000E-01	 5.00000000E-01	 1.50000000E+00
					 5.00000000E-01	 7.50000000E-01	 2.00000000E+00
					 5.00000000E-01	 1.00000000E+00	 1.50000000E+00
					 1.00000000E+00	-1.49012000E-08	 2.00000000E+00
					 5.00000000E-01	-1.49012000E-08	 2.00000000E+00
					 1.00000000E+00	-1.49012000E-08	 1.50000000E+00
					 1.00000000E+00	 2.50000000E-01	 2.00000000E+00
					 7.50000000E-01	-1.49012000E-08	 2.00000000E+00
					 5.00000000E-01	-1.49012000E-08	 1.50000000E+00
					 5.00000000E-01	 2.50000000E-01	 2.00000000E+00
					-7.45058000E-09	 5.00000000E-01	 2.00000000E+00
					-7.45058000E-09	 1.00000000E+00	 2.00000000E+00
					 2.50000000E-01	 5.00000000E-01	 2.00000000E+00
					 2.50000000E-01	 1.00000000E+00	 2.00000000E+00
					-7.45058000E-09	 5.00000000E-01	 1.50000000E+00
					-7.45058000E-09	 7.50000000E-01	 2.00000000E+00
					-7.45058000E-09	 1.00000000E+00	 1.50000000E+00
					-7.45058000E-09	-1.49012000E-08	 2.00000000E+00
					 2.50000000E-01	-1.49012000E-08	 2.00000000E+00
					-7.45058000E-09	-1.49012000E-08	 1.50000000E+00
					-7.45058000E-09	 2.50000000E-01	 2.00000000E+00
					 1.00000000E+00	 5.00000000E-01	 3.00000000E+00
					 1.00000000E+00	 1.00000000E+00	 3.00000000E+00
					 5.00000000E-01	 5.00000000E-01	 3.00000000E+00
					 5.00000000E-01	 1.00000000E+00	 3.00000000E+00
					 1.00000000E+00	 5.00000000E-01	 2.50000000E+00
					 1.00000000E+00	 7.50000000E-01	 3.00000000E+00
					 1.00000000E+00	 1.00000000E+00	 2.50000000E+00
					 7.50000000E-01	 5.00000000E-01	 3.00000000E+00
					 7.50000000E-01	 1.00000000E+00	 3.00000000E+00
					 5.00000000E-01	 5.00000000E-01	 2.50000000E+00
					 5.00000000E-01	 7.50000000E-01	 3.00000000E+00
					 5.00000000E-01	 1.00000000E+00	 2.50000000E+00
					 1.00000000E+00	-1.49012000E-08	 3.00000000E+00
					 5.00000000E-01	-1.49012000E-08	 3.00000000E+00
					 1.00000000E+00	-1.49012000E-08	 2.50000000E+00
					 1.00000000E+00	 2.50000000E-01	 3.00000000E+00
					 7.50000000E-01	-1.49012000E-08	 3.00000000E+00
					 5.00000000E-01	-1.49012000E-08	 2.50000000E+00
					 5.00000000E-01	 2.50000000E-01	 3.00000000E+00
					-7.45058000E-09	 5.00000000E-01	 3.00000000E+00
					-7.45058000E-09	 1.00000000E+00	 3.00000000E+00
					 2.50000000E-01	 5.00000000E-01	 3.00000000E+00
					 2.50000000E-01	 1.00000000E+00	 3.00000000E+00
					-7.45058000E-09	 5.00000000E-01	 2.50000000E+00
					-7.45058000E-09	 7.50000000E-01	 3.00000000E+00
					-7.45058000E-09	 1.00000000E+00	 2.50000000E+00
					-7.45058000E-09	-1.49012000E-08	 3.00000000E+00
					 2.50000000E-01	-1.49012000E-08	 3.00000000E+00
					-7.45058000E-09	-1.49012000E-08	 2.50000000E+00
					-7.45058000E-09	 2.50000000E-01	 3.00000000E+00
					 1.00000000E+00	 5.00000000E-01	 4.00000000E+00
					 1.00000000E+00	 1.00000000E+00	 4.00000000E+00
					 5.00000000E-01	 5.00000000E-01	 4.00000000E+00
					 5.00000000E-01	 1.00000000E+00	 4.00000000E+00
					 1.00000000E+00	 5.00000000E-01	 3.50000000E+00
					 1.00000000E+00	 7.50000000E-01	 4.00000000E+00
					 1.00000000E+00	 1.00000000E+00	 3.50000000E+00
					 7.50000000E-01	 5.00000000E-01	 4.00000000E+00
					 7.50000000E-01	 1.00000000E+00	 4.00000000E+00
					 5.00000000E-01	 5.00000000E-01	 3.50000000E+00
					 5.00000000E-01	 7.50000000E-01	 4.00000000E+00
					 5.00000000E-01	 1.00000000E+00	 3.50000000E+00
					 1.00000000E+00	-1.49012000E-08	 4.00000000E+00
					 5.00000000E-01	-1.49012000E-08	 4.00000000E+00
					 1.00000000E+00	-1.49012000E-08	 3.50000000E+00
					 1.00000000E+00	 2.50000000E-01	 4.00000000E+00
					 7.50000000E-01	-1.49012000E-08	 4.00000000E+00
					 5.00000000E-01	-1.49012000E-08	 3.50000000E+00
					 5.00000000E-01	 2.50000000E-01	 4.00000000E+00
					-7.45058000E-09	 5.00000000E-01	 4.00000000E+00
					-7.45058000E-09	 1.00000000E+00	 4.00000000E+00
					 2.50000000E-01	 5.00000000E-01	 4.00000000E+00
					 2.50000000E-01	 1.00000000E+00	 4.00000000E+00
					-7.45058000E-09	 5.00000000E-01	 3.50000000E+00
					-7.45058000E-09	 7.50000000E-01	 4.00000000E+00
					-7.45058000E-09	 1.00000000E+00	 3.50000000E+00
					-7.45058000E-09	-1.49012000E-08	 4.00000000E+00
					 2.50000000E-01	-1.49012000E-08	 4.00000000E+00
					-7.45058000E-09	-1.49012000E-08	 3.50000000E+00
					-7.45058000E-09	 2.50000000E-01	 4.00000000E+00
					 1.00000000E+00	 5.00000000E-01	 5.00000000E+00
					 1.00000000E+00	 1.00000000E+00	 5.00000000E+00
					 5.00000000E-01	 5.00000000E-01	 5.00000000E+00
					 5.00000000E-01	 1.00000000E+00	 5.00000000E+00
					 1.00000000E+00	 5.00000000E-01	 4.50000000E+00
					 1.00000000E+00	 7.50000000E-01	 5.00000000E+00
					 1.00000000E+00	 1.00000000E+00	 4.50000000E+00
					 7.50000000E-01	 5.00000000E-01	 5.00000000E+00
					 7.50000000E-01	 1.00000000E+00	 5.00000000E+00
					 5.00000000E-01	 5.00000000E-01	 4.50000000E+00
					 5.00000000E-01	 7.50000000E-01	 5.00000000E+00
					 5.00000000E-01	 1.00000000E+00	 4.50000000E+00
					 1.00000000E+00	-1.49012000E-08	 5.00000000E+00
					 5.00000000E-01	-1.49012000E-08	 5.00000000E+00
					 1.00000000E+00	-1.49012000E-08	 4.50000000E+00
					 1.00000000E+00	 2.50000000E-01	 5.00000000E+00
					 7.50000000E-01	-1.49012000E-08	 5.00000000E+00
					 5.00000000E-01	-1.49012000E-08	 4.50000000E+00
					 5.00000000E-01	 2.50000000E-01	 5.00000000E+00
					-7.45058000E-09	 5.00000000E-01	 5.00000000E+00
					-7.45058000E-09	 1.00000000E+00	 5.00000000E+00
					 2.50000000E-01	 5.00000000E-01	 5.00000000E+00
					 2.50000000E-01	 1.00000000E+00	 5.00000000E+00
					-7.45058000E-09	 5.00000000E-01	 4.50000000E+00
					-7.45058000E-09	 7.50000000E-01	 5.00000000E+00
					-7.45058000E-09	 1.00000000E+00	 4.50000000E+00
					-7.45058000E-09	-1.49012000E-08	 5.00000000E+00
					 2.50000000E-01	-1.49012000E-08	 5.00000000E+00
					-7.45058000E-09	-1.49012000E-08	 4.50000000E+00
					-7.45058000E-09	 2.50000000E-01	 5.00000000E+00
					 1.00000000E+00	 5.00000000E-01	 6.00000000E+00
					 1.00000000E+00	 1.00000000E+00	 6.00000000E+00
					 5.00000000E-01	 5.00000000E-01	 6.00000000E+00
					 5.00000000E-01	 1.00000000E+00	 6.00000000E+00
					 1.00000000E+00	 5.00000000E-01	 5.50000000E+00
					 1.00000000E+00	 7.50000000E-01	 6.00000000E+00
					 1.00000000E+00	 1.00000000E+00	 5.50000000E+00
					 7.50000000E-01	 5.00000000E-01	 6.00000000E+00
					 7.50000000E-01	 1.00000000E+00	 6.00000000E+00
					 5.00000000E-01	 5.00000000E-01	 5.50000000E+00
					 5.00000000E-01	 7.50000000E-01	 6.00000000E+00
					 5.00000000E-01	 1.00000000E+00	 5.50000000E+00
					 1.00000000E+00	-1.49012000E-08	 6.00000000E+00
[...]
			<PointData>
				<DataArray type="Float32" Name="U" NumberOfComponents="3" ComponentName0="D1" ComponentName1="D2" ComponentName2="D3" format="ascii">
					 0.00000000E+00	 0.00000000E+00	 0.00000000E+00
					 0.00000000E+00	 0.00000000E+00	 0.00000000E+00
					 2.62537000E-05	-3.10223000E-03	-3.58487000E-05
					-5.59787000E-04	-3.32288000E-03	 3.18807000E-03
					 0.00000000E+00	 0.00000000E+00	 0.00000000E+00
					 0.00000000E+00	 0.00000000E+00	 0.00000000E+00
					-1.78007000E-05	-3.54390000E-03	-3.45148000E-05
					-2.64018000E-04	-3.74418000E-03	 3.19655000E-03
					 0.00000000E+00	 0.00000000E+00	 0.00000000E+00
					-4.28600000E-06	-5.95816000E-04	-1.60409000E-05
					-3.07203000E-04	-3.14158000E-03	 1.55296000E-03
					-5.80820000E-04	-9.16585000E-04	 1.63423000E-03
					 0.00000000E+00	 0.00000000E+00	 0.00000000E+00
					 0.00000000E+00	 0.00000000E+00	 0.00000000E+00
					-5.69891000E-06	-3.38500000E-03	-2.64500000E-05
					-4.00921000E-04	-3.58189000E-03	 3.14647000E-03
					 0.00000000E+00	 0.00000000E+00	 0.00000000E+00
					 8.30202000E-06	-9.28709000E-04	-2.22485000E-05
					-1.23407000E-04	-3.55798000E-03	 1.55030000E-03
					-1.63757000E-04	-1.19635000E-03	 1.55562000E-03
					 0.00000000E+00	 0.00000000E+00	 0.00000000E+00
					 7.50121000E-04	-3.09554000E-03	-3.33086000E-03
					 0.00000000E+00	 0.00000000E+00	 0.00000000E+00
					 2.87395000E-04	-3.72404000E-03	-3.33646000E-03
					 0.00000000E+00	 0.00000000E+00	 0.00000000E+00
					 6.66842000E-04	-8.36044000E-04	-1.66049000E-03
					 3.76021000E-04	-3.02521000E-03	-1.67045000E-03
					 0.00000000E+00	 0.00000000E+00	 0.00000000E+00
					 5.16703000E-04	-3.51779000E-03	-3.30712000E-03
					 0.00000000E+00	 0.00000000E+00	 0.00000000E+00
					 1.33314000E-04	-1.15774000E-03	-1.63242000E-03
					 1.29472000E-04	-3.56126000E-03	-1.62618000E-03
					 0.00000000E+00	 0.00000000E+00	 0.00000000E+00
					 0.00000000E+00	 0.00000000E+00	 0.00000000E+00
					 4.24561000E-06	-3.62364000E-03	-8.84530000E-05
					 1.03197000E-04	-3.82133000E-03	 3.18157000E-03
					 0.00000000E+00	 0.00000000E+00	 0.00000000E+00
					 0.00000000E+00	 0.00000000E+00	 0.00000000E+00
					-5.92418000E-06	-3.62369000E-03	-8.47047000E-05
					-9.24863000E-05	-3.83520000E-03	 3.22462000E-03
					 0.00000000E+00	 0.00000000E+00	 0.00000000E+00
					-1.72140000E-05	-8.20311000E-04	-3.96658000E-05
					 7.69788000E-05	-3.66354000E-03	 1.49647000E-03
					 3.53520000E-04	-1.06922000E-03	 1.56375000E-03
					 0.00000000E+00	 0.00000000E+00	 0.00000000E+00
					-2.04786000E-04	-3.67420000E-03	-3.32350000E-03
					 0.00000000E+00	 0.00000000E+00	 0.00000000E+00
					 4.57861000E-05	-3.81698000E-03	-3.36681000E-03
					 0.00000000E+00	 0.00000000E+00	 0.00000000E+00
					-3.96668000E-04	-1.07256000E-03	-1.63938000E-03
					-6.14247000E-05	-3.58508000E-03	-1.62421000E-03
					 1.43191000E-06	-1.23287000E-02	-1.48341000E-04
					-9.29342000E-04	-1.23458000E-02	 5.69537000E-03
					-1.36967000E-06	-1.28906000E-02	-1.28206000E-04
					-4.06022000E-04	-1.31381000E-02	 5.69210000E-03
					 3.29418000E-06	-7.04790000E-03	-7.85546000E-05
					-4.07071000E-04	-1.22931000E-02	 2.79999000E-03
					-7.43119000E-04	-7.23575000E-03	 4.49764000E-03
					 1.39467000E-05	-1.26332000E-02	-1.24899000E-04
					-6.71040000E-04	-1.28320000E-02	 5.69684000E-03
					-1.49330000E-05	-7.60200000E-03	-9.22053000E-05
					-2.05151000E-04	-1.29773000E-02	 2.79600000E-03
					-3.46348000E-04	-7.82289000E-03	 4.49912000E-03
					 7.55207000E-04	-1.24662000E-02	-5.84092000E-03
					 4.91181000E-04	-1.30249000E-02	-5.91940000E-03
					 7.26800000E-04	-7.23204000E-03	-4.64220000E-03
					 3.90294000E-04	-1.23441000E-02	-3.00723000E-03
					 6.16186000E-04	-1.27665000E-02	-5.89228000E-03
					 3.72402000E-04	-7.76126000E-03	-4.68837000E-03
					 2.26253000E-04	-1.29235000E-02	-3.03627000E-03
					 3.84094000E-05	-1.31785000E-02	-8.81704000E-05
					 4.70984000E-05	-1.33651000E-02	 5.68637000E-03
					 2.26189000E-05	-1.30828000E-02	-7.76789000E-05
					-1.79023000E-04	-1.32822000E-02	 5.70623000E-03
					 7.84874000E-06	-7.77445000E-03	-7.35938000E-05
					 1.72702000E-05	-1.32196000E-02	 2.78760000E-03
					 2.18503000E-05	-8.02050000E-03	 4.49013000E-03
					 3.15260000E-04	-1.34627000E-02	-5.87953000E-03
					 3.93508000E-04	-1.32133000E-02	-5.91436000E-03
					 8.34419000E-06	-7.99097000E-03	-4.63852000E-03
					 8.09976000E-05	-1.32559000E-02	-2.99304000E-03
					 2.01937000E-05	-2.62890000E-02	-1.50115000E-04
					-8.04609000E-04	-2.66827000E-02	 8.22188000E-03
					 2.96312000E-05	-2.69851000E-02	-1.31484000E-04
					-4.79306000E-04	-2.72314000E-02	 8.23065000E-03
					-1.07506000E-05	-1.86276000E-02	-1.51006000E-04
					-4.17547000E-04	-2.64541000E-02	 4.00761000E-03
					-8.31939000E-04	-1.88850000E-02	 6.96649000E-03
					 4.54991000E-06	-2.67103000E-02	-1.44853000E-04
					-6.33479000E-04	-2.69980000E-02	 8.20964000E-03
					 1.58338000E-05	-1.93076000E-02	-1.23452000E-04
					-2.30304000E-04	-2.70452000E-02	 4.03181000E-03
					-4.58614000E-04	-1.95478000E-02	 6.94996000E-03
					 1.03857000E-03	-2.63407000E-02	-8.54153000E-03
					 4.90814000E-04	-2.71204000E-02	-8.49684000E-03
					 9.03258000E-04	-1.87327000E-02	-7.18565000E-03
					 4.97501000E-04	-2.62656000E-02	-4.30325000E-03
					 7.84731000E-04	-2.68337000E-02	-8.50771000E-03
					 4.91404000E-04	-1.94059000E-02	-7.11309000E-03
					 2.85544000E-04	-2.70173000E-02	-4.28953000E-03
					-9.28160000E-07	-2.73253000E-02	-1.20757000E-04
					-1.17592000E-04	-2.76128000E-02	 8.28457000E-03
					 2.38560000E-05	-2.72128000E-02	-1.28630000E-04
					-3.07847000E-04	-2.74625000E-02	 8.26355000E-03
					 3.84212000E-05	-1.95826000E-02	-9.07269000E-05
					-2.71281000E-05	-2.74410000E-02	 4.03382000E-03
					-8.59431000E-05	-1.98585000E-02	 6.98207000E-03
					-2.00757000E-05	-2.72926000E-02	-8.44978000E-03
					 2.28286000E-04	-2.72924000E-02	-8.48939000E-03
					 1.68631000E-04	-1.97752000E-02	-7.16984000E-03
					 1.48590000E-05	-2.72630000E-02	-4.27679000E-03
					 1.15306000E-05	-4.58836000E-02	-2.26923000E-04
					-5.28157000E-04	-4.60977000E-02	 1.00940000E-02
					 7.49758000E-05	-4.63343000E-02	-2.62062000E-04
					-2.47805000E-04	-4.65768000E-02	 1.00885000E-02
					 4.31930000E-05	-3.55053000E-02	-1.65123000E-04
					-2.20332000E-04	-4.59683000E-02	 4.83832000E-03
					-7.24221000E-04	-3.57977000E-02	 9.29117000E-03
					 5.01911000E-05	-4.61388000E-02	-2.62753000E-04
					-3.85810000E-04	-4.63464000E-02	 1.01604000E-02
					 6.19788000E-05	-3.61399000E-02	-1.97308000E-04
					-9.61045000E-05	-4.64264000E-02	 4.88575000E-03
					-3.81307000E-04	-3.63992000E-02	 9.29499000E-03
					 6.31620000E-04	-4.59955000E-02	-1.06152000E-02
					 3.47768000E-04	-4.63053000E-02	-1.06860000E-02
					 8.85656000E-04	-3.55527000E-02	-9.67428000E-03
					 3.22013000E-04	-4.59081000E-02	-5.35847000E-03
					 4.75331000E-04	-4.61811000E-02	-1.07203000E-02
					 5.49600000E-04	-3.61672000E-02	-9.74088000E-03
					 2.06053000E-04	-4.63019000E-02	-5.45832000E-03
					 4.82399000E-05	-4.65184000E-02	-3.44548000E-04
					-5.71558000E-05	-4.67329000E-02	 1.00005000E-02
					 6.49553000E-05	-4.64416000E-02	-3.38357000E-04
					-1.47982000E-04	-4.66456000E-02	 9.99194000E-03
					 6.84786000E-05	-3.64679000E-02	-1.84719000E-04
					 2.33837000E-05	-4.65835000E-02	 4.88920000E-03
					-1.45061000E-04	-3.67165000E-02	 9.25686000E-03
					 1.99389000E-04	-4.65945000E-02	-1.07445000E-02
					 2.52783000E-04	-4.64456000E-02	-1.06505000E-02
					 2.54715000E-04	-3.65458000E-02	-9.69796000E-03
					 9.67010000E-05	-4.64985000E-02	-5.55762000E-03
					 1.68841000E-04	-6.93938000E-02	-7.46123000E-04
					 7.57598000E-04	-6.96056000E-02	 1.11437000E-02
					 1.15357000E-04	-6.86956000E-02	-6.51150000E-04
					 9.64155000E-04	-6.89129000E-02	 1.11833000E-02
					 8.10053000E-05	-5.73625000E-02	-4.80861000E-04
					 4.59453000E-04	-6.94492000E-02	 5.14301000E-03
					 9.80440000E-05	-5.75320000E-02	 1.06113000E-02
					 1.50115000E-04	-6.90757000E-02	-6.68455000E-04
					 8.58166000E-04	-6.93233000E-02	 1.12475000E-02
					 4.68291000E-05	-5.71225000E-02	-4.32220000E-04
					 5.46810000E-04	-6.87872000E-02	 5.24826000E-03
					 3.27902000E-04	-5.73737000E-02	 1.06968000E-02
					-6.58801000E-04	-6.95519000E-02	-1.25169000E-02
					-7.86471000E-04	-6.86207000E-02	-1.25092000E-02
					-1.38701000E-05	-5.73808000E-02	-1.16177000E-02
					-2.43819000E-04	-6.94598000E-02	-6.53435000E-03
					-7.15883000E-04	-6.90552000E-02	-1.25986000E-02
					-2.50811000E-04	-5.71763000E-02	-1.16108000E-02
					-3.27720000E-04	-6.86146000E-02	-6.56760000E-03
					 8.23798000E-05	-6.77039000E-02	-5.70528000E-04
					 1.21228000E-03	-6.78332000E-02	 1.12860000E-02
					 7.89445000E-05	-6.82285000E-02	-5.88372000E-04
					 1.07565000E-03	-6.84359000E-02	 1.11676000E-02
					 4.86651000E-05	-5.67566000E-02	-4.54453000E-04
					 6.25545000E-04	-6.77492000E-02	 5.45364000E-03
					 5.46943000E-04	-5.69539000E-02	 1.06610000E-02
					-9.56469000E-04	-6.77058000E-02	-1.23674000E-02
					-8.44511000E-04	-6.81976000E-02	-1.23675000E-02
					-4.59025000E-04	-5.67379000E-02	-1.15485000E-02
					-4.25408000E-04	-6.77016000E-02	-6.55691000E-03
					 9.71766000E-05	-9.50844000E-02	-9.31163000E-04
					 1.25271000E-03	-9.54212000E-02	 1.20087000E-02
					 1.37392000E-04	-9.38901000E-02	-8.28427000E-04
					 1.40387000E-03	-9.41694000E-02	 1.20588000E-02
					 1.17229000E-04	-8.20473000E-02	-8.23358000E-04
					 6.72436000E-04	-9.52359000E-02	 5.47903000E-03
					 1.09463000E-03	-8.23422000E-02	 1.16623000E-02
					 1.10043000E-04	-9.45013000E-02	-9.24803000E-04
					 1.30950000E-03	-9.47706000E-02	 1.20710000E-02
					 1.17625000E-04	-8.09679000E-02	-7.75645000E-04
					 7.36352000E-04	-9.40312000E-02	 5.57123000E-03
					 1.29629000E-03	-8.12066000E-02	 1.16772000E-02
					-1.09664000E-03	-9.49931000E-02	-1.39993000E-02
					-1.16734000E-03	-9.37256000E-02	-1.39289000E-02
					-8.72695000E-04	-8.19074000E-02	-1.33175000E-02
					-4.71837000E-04	-9.50283000E-02	-7.40831000E-03
					-1.14271000E-03	-9.44225000E-02	-1.39486000E-02
					-1.04468000E-03	-8.08983000E-02	-1.32588000E-02
					-4.96715000E-04	-9.37923000E-02	-7.34879000E-03
					 1.33696000E-04	-9.25942000E-02	-8.38794000E-04
					 1.54564000E-03	-9.28192000E-02	 1.21632000E-02
					 1.41594000E-04	-9.32927000E-02	-8.52194000E-04
					 1.49189000E-03	-9.35301000E-02	 1.21533000E-02
					 1.28048000E-04	-7.97082000E-02	-7.09925000E-04
					 8.35108000E-04	-9.26841000E-02	 5.54962000E-03
					 1.49088000E-03	-7.99253000E-02	 1.18107000E-02
					-1.34393000E-03	-9.23175000E-02	-1.38439000E-02
					-1.25047000E-03	-9.30995000E-02	-1.38983000E-02
					-1.27073000E-03	-7.95592000E-02	-1.32083000E-02
					-5.49481000E-04	-9.24532000E-02	-7.27111000E-03
					 2.18868000E-04	-1.21688000E-01	-1.38299000E-03
					 1.09535000E-03	-1.21774000E-01	 1.15749000E-02
					 1.71367000E-04	-1.20770000E-01	-1.30257000E-03
					 9.94640000E-04	-1.20834000E-01	 1.17430000E-02
					 1.43521000E-04	-1.08459000E-01	-1.18411000E-03
					 6.51492000E-04	-1.21743000E-01	 5.15850000E-03
					 1.24682000E-03	-1.08623000E-01	 1.19719000E-02
					 2.03505000E-04	-1.21195000E-01	-1.30906000E-03
					 1.05802000E-03	-1.21320000E-01	 1.15879000E-02
					 1.62364000E-04	-1.07371000E-01	-1.03053000E-03
					 5.90122000E-04	-1.20793000E-01	 5.18046000E-03
					 1.23898000E-03	-1.07516000E-01	 1.21016000E-02
					-8.61307000E-04	-1.21594000E-01	-1.42593000E-02
					-6.98095000E-04	-1.20577000E-01	-1.42191000E-02
					-1.00851000E-03	-1.08330000E-01	-1.43133000E-02
					-3.02850000E-04	-1.21648000E-01	-7.79760000E-03
					-7.57821000E-04	-1.20985000E-01	-1.42209000E-02
					-9.40637000E-04	-1.07210000E-01	-1.42429000E-02
					-2.63078000E-04	-1.20684000E-01	-7.74396000E-03
					 1.54899000E-04	-1.20009000E-01	-1.27496000E-03
					 1.01874000E-03	-1.19940000E-01	 1.16807000E-02
					 1.62641000E-04	-1.20332000E-01	-1.27138000E-03
					 9.86925000E-04	-1.20381000E-01	 1.17439000E-02
					 1.34579000E-04	-1.06296000E-01	-1.00320000E-03
					 5.73294000E-04	-1.19993000E-01	 5.16869000E-03
					 1.24926000E-03	-1.06468000E-01	 1.20674000E-02
					-5.26247000E-04	-1.19903000E-01	-1.41992000E-02
					-6.15929000E-04	-1.20152000E-01	-1.42635000E-02
					-8.97542000E-04	-1.06126000E-01	-1.41621000E-02
					-2.42428000E-04	-1.19951000E-01	-7.69225000E-03
					 1.99685000E-04	-1.46356000E-01	-1.64789000E-03
					 9.78931000E-04	-1.46635000E-01	 1.08697000E-02
					 2.55658000E-04	-1.45597000E-01	-1.79536000E-03
					 8.93763000E-04	-1.45961000E-01	 1.06142000E-02
					 2.68802000E-04	-1.34120000E-01	-1.50591000E-03
					 5.46927000E-04	-1.46482000E-01	 4.56644000E-03
					 9.89151000E-04	-1.34263000E-01	 1.10693000E-02
					 2.25732000E-04	-1.46028000E-01	-1.73569000E-03
					 9.49220000E-04	-1.46234000E-01	 1.08114000E-02
					 1.98128000E-04	-1.33381000E-01	-1.58771000E-03
					 5.91105000E-04	-1.45819000E-01	 4.49996000E-03
					 8.57984000E-04	-1.33515000E-01	 1.10939000E-02
					-6.44098000E-04	-1.46027000E-01	-1.36959000E-02
					-5.61407000E-04	-1.45107000E-01	-1.37742000E-02
					-7.07926000E-04	-1.34135000E-01	-1.39386000E-02
					-1.36125000E-04	-1.46194000E-01	-7.86329000E-03
					-6.01509000E-04	-1.45521000E-01	-1.37648000E-02
					-4.93562000E-04	-1.33205000E-01	-1.39766000E-02
					-1.86916000E-04	-1.45369000E-01	-7.86530000E-03
					 3.75484000E-04	-1.45259000E-01	-1.43180000E-03
					 9.21162000E-04	-1.45492000E-01	 1.12216000E-02
					 2.99133000E-04	-1.45459000E-01	-1.62894000E-03
					 9.02818000E-04	-1.45692000E-01	 1.09420000E-02
					 1.43663000E-04	-1.32685000E-01	-1.41765000E-03
					 6.70071000E-04	-1.45365000E-01	 4.88377000E-03
					 7.68148000E-04	-1.32883000E-01	 1.12786000E-02
					-7.15901000E-04	-1.45071000E-01	-1.43792000E-02
					-6.23479000E-04	-1.45159000E-01	-1.40766000E-02
					-3.89010000E-04	-1.32512000E-01	-1.41581000E-02
					-1.57154000E-04	-1.45163000E-01	-7.92959000E-03
					 0.00000000E+00	 0.00000000E+00	 0.00000000E+00
					 0.00000000E+00	 0.00000000E+00	 0.00000000E+00
					 2.79534000E-04	-5.23893000E-03	-3.41624000E-04
					-2.45807000E-03	-5.96440000E-03	 6.56147000E-03
					 0.00000000E+00	 0.00000000E+00	 0.00000000E+00
					 0.00000000E+00	 0.00000000E+00	 0.00000000E+00
					 1.51569000E-04	-7.42077000E-03	-2.98927000E-04
					-1.58905000E-03	-7.92019000E-03	 6.65421000E-03
					 0.00000000E+00	 0.00000000E+00	 0.00000000E+00
					 9.64342000E-05	-6.23867000E-04	-1.67588000E-04
					-1.13000000E-03	-5.44450000E-03	 3.19646000E-03
					-1.73743000E-03	-1.22842000E-03	 3.27525000E-03
					 0.00000000E+00	 0.00000000E+00	 0.00000000E+00
					 0.00000000E+00	 0.00000000E+00	 0.00000000E+00
					 1.91776000E-04	-6.51247000E-03	-3.07458000E-04
					-2.00362000E-03	-7.06858000E-03	 6.46499000E-03
					 0.00000000E+00	 0.00000000E+00	 0.00000000E+00
					 5.90390000E-05	-1.90065000E-03	-1.42222000E-04
					-7.27034000E-04	-7.49840000E-03	 3.17366000E-03
					-8.11040000E-04	-2.52202000E-03	 3.16524000E-03
					 0.00000000E+00	 0.00000000E+00	 0.00000000E+00
					 2.87553000E-03	-5.68917000E-03	-7.20520000E-03
					 0.00000000E+00	 0.00000000E+00	 0.00000000E+00
					 1.80131000E-03	-7.86804000E-03	-7.26411000E-03
					 0.00000000E+00	 0.00000000E+00	 0.00000000E+00
					 1.89447000E-03	-1.26371000E-03	-3.56300000E-03
					 1.57091000E-03	-5.28261000E-03	-3.86244000E-03
					 0.00000000E+00	 0.00000000E+00	 0.00000000E+00
					 2.35547000E-03	-6.89710000E-03	-7.11304000E-03
					 0.00000000E+00	 0.00000000E+00	 0.00000000E+00
					 8.40444000E-04	-2.53864000E-03	-3.45168000E-03
					 9.74702000E-04	-7.49145000E-03	-3.70984000E-03
					 0.00000000E+00	 0.00000000E+00	 0.00000000E+00
					 0.00000000E+00	 0.00000000E+00	 0.00000000E+00
					 1.82574000E-04	-8.56963000E-03	-2.28100000E-04
					-7.18438000E-04	-9.26743000E-03	 6.66055000E-03
					 0.00000000E+00	 0.00000000E+00	 0.00000000E+00
					 0.00000000E+00	 0.00000000E+00	 0.00000000E+00
					 1.74906000E-04	-8.18507000E-03	-2.94814000E-04
					-1.14399000E-03	-8.64859000E-03	 6.77774000E-03
					 0.00000000E+00	 0.00000000E+00	 0.00000000E+00
					-7.16060000E-06	-2.28471000E-03	-5.40820000E-05
					-2.00696000E-04	-8.73834000E-03	 3.02048000E-03
					 1.46878000E-04	-2.90309000E-03	 3.33730000E-03
					 0.00000000E+00	 0.00000000E+00	 0.00000000E+00
					 6.28447000E-04	-8.93563000E-03	-7.07114000E-03
					 0.00000000E+00	 0.00000000E+00	 0.00000000E+00
					 1.20581000E-03	-8.58979000E-03	-7.29366000E-03
					 0.00000000E+00	 0.00000000E+00	 0.00000000E+00
					-2.39610000E-04	-2.84778000E-03	-3.55618000E-03
					 4.54435000E-04	-8.57566000E-03	-3.47101000E-03
					 5.58466000E-04	-2.44452000E-02	-8.06785000E-04
					-3.84968000E-03	-2.50005000E-02	 1.21933000E-02
					 4.29236000E-04	-2.83545000E-02	-7.02557000E-04
					-2.96768000E-03	-2.88897000E-02	 1.22636000E-02
					 3.42049000E-04	-1.33144000E-02	-5.19252000E-04
					-1.61930000E-03	-2.46501000E-02	 5.73145000E-03
					-3.22094000E-03	-1.37822000E-02	 9.55298000E-03
					 5.17229000E-04	-2.65051000E-02	-7.73228000E-04
					-3.41107000E-03	-2.70881000E-02	 1.21477000E-02
					 2.67950000E-04	-1.63069000E-02	-4.71412000E-04
					-1.28433000E-03	-2.85373000E-02	 5.67725000E-03
					-2.28696000E-03	-1.68730000E-02	 9.67790000E-03
					 4.51674000E-03	-2.49577000E-02	-1.37380000E-02
					 3.89868000E-03	-2.85133000E-02	-1.37089000E-02
					 3.69841000E-03	-1.37869000E-02	-1.07074000E-02
					 2.55619000E-03	-2.46313000E-02	-7.29266000E-03
					 4.20271000E-03	-2.67716000E-02	-1.35913000E-02
					 2.80752000E-03	-1.67165000E-02	-1.06657000E-02
					 2.20702000E-03	-2.83309000E-02	-7.10034000E-03
					 3.72057000E-04	-3.13747000E-02	-6.04705000E-04
					-2.09866000E-03	-3.18102000E-02	 1.22891000E-02
					 3.99554000E-04	-2.99599000E-02	-6.26471000E-04
					-2.54201000E-03	-3.05038000E-02	 1.24123000E-02
					 2.60812000E-04	-1.84422000E-02	-3.64832000E-04
					-8.85098000E-04	-3.15220000E-02	 5.63030000E-03
					-1.49681000E-03	-1.90617000E-02	 9.78454000E-03
					 3.15975000E-03	-3.15020000E-02	-1.35584000E-02
					 3.53641000E-03	-3.01056000E-02	-1.37730000E-02
					 1.86850000E-03	-1.87166000E-02	-1.05034000E-02
					 1.75476000E-03	-3.13664000E-02	-6.87319000E-03
					 7.88882000E-04	-5.42841000E-02	-1.34674000E-03
					-4.49449000E-03	-5.46347000E-02	 1.54486000E-02
					 8.41470000E-04	-5.94297000E-02	-1.25871000E-03
					-4.19144000E-03	-5.99446000E-02	 1.54446000E-02
					 6.05281000E-04	-3.84664000E-02	-1.02946000E-03
					-1.87484000E-03	-5.44026000E-02	 7.11810000E-03
					-4.15455000E-03	-3.89861000E-02	 1.40865000E-02
					 7.80771000E-04	-5.68637000E-02	-1.27323000E-03
					-4.31377000E-03	-5.73059000E-02	 1.53517000E-02
					 6.38976000E-04	-4.29316000E-02	-9.96011000E-04
					-1.66782000E-03	-5.96157000E-02	 7.05435000E-03
					-3.61791000E-03	-4.34886000E-02	 1.42361000E-02
					 6.22821000E-03	-5.39847000E-02	-1.80669000E-02
					 5.95976000E-03	-5.93320000E-02	-1.80573000E-02
					 5.45472000E-03	-3.84812000E-02	-1.61773000E-02
					 3.50032000E-03	-5.40471000E-02	-9.77067000E-03
					 6.10988000E-03	-5.67218000E-02	-1.79746000E-02
					 4.81303000E-03	-4.30190000E-02	-1.61550000E-02
					 3.36254000E-03	-5.93630000E-02	-9.61899000E-03
					 8.81924000E-04	-6.41658000E-02	-1.18733000E-03
					-4.02080000E-03	-6.50375000E-02	 1.55339000E-02
					 8.85602000E-04	-6.18355000E-02	-1.23955000E-03
					-4.11095000E-03	-6.24014000E-02	 1.56127000E-02
					 6.17521000E-04	-4.68761000E-02	-8.52576000E-04
					-1.53556000E-03	-6.45435000E-02	 6.97393000E-03
					-3.03404000E-03	-4.74082000E-02	 1.41659000E-02
					 5.42584000E-03	-6.41449000E-02	-1.79419000E-02
					 5.68288000E-03	-6.17991000E-02	-1.81239000E-02
					 4.24480000E-03	-4.68692000E-02	-1.59457000E-02
					 3.18228000E-03	-6.40929000E-02	-9.42431000E-03
					 1.27861000E-03	-8.92771000E-02	-1.85222000E-03
					-5.57091000E-03	-8.94444000E-02	 1.71806000E-02