<?xml version="1.0"?>
<VTKFile type="UnstructuredGrid" version="0.1" byte_order="LittleEndian">
	<UnstructuredGrid>
		<Piece NumberOfPoints="522" NumberOfCells="64">
			<Points>
				<DataArray type="Float64" NumberOfComponents="3" format="ascii">
					 1.00000000E+00	 1.00000000E+00	-5.96046000E-08
					 1.00000000E+00	 5.00000000E-01	-5.96046000E-08
					 1.00000000E+00	 5.00000000E-01	 1.00000000E+00
					 1.00000000E+00	 1.00000000E+00	 1.00000000E+00
					 5.00000000E-01	 1.00000000E+00	-5.96046000E-08
					 5.00000000E-01	 5.00000000E-01	-5.96046000E-08
					 5.00000000E-01	 5.00000000E-01	 1.00000000E+00
					 5.00000000E-01	 1.00000000E+00	 1.00000000E+00
					 1.00000000E+00	 7.50000000E-01	-5.96046000E-08
					 1.00000000E+00	 5.00000000E-01	 5.00000000E-01
					 1.00000000E+00	 7.50000000E-01	 1.00000000E+00
					 1.00000000E+00	 1.00000000E+00	 5.00000000E-01
					 7.50000000E-01	 1.00000000E+00	-5.96046000E-08
					 7.50000000E-01	 5.00000000E-01	-5.96046000E-08
					 7.50000000E-01	 5.00000000E-01	 1.00000000E+00
					 7.50000000E-01	 1.00000000E+00	 1.00000000E+00
					 5.00000000E-01	 7.50000000E-01	-5.96046000E-08
					 5.00000000E-01	 5.00000000E-01	 5.00000000E-01
					 5.00000000E-01	 7.50000000E-01	 1.00000000E+00
					 5.00000000E-01	 1.00000000E+00	 5.00000000E-01
					 1.00000000E+00	-1.49012000E-08	-5.96046000E-08
					 1.00000000E+00	-1.49012000E-08	 1.00000000E+00
					 5.00000000E-01	-1.49012000E-08	-5.96046000E-08
					 5.00000000E-01	-1.49012000E-08	 1.00000000E+00
					 1.00000000E+00	 2.50000000E-01	-5.96046000E-08
					 1.00000000E+00	-1.49012000E-08	 5.00000000E-01
					 1.00000000E+00	 2.50000000E-01	 1.00000000E+00
					 7.50000000E-01	-1.49012000E-08	-5.96046000E-08
					 7.50000000E-01	-1.49012000E-08	 1.00000000E+00
					 5.00000000E-01	 2.50000000E-01	-5.96046000E-08
					 5.00000000E-01	-1.49012000E-08	 5.00000000E-01
					 5.00000000E-01	 2.50000000E-01	 1.00000000E+00
					-7.45058000E-09	 1.00000000E+00	-5.96046000E-08
					-7.45058000E-09	 5.00000000E-01	-5.96046000E-08
					-7.45058000E-09	 5.00000000E-01	 1.00000000E+00
					-7.45058000E-09	 1.00000000E+00	 1.00000000E+00
					 2.50000000E-01	 1.00000000E+00	-5.96046000E-08
					 2.50000000E-01	 5.00000000E-01	-5.96046000E-08
					 2.50000000E-01	 5.00000000E-01	 1.00000000E+00
					 2.50000000E-01	 1.00000000E+00	 1.00000000E+00
					-7.45058000E-09	 7.50000000E-01	-5.96046000E-08
					-7.45058000E-09	 5.00000000E-01	 5.00000000E-01
					-7.45058000E-09	 7.50000000E-01	 1.00000000E+00
					-7.45058000E-09	 1.00000000E+00	 5.00000000E-01
					-7.45058000E-09	-1.49012000E-08	-5.96046000E-08
					-7.45058000E-09	-1.49012000E-08	 1.00000000E+00
					 2.50000000E-01	-1.49012000E-08	-5.96046000E-08
					 2.50000000E-01	-1.49012000E-08	 1.00000000E+00
					-7.45058000E-09	 2.50000000E-01	-5.96046000E-08
					-7.45058000E-09	-1.49012000E-08	 5.00000000E-01
					-7.45058000E-09	 2.50000000E-01	 1.00000000E+00
					 1.00000000E+00	 5.00000000E-01	 2.00000000E+00
					 1.00000000E+00	 1.00000000E+00	 2.00000000E+00
					 5.00000000E-01	 5.00000000E-01	 2.00000000E+00
					 5.00000000E-01	 1.00000000E+00	 2.00000000E+00
					 1.00000000E+00	 5.00000000E-01	 1.50000000E+00
					 1.00000000E+00	 7.50000000E-01	 2.00000000E+00
					 1.00000000E+00	 1.00000000E+00	 1.50000000E+00
					 7.50000000E-01	 5.00000000E-01	 2.00000000E+00
					 7.50000000E-01	 1.00000000E+00	 2.00000000E+00
					 5.00000000E-01	 5.00000000E-01	 1.50000000E+00
					 5.00000000E-01	 7.50000000E-01	 2.00000000E+00
					 5.00000000E-01	 1.00000000E+00	 1.50000000E+00
					 1.00000000E+00	-1.49012000E-08	 2.00000000E+00
					 5.00000000E-01	-1.49012000E-08	 2.00000000E+00
					 1.00000000E+00	-1.49012000E-08	 1.50000000E+00
					 1.00000000E+00	 2.50000000E-01	 2.00000000E+00
					 7.50000000E-01	-1.49012000E-08	 2.00000000E+00
					 5.00000000E-01	-1.49012000E-08	 1.50000000E+00
					 5.00000000E-01	 2.50000000E-01	 2.00000000E+00
					-7.45058000E-09	 5.00000000E-01	 2.00000000E+00
					-7.45058000E-09	 1.00000000E+00	 2.00000000E+00
					 2.50000000E-01	 5.00000000E-01	 2.00000000E+00
					 2.50000000E-01	 1.00000000E+00	 2.00000000E+00
					-7.45058000E-09	 5.00000000E-01	 1.50000000E+00
					-7.45058000E-09	 7.50000000E-01	 2.00000000E+00
					-7.45058000E-09	 1.00000000E+00	 1.50000000E+00
					-7.45058000E-09	-1.49012000E-08	 2.00000000E+00
					 2.50000000E-01	-1.49012000E-08	 2.00000000E+00
					-7.45058000E-09	-1.49012000E-08	 1.50000000E+00
					-7.45058000E-09	 2.50000000E-01	 2.00000000E+00
					 1.00000000E+00	 5.00000000E-01	 3.00000000E+00
					 1.00000000E+00	 1.00000000E+00	 3.00000000E+00
					 5.00000000E-01	 5.00000000E-01	 3.00000000E+00
					 5.00000000E-01	 1.00000000E+00	 3.00000000E+00
					 1.00000000E+00	 5.00000000E-01	 2.50000000E+00
					 1.00000000E+00	 7.50000000E-01	 3.00000000E+00
					 1.00000000E+00	 1.00000000E+00	 2.50000000E+00
					 7.50000000E-01	 5.00000000E-01	 3.00000000E+00
					 7.50000000E-01	 1.00000000E+00	 3.00000000E+00
					 5.00000000E-01	 5.00000000E-01	 2.50000000E+00
					 5.00000000E-01	 7.50000000E-01	 3.00000000E+00
					 5.00000000E-01	 1.00000000E+00	 2.50000000E+00
					 1.00000000E+00	-1.49012000E-08	 3.00000000E+00
					 5.00000000E-01	-1.49012000E-08	 3.00000000E+00
					 1.00000000E+00	-1.49012000E-08	 2.50000000E+00
					 1.00000000E+00	 2.50000000E-01	 3.00000000E+00
					 7.50000000E-01	-1.49012000E-08	 3.00000000E+00
					 5.00000000E-01	-1.49012000E-08	 2.50000000E+00
					 5.00000000E-01	 2.50000000E-01	 3.00000000E+00
					-7.45058000E-09	 5.00000000E-01	 3.00000000E+00
					-7.45058000E-09	 1.00000000E+00	 3.00000000E+00
					 2.50000000E-01	 5.00000000E-01	 3.00000000E+00
					 2.50000000E-01	 1.00000000E+00	 3.00000000E+00
					-7.45058000E-09	 5.00000000E-01	 2.50000000E+00
					-7.45058000E-09	 7.50000000E-01	 3.00000000E+00
					-7.45058000E-09	 1.00000000E+00	 2.50000000E+00
					-7.45058000E-09	-1.49012000E-08	 3.00000000E+00
					 2.50000000E-01	-1.49012000E-08	 3.00000000E+00
					-7.45058000E-09	-1.49012000E-08	 2.50000000E+00
					-7.45058000E-09	 2.50000000E-01	 3.00000000E+00
					 1.00000000E+00	 5.00000000E-01	 4.00000000E+00
					 1.00000000E+00	 1.00000000E+00	 4.00000000E+00
					 5.00000000E-01	 5.00000000E-01	 4.00000000E+00
					 5.00000000E-01	 1.00000000E+00	 4.00000000E+00
					 1.00000000E+00	 5.00000000E-01	 3.50000000E+00
					 1.00000000E+00	 7.50000000E-01	 4.00000000E+00
					 1.00000000E+00	 1.00000000E+00	 3.50000000E+00
					 7.50000000E-01	 5.00000000E-01	 4.00000000E+00
					 7.50000000E-01	 1.00000000E+00	 4.00000000E+00
					 5.00000000E-01	 5.00000000E-01	 3.50000000E+00
					 5.00000000E-01	 7.50000000E-01	 4.00000000E+00
					 5.00000000E-01	 1.00000000E+00	 3.50000000E+00
					 1.00000000E+00	-1.49012000E-08	 4.00000000E+00
					 5.00000000E-01	-1.49012000E-08	 4.00000000E+00
					 1.00000000E+00	-1.49012000E-08	 3.50000000E+00
					 1.00000000E+00	 2.50000000E-01	 4.00000000E+00
					 7.50000000E-01	-1.49012000E-08	 4.00000000E+00
					 5.00000000E-01	-1.49012000E-08	 3.50000000E+00
					 5.00000000E-01	 2.50000000E-01	 4.00000000E+00
					-7.45058000E-09	 5.00000000E-01	 4.00000000E+00
					-7.45058000E-09	 1.00000000E+00	 4.00000000E+00
					 2.50000000E-01	 5.00000000E-01	 4.00000000E+00
					 2.50000000E-01	 1.00000000E+00	 4.00000000E+00
					-7.45058000E-09	 5.00000000E-01	 3.50000000E+00
					-7.45058000E-09	 7.50000000E-01	 4.00000000E+00
					-7.45058000E-09	 1.00000000E+00	 3.50000000E+00
					-7.45058000E-09	-1.49012000E-08	 4.00000000E+00
					 2.50000000E-01	-1.49012000E-08	 4.00000000E+00
					-7.45058000E-09	-1.49012000E-08	 3.50000000E+00
					-7.45058000E-09	 2.50000000E-01	 4.00000000E+00
					 1.00000000E+00	 5.00000000E-01	 5.00000000E+00
					 1.00000000E+00	 1.00000000E+00	 5.00000000E+00
					 5.00000000E-01	 5.00000000E-01	 5.00000000E+00
					 5.00000000E-01	 1.00000000E+00	 5.00000000E+00
					 1.00000000E+00	 5.00000000E-01	 4.50000000E+00
					 1.00000000E+00	 7.50000000E-01	 5.00000000E+00
					 1.00000000E+00	 1.00000000E+00	 4.50000000E+00
					 7.50000000E-01	 5.00000000E-01	 5.00000000E+00
					 7.50000000E-01	 1.00000000E+00	 5.00000000E+00
					 5.00000000E-01	 5.00000000E-01	 4.50000000E+00
					 5.00000000E-01	 7.50000000E-01	 5.00000000E+00
					 5.00000000E-01	 1.00000000E+00	 4.50000000E+00
					 1.00000000E+00	-1.49012000E-08	 5.00000000E+00
					 5.00000000E-01	-1.49012000E-08	 5.00000000E+00
					 1.00000000E+00	-1.49012000E-08	 4.50000000E+00
					 1.00000000E+00	 2.50000000E-01	 5.00000000E+00
					 7.50000000E-01	-1.49012000E-08	 5.00000000E+00
					 5.00000000E-01	-1.49012000E-08	 4.50000000E+00
					 5.00000000E-01	 2.50000000E-01	 5.00000000E+00
					-7.45058000E-09	 5.00000000E-01	 5.00000000E+00
					-7.45058000E-09	 1.00000000E+00	 5.00000000E+00
					 2.50000000E-01	 5.00000000E-01	 5.00000000E+00
					 2.50000000E-01	 1.00000000E+00	 5.00000000E+00
					-7.45058000E-09	 5.00000000E-01	 4.50000000E+00
					-7.45058000E-09	 7.50000000E-01	 5.00000000E+00
					-7.45058000E-09	 1.00000000E+00	 4.50000000E+00
					-7.45058000E-09	-1.49012000E-08	 5.00000000E+00
					 2.50000000E-01	-1.49012000E-08	 5.00000000E+00
					-7.45058000E-09	-1.49012000E-08	 4.50000000E+00
					-7.45058000E-09	 2.50000000E-01	 5.00000000E+00
					 1.00000000E+00	 5.00000000E-01	 6.00000000E+00
					 1.00000000E+00	 1.00000000E+00	 6.00000000E+00
					 5.00000000E-01	 5.00000000E-01	 6.00000000E+00
					 5.00000000E-01	 1.00000000E+00	 6.00000000E+00
					 1.00000000E+00	 5.00000000E-01	 5.50000000E+00
					 1.00000000E+00	 7.50000000E-01	 6.00000000E+00
					 1.00000000E+00	 1.00000000E+00	 5.50000000E+00
					 7.50000000E-01	 5.00000000E-01	 6.00000000E+00
					 7.50000000E-01	 1.00000000E+00	 6.00000000E+00
					 5.00000000E-01	 5.00000000E-01	 5.50000000E+00
					 5.00000000E-01	 7.50000000E-01	 6.00000000E+00
					 5.00000000E-01	 1.00000000E+00	 5.50000000E+00
					 1.00000000E+00	-1.49012000E-08	 6.00000000E+00
[...]
			<PointData>
				<DataArray type="Float32" Name="U" NumberOfComponents="3" ComponentName0="D1" ComponentName1="D2" ComponentName2="D3" format="ascii">
					 0.00000000E+00	 0.00000000E+00	 0.00000000E+00
					 0.00000000E+00	 0.00000000E+00	 0.00000000E+00
					-2.70234000E-07	-1.36087000E-03	-3.34897000E-05
					-1.27441000E-03	-1.55695000E-03	 2.63820000E-03
					 0.00000000E+00	 0.00000000E+00	 0.00000000E+00
					 0.00000000E+00	 0.00000000E+00	 0.00000000E+00
					-5.28132000E-06	-2.42480000E-03	-3.72265000E-05
					-8.72394000E-04	-2.63020000E-03	 2.65942000E-03
					 0.00000000E+00	 0.00000000E+00	 0.00000000E+00
					-1.44109000E-06	 1.40331000E-04	-1.35463000E-05
					-6.38905000E-04	-1.39136000E-03	 1.38075000E-03
					-7.87430000E-04	-1.03566000E-04	 1.23926000E-03
					 0.00000000E+00	 0.00000000E+00	 0.00000000E+00
					 0.00000000E+00	 0.00000000E+00	 0.00000000E+00
					-2.84975000E-06	-1.95872000E-03	-3.52845000E-05
					-1.07010000E-03	-2.15687000E-03	 2.55837000E-03
					 0.00000000E+00	 0.00000000E+00	 0.00000000E+00
					-6.82783000E-06	-4.45694000E-04	-1.45607000E-05
					-4.37646000E-04	-2.45567000E-03	 1.29854000E-03
					-4.07860000E-04	-6.71234000E-04	 1.19336000E-03
					 0.00000000E+00	 0.00000000E+00	 0.00000000E+00
					 1.27599000E-03	-1.54453000E-03	-2.70819000E-03
					 0.00000000E+00	 0.00000000E+00	 0.00000000E+00
					 8.65992000E-04	-2.62258000E-03	-2.73672000E-03
					 0.00000000E+00	 0.00000000E+00	 0.00000000E+00
					 7.87296000E-04	-1.03696000E-04	-1.26837000E-03
					 6.38688000E-04	-1.38353000E-03	-1.44884000E-03
					 0.00000000E+00	 0.00000000E+00	 0.00000000E+00
					 1.06812000E-03	-2.14774000E-03	-2.63133000E-03
					 0.00000000E+00	 0.00000000E+00	 0.00000000E+00
					 3.98051000E-04	-6.75532000E-04	-1.22434000E-03
					 4.28565000E-04	-2.45165000E-03	-1.37365000E-03
					 0.00000000E+00	 0.00000000E+00	 0.00000000E+00
					 0.00000000E+00	 0.00000000E+00	 0.00000000E+00
					-9.53842000E-06	-3.10101000E-03	-3.84375000E-05
					-4.58113000E-04	-3.28115000E-03	 2.63395000E-03
					 0.00000000E+00	 0.00000000E+00	 0.00000000E+00
					 0.00000000E+00	 0.00000000E+00	 0.00000000E+00
					-7.41515000E-06	-2.82720000E-03	-3.84400000E-05
					-6.67077000E-04	-3.02462000E-03	 2.72917000E-03
					 0.00000000E+00	 0.00000000E+00	 0.00000000E+00
					-1.19018000E-05	-6.66291000E-04	-1.62289000E-05
					-2.36684000E-04	-3.12086000E-03	 1.20234000E-03
					 9.06542000E-06	-8.69549000E-04	 1.23712000E-03
					 0.00000000E+00	 0.00000000E+00	 0.00000000E+00
					 4.44233000E-04	-3.27780000E-03	-2.71282000E-03
					 0.00000000E+00	 0.00000000E+00	 0.00000000E+00
					 6.56861000E-04	-3.01773000E-03	-2.80901000E-03
					 0.00000000E+00	 0.00000000E+00	 0.00000000E+00
					-2.87510000E-05	-8.77290000E-04	-1.27195000E-03
					 2.19347000E-04	-3.12061000E-03	-1.27914000E-03
					 5.86134000E-06	-8.96443000E-03	-9.30500000E-05
					-2.04809000E-03	-9.08134000E-03	 4.86456000E-03
					 4.49681000E-06	-1.09010000E-02	-1.08875000E-04
					-1.82901000E-03	-1.10286000E-02	 4.87853000E-03
					 4.11826000E-06	-4.47028000E-03	-5.87642000E-05
					-1.01775000E-03	-8.99802000E-03	 2.35900000E-03
					-1.72016000E-03	-4.63777000E-03	 3.92646000E-03
					 5.29155000E-06	-9.95543000E-03	-1.01589000E-04
					-1.93913000E-03	-1.00818000E-02	 4.83298000E-03
					 1.03690000E-06	-6.01305000E-03	-6.79989000E-05
					-9.13643000E-04	-1.09402000E-02	 2.31655000E-03
					-1.37293000E-03	-6.19011000E-03	 3.94238000E-03
					 2.06155000E-03	-9.02926000E-03	-5.05286000E-03
					 1.84056000E-03	-1.09796000E-02	-5.09850000E-03
					 1.73021000E-03	-4.60610000E-03	-4.04736000E-03
					 1.02985000E-03	-8.97206000E-03	-2.54536000E-03
					 1.95209000E-03	-1.00322000E-02	-5.03845000E-03
					 1.37820000E-03	-6.16280000E-03	-4.08152000E-03
					 9.23443000E-04	-1.09170000E-02	-2.53467000E-03
					 2.21066000E-06	-1.26335000E-02	-1.23696000E-04
					-1.62534000E-03	-1.27610000E-02	 4.83337000E-03
					 3.49084000E-06	-1.17922000E-02	-1.16110000E-04
					-1.72748000E-03	-1.19190000E-02	 4.93492000E-03
					-2.71571000E-06	-7.22265000E-03	-7.47674000E-05
					-8.11356000E-04	-1.26721000E-02	 2.21134000E-03
					-1.03796000E-03	-7.39683000E-03	 3.91008000E-03
					 1.63272000E-03	-1.27166000E-02	-5.08245000E-03
					 1.73719000E-03	-1.18704000E-02	-5.16925000E-03
					 1.03633000E-03	-7.37490000E-03	-4.06212000E-03
					 8.16734000E-04	-1.26529000E-02	-2.45880000E-03
					 1.62916000E-05	-1.99549000E-02	-1.85216000E-04
					-2.29020000E-03	-1.99496000E-02	 5.15016000E-03
					 1.57127000E-05	-2.22995000E-02	-2.05122000E-04
					-2.36068000E-03	-2.22950000E-02	 5.15123000E-03
					 9.06795000E-06	-1.43432000E-02	-1.37806000E-04
					-1.13871000E-03	-1.99635000E-02	 2.45248000E-03
					-2.22780000E-03	-1.44010000E-02	 5.22830000E-03
					 1.62898000E-05	-2.11172000E-02	-1.94606000E-04
					-2.32586000E-03	-2.11114000E-02	 5.14256000E-03
					 7.78016000E-06	-1.65457000E-02	-1.56618000E-04
					-1.17334000E-03	-2.23095000E-02	 2.43247000E-03
					-2.16441000E-03	-1.66090000E-02	 5.24166000E-03
					 2.32035000E-03	-1.98899000E-02	-5.51871000E-03
					 2.39268000E-03	-2.22319000E-02	-5.55929000E-03
					 2.24609000E-03	-1.43407000E-02	-5.50460000E-03
					 1.17073000E-03	-1.99340000E-02	-2.82248000E-03
					 2.35707000E-03	-2.10496000E-02	-5.53009000E-03
					 2.18190000E-03	-1.65485000E-02	-5.55554000E-03
					 1.20510000E-03	-2.22784000E-02	-2.84240000E-03
					 1.61502000E-05	-2.47066000E-02	-2.24507000E-04
					-2.44281000E-03	-2.47133000E-02	 5.11158000E-03
					 1.52941000E-05	-2.34935000E-02	-2.15407000E-04
					-2.40221000E-03	-2.34912000E-02	 5.16179000E-03
					 6.64651000E-06	-1.86881000E-02	-1.75532000E-04
					-1.20989000E-03	-2.47209000E-02	 2.37456000E-03
					-2.11921000E-03	-1.87621000E-02	 5.19043000E-03
					 2.47823000E-03	-2.46531000E-02	-5.55849000E-03
					 2.43524000E-03	-2.34282000E-02	-5.59015000E-03
					 2.13582000E-03	-1.87053000E-02	-5.54221000E-03
					 1.24311000E-03	-2.46927000E-02	-2.82332000E-03
					 2.46369000E-05	-2.99165000E-02	-2.51301000E-04
					-2.35619000E-03	-2.98801000E-02	 4.25052000E-03
					 2.88291000E-05	-3.23617000E-02	-2.74527000E-04
					-2.47850000E-03	-3.23251000E-02	 4.22312000E-03
					 2.31910000E-05	-2.52123000E-02	-2.23737000E-04
					-1.16663000E-03	-2.99162000E-02	 2.01616000E-03
					-2.32824000E-03	-2.51885000E-02	 4.73788000E-03
					 2.69072000E-05	-3.11224000E-02	-2.62841000E-04
					-2.41759000E-03	-3.10853000E-02	 4.23335000E-03
					 2.50889000E-05	-2.76274000E-02	-2.45366000E-04
					-1.22512000E-03	-3.23623000E-02	 1.98891000E-03
					-2.45091000E-03	-2.76032000E-02	 4.72316000E-03
					 2.40256000E-03	-2.98311000E-02	-4.75333000E-03
					 2.53387000E-03	-3.22730000E-02	-4.77241000E-03
					 2.37115000E-03	-2.51334000E-02	-5.18334000E-03
					 1.21515000E-03	-2.98914000E-02	-2.51923000E-03
					 2.46845000E-03	-3.10345000E-02	-4.75899000E-03
					 2.49998000E-03	-2.75440000E-02	-5.21114000E-03
					 1.28202000E-03	-3.23351000E-02	-2.53815000E-03
					 3.25179000E-05	-3.49275000E-02	-2.96987000E-04
					-2.60618000E-03	-3.48980000E-02	 4.20633000E-03
					 3.06822000E-05	-3.36277000E-02	-2.85915000E-04
					-2.54234000E-03	-3.35930000E-02	 4.20929000E-03
					 2.72504000E-05	-3.01612000E-02	-2.65933000E-04
					-1.28508000E-03	-3.49314000E-02	 1.97368000E-03
					-2.58246000E-03	-3.01476000E-02	 4.69760000E-03
					 2.67035000E-03	-3.48440000E-02	-4.80056000E-03
					 2.60213000E-03	-3.35399000E-02	-4.78113000E-03
					 2.63847000E-03	-3.00893000E-02	-5.22624000E-03
					 1.34996000E-03	-3.49029000E-02	-2.56808000E-03
					 1.17948000E-05	-3.80432000E-02	-2.91134000E-04
					-2.42429000E-03	-3.80442000E-02	 3.66847000E-03
					 1.87945000E-05	-4.04982000E-02	-3.21439000E-04
					-2.45680000E-03	-4.04964000E-02	 3.63110000E-03
					 2.05926000E-05	-3.41124000E-02	-2.72429000E-04
					-1.20663000E-03	-3.80471000E-02	 1.70514000E-03
					-2.39343000E-03	-3.40938000E-02	 3.88872000E-03
					 1.49956000E-05	-3.92668000E-02	-3.06554000E-04
					-2.44006000E-03	-3.92661000E-02	 3.64701000E-03
					 2.58932000E-05	-3.65667000E-02	-2.97864000E-04
					-1.21945000E-03	-4.04998000E-02	 1.66991000E-03
					-2.47068000E-03	-3.65468000E-02	 3.85329000E-03
					 2.45418000E-03	-3.80032000E-02	-4.25275000E-03
					 2.49649000E-03	-4.04639000E-02	-4.27666000E-03
					 2.43568000E-03	-3.40505000E-02	-4.43600000E-03
					 1.23184000E-03	-3.80269000E-02	-2.28842000E-03
					 2.47502000E-03	-3.92304000E-02	-4.26185000E-03
					 2.52176000E-03	-3.65053000E-02	-4.45256000E-03
					 1.25752000E-03	-4.04848000E-02	-2.31354000E-03
					 2.41167000E-05	-4.29951000E-02	-3.50140000E-04
					-2.49070000E-03	-4.29908000E-02	 3.61002000E-03
					 2.22194000E-05	-4.17420000E-02	-3.35778000E-04
					-2.47367000E-03	-4.17395000E-02	 3.61385000E-03
					 3.03568000E-05	-3.91035000E-02	-3.22092000E-04
					-1.23424000E-03	-4.29961000E-02	 1.65119000E-03
					-2.54947000E-03	-3.90851000E-02	 3.83928000E-03
					 2.53687000E-03	-4.29582000E-02	-4.31370000E-03
					 2.51740000E-03	-4.17079000E-02	-4.28868000E-03
					 2.60783000E-03	-3.90413000E-02	-4.48813000E-03
					 1.28176000E-03	-4.29803000E-02	-2.35236000E-03
					-2.84255000E-05	-4.57215000E-02	-3.25379000E-04
					-2.52254000E-03	-4.57394000E-02	 3.56042000E-03
					-2.05593000E-05	-4.82192000E-02	-3.69886000E-04
					-2.51748000E-03	-4.82332000E-02	 3.51559000E-03
					-4.26254000E-06	-4.18823000E-02	-3.07723000E-04
					-1.27592000E-03	-4.57298000E-02	 1.61734000E-03
					-2.46614000E-03	-4.18932000E-02	 3.58663000E-03
					-2.51760000E-05	-4.69704000E-02	-3.47908000E-04
					-2.52000000E-03	-4.69859000E-02	 3.53495000E-03
					 3.83687000E-06	-4.43528000E-02	-3.45585000E-04
					-1.26892000E-03	-4.82246000E-02	 1.56944000E-03
					-2.47262000E-03	-4.43589000E-02	 3.54516000E-03
					 2.47465000E-03	-4.56997000E-02	-4.21185000E-03
					 2.47753000E-03	-4.82038000E-02	-4.25558000E-03
					 2.46663000E-03	-4.18525000E-02	-4.20290000E-03
					 1.22134000E-03	-4.57102000E-02	-2.26822000E-03
					 2.47630000E-03	-4.69533000E-02	-4.23145000E-03
					 2.48296000E-03	-4.43294000E-02	-4.23671000E-03
					 1.22801000E-03	-4.82117000E-02	-2.30934000E-03
					-1.42937000E-05	-5.07188000E-02	-4.14420000E-04
					-2.51384000E-03	-5.07333000E-02	 3.47173000E-03
					-1.63293000E-05	-4.94694000E-02	-3.91815000E-04
					-2.51517000E-03	-4.94833000E-02	 3.49790000E-03
					 9.92196000E-06	-4.68373000E-02	-3.82835000E-04
					-1.26389000E-03	-5.07254000E-02	 1.52133000E-03
					-2.47861000E-03	-4.68403000E-02	 3.51347000E-03
					 2.47854000E-03	-5.06987000E-02	-4.30021000E-03
					 2.47817000E-03	-4.94532000E-02	-4.28095000E-03
					 2.49516000E-03	-4.68101000E-02	-4.27900000E-03
					 1.23344000E-03	-5.07083000E-02	-2.35055000E-03
					-8.62656000E-05	-5.35143000E-02	-3.66573000E-04
					-2.57782000E-03	-5.35227000E-02	 3.46516000E-03
					-7.75349000E-05	-5.60219000E-02	-4.18327000E-04
					-2.59221000E-03	-5.60257000E-02	 3.40662000E-03
					-5.61205000E-05	-4.96224000E-02	-3.46291000E-04
					-1.33176000E-03	-5.35202000E-02	 1.54563000E-03
					-2.55350000E-03	-4.96355000E-02	 3.52545000E-03
					-8.25379000E-05	-5.47637000E-02	-3.92420000E-04
					-2.58475000E-03	-5.47699000E-02	 3.43718000E-03
					-4.80444000E-05	-5.21303000E-02	-3.94705000E-04
					-1.33345000E-03	-5.60257000E-02	 1.48820000E-03
					-2.55715000E-03	-5.21396000E-02	 3.47775000E-03
					 2.41194000E-03	-5.34855000E-02	-4.19602000E-03
					 2.43841000E-03	-5.59963000E-02	-4.24105000E-03
					 2.44932000E-03	-4.95976000E-02	-4.21821000E-03
					 1.16117000E-03	-5.35028000E-02	-2.27769000E-03
					 2.42447000E-03	-5.47378000E-02	-4.22001000E-03
					 2.46162000E-03	-5.21106000E-02	-4.26746000E-03
					 1.17876000E-03	-5.60131000E-02	-2.32405000E-03
					-6.99237000E-05	-5.85497000E-02	-4.69759000E-04
					-2.60958000E-03	-5.85554000E-02	 3.34605000E-03
					-7.28705000E-05	-5.72848000E-02	-4.44311000E-04
					-2.60007000E-03	-5.72879000E-02	 3.37643000E-03
					-4.12523000E-05	-5.46469000E-02	-4.42499000E-04
					-1.33810000E-03	-5.85552000E-02	 1.42860000E-03
					-2.56364000E-03	-5.46591000E-02	 3.42495000E-03
					 2.46560000E-03	-5.85233000E-02	-4.28344000E-03
					 2.45205000E-03	-5.72584000E-02	-4.26346000E-03
					 2.47376000E-03	-5.46239000E-02	-4.31040000E-03
					 1.19716000E-03	-5.85405000E-02	-2.36674000E-03
					-1.55438000E-04	-6.09981000E-02	-3.99054000E-04
					-2.72828000E-03	-6.10184000E-02	 3.35554000E-03
					-1.50976000E-04	-6.35343000E-02	-4.52551000E-04
					-2.72267000E-03	-6.35543000E-02	 3.26850000E-03
					-1.20973000E-04	-5.72829000E-02	-3.84099000E-04
					-1.44788000E-03	-6.10096000E-02	 1.48974000E-03
					-2.64264000E-03	-5.73026000E-02	 3.39597000E-03
					-1.53092000E-04	-6.22718000E-02	-4.25401000E-04
					-2.72448000E-03	-6.22881000E-02	 3.30772000E-03
					-1.12850000E-04	-5.98136000E-02	-4.37768000E-04
					-1.44283000E-03	-6.35454000E-02	 1.41069000E-03
					-2.65154000E-03	-5.98257000E-02	 3.32012000E-03
					 2.41510000E-03	-6.09733000E-02	-4.14430000E-03
					 2.42117000E-03	-6.35072000E-02	-4.16348000E-03
					 2.40253000E-03	-5.72651000E-02	-4.15748000E-03
					 1.13643000E-03	-6.09865000E-02	-2.28464000E-03
					 2.41694000E-03	-6.22415000E-02	-4.14940000E-03
					 2.42682000E-03	-5.97912000E-02	-4.18841000E-03
					 1.14108000E-03	-6.35211000E-02	-2.31286000E-03
					-1.46923000E-04	-6.60848000E-02	-5.12920000E-04
					-2.73220000E-03	-6.61023000E-02	 3.18297000E-03
					-1.49007000E-04	-6.48020000E-02	-4.81765000E-04
					-2.72787000E-03	-6.48233000E-02	 3.22667000E-03
					-1.05070000E-04	-6.23629000E-02	-4.94786000E-04
					-1.44346000E-03	-6.60945000E-02	 1.33222000E-03
					-2.66505000E-03	-6.23703000E-02	 3.24478000E-03
					 2.44165000E-03	-6.60576000E-02	-4.19743000E-03
					 2.43215000E-03	-6.47763000E-02	-4.17934000E-03
					 2.45562000E-03	-6.23373000E-02	-4.22642000E-03
					 1.15021000E-03	-6.60720000E-02	-2.35478000E-03
					 0.00000000E+00	 0.00000000E+00	 0.00000000E+00
					 0.00000000E+00	 0.00000000E+00	 0.00000000E+00
					 1.02695000E-05	-5.14305000E-03	 3.55037000E-05
					-1.50073000E-03	-5.37941000E-03	 4.71212000E-03
					 0.00000000E+00	 0.00000000E+00	 0.00000000E+00
					 0.00000000E+00	 0.00000000E+00	 0.00000000E+00
					 2.24121000E-05	-6.42402000E-03	 3.58559000E-05
					-1.01712000E-03	-6.67449000E-03	 4.78834000E-03
					 0.00000000E+00	 0.00000000E+00	 0.00000000E+00
					-3.07591000E-07	-1.22439000E-03	 1.84459000E-05
					-7.47969000E-04	-5.16747000E-03	 2.34239000E-03
					-1.22088000E-03	-1.64910000E-03	 2.59312000E-03
					 0.00000000E+00	 0.00000000E+00	 0.00000000E+00
					 0.00000000E+00	 0.00000000E+00	 0.00000000E+00
					 1.63965000E-05	-5.87443000E-03	 3.53455000E-05
					-1.25464000E-03	-6.11463000E-03	 4.67529000E-03
					 0.00000000E+00	 0.00000000E+00	 0.00000000E+00
					 7.21103000E-06	-2.05856000E-03	 1.83615000E-05
					-4.98037000E-04	-6.45064000E-03	 2.29875000E-03
					-5.19575000E-04	-2.47389000E-03	 2.54367000E-03
					 0.00000000E+00	 0.00000000E+00	 0.00000000E+00
					 1.52202000E-03	-5.30484000E-03	-4.64710000E-03
					 0.00000000E+00	 0.00000000E+00	 0.00000000E+00
					 1.06573000E-03	-6.59942000E-03	-4.72313000E-03
					 0.00000000E+00	 0.00000000E+00	 0.00000000E+00
					 1.22119000E-03	-1.60843000E-03	-2.55737000E-03
					 7.69017000E-04	-5.13010000E-03	-2.27361000E-03
					 0.00000000E+00	 0.00000000E+00	 0.00000000E+00
					 1.28978000E-03	-6.03987000E-03	-4.61088000E-03
					 0.00000000E+00	 0.00000000E+00	 0.00000000E+00
					 5.37135000E-04	-2.43541000E-03	-2.50713000E-03
					 5.43145000E-04	-6.41473000E-03	-2.23009000E-03
					 0.00000000E+00	 0.00000000E+00	 0.00000000E+00
					 0.00000000E+00	 0.00000000E+00	 0.00000000E+00
					 3.51173000E-05	-7.22366000E-03	 4.27270000E-05
					-5.23967000E-04	-7.44947000E-03	 4.72054000E-03
					 0.00000000E+00	 0.00000000E+00	 0.00000000E+00
					 0.00000000E+00	 0.00000000E+00	 0.00000000E+00
					 2.86633000E-05	-6.91299000E-03	 3.68443000E-05
					-7.74111000E-04	-7.14751000E-03	 4.85556000E-03
					 0.00000000E+00	 0.00000000E+00	 0.00000000E+00
					 1.66501000E-05	-2.28009000E-03	 2.69618000E-05
					-2.44220000E-04	-7.24038000E-03	 2.17099000E-03
					 2.17868000E-04	-2.66841000E-03	 2.60134000E-03
					 0.00000000E+00	 0.00000000E+00	 0.00000000E+00
					 5.95578000E-04	-7.37675000E-03	-4.63981000E-03
					 0.00000000E+00	 0.00000000E+00	 0.00000000E+00
					 8.33523000E-04	-7.07727000E-03	-4.78766000E-03
					 0.00000000E+00	 0.00000000E+00	 0.00000000E+00
					-1.83184000E-04	-2.62865000E-03	-2.54847000E-03
					 3.15620000E-04	-7.20832000E-03	-2.08761000E-03
					 3.91057000E-05	-1.71095000E-02	 4.16777000E-05
					-2.26675000E-03	-1.73181000E-02	 7.23048000E-03
					 5.68058000E-05	-1.92788000E-02	 3.48819000E-05
					-1.97405000E-03	-1.94817000E-02	 7.24182000E-03
					 2.44914000E-05	-1.05624000E-02	 4.47210000E-05
					-1.11658000E-03	-1.71895000E-02	 3.67299000E-03
					-1.87642000E-03	-1.08317000E-02	 6.16578000E-03
					 4.73111000E-05	-1.82215000E-02	 3.57455000E-05
					-2.12047000E-03	-1.84224000E-02	 7.17151000E-03
					 3.83517000E-05	-1.22836000E-02	 4.01577000E-05
					-9.52823000E-04	-1.93548000E-02	 3.61522000E-03
					-1.49145000E-03	-1.25453000E-02	 6.18795000E-03
					 2.34723000E-03	-1.71743000E-02	-7.15251000E-03
					 2.08317000E-03	-1.93444000E-02	-7.17526000E-03
					 1.92487000E-03	-1.07227000E-02	-6.08292000E-03
					 1.19485000E-03	-1.71153000E-02	-3.59168000E-03
					 2.21641000E-03	-1.82882000E-02	-7.10196000E-03
					 1.56926000E-03	-1.24390000E-02	-6.11305000E-03
					 1.07013000E-03	-1.92863000E-02	-3.54356000E-03
					 7.09911000E-05	-2.11675000E-02	 3.16959000E-05
					-1.65514000E-03	-2.13507000E-02	 7.22042000E-03
					 6.37323000E-05	-2.02473000E-02	 3.53759000E-05
					-1.81343000E-03	-2.04730000E-02	 7.30756000E-03
					 5.29789000E-05	-1.36240000E-02	 4.12805000E-05
					-7.97833000E-04	-2.12293000E-02	 3.52840000E-03
					-1.10467000E-03	-1.38875000E-02	 6.16384000E-03
					 1.82134000E-03	-2.12303000E-02	-7.16076000E-03
					 1.95158000E-03	-2.03141000E-02	-7.24322000E-03
					 1.22200000E-03	-1.37907000E-02	-6.08408000E-03
					 9.46529000E-04	-2.11709000E-02	-3.46181000E-03
					 1.20826000E-04	-3.24889000E-02	-2.65258000E-05
					-3.28485000E-03	-3.25923000E-02	 8.56949000E-03
					 1.40777000E-04	-3.57872000E-02	-6.24212000E-06
					-3.11410000E-03	-3.60087000E-02	 8.61235000E-03
					 6.88959000E-05	-2.44486000E-02	 2.00101000E-05
					-1.57431000E-03	-3.25206000E-02	 4.30835000E-03
					-2.74588000E-03	-2.46322000E-02	 8.04003000E-03
					 1.31774000E-04	-3.41592000E-02	-1.29226000E-05
					-3.20236000E-03	-3.43353000E-02	 8.49571000E-03
					 8.57538000E-05	-2.71520000E-02	 1.98265000E-05
					-1.50929000E-03	-3.58812000E-02	 4.23230000E-03
					-2.51405000E-03	-2.73444000E-02	 8.06049000E-03
					 3.48081000E-03	-3.24581000E-02	-8.61149000E-03
					 3.38845000E-03	-3.57680000E-02	-8.64666000E-03
					 2.87457000E-03	-2.44717000E-02	-8.00452000E-03
					 1.80121000E-03	-3.24546000E-02	-4.35056000E-03
					 3.43191000E-03	-3.41289000E-02	-8.53930000E-03
					 2.68622000E-03	-2.71642000E-02	-8.02568000E-03
					 1.76576000E-03	-3.57635000E-02	-4.26541000E-03
					 1.59658000E-04	-3.89800000E-02	 1.27571000E-05
					-3.03303000E-03	-3.93156000E-02	 8.60657000E-03
					 1.49677000E-04	-3.74147000E-02	 8.28109000E-07
					-3.07664000E-03	-3.75682000E-02	 8.73857000E-03
					 1.11910000E-04	-2.96452000E-02	 2.14873000E-05
					-1.40799000E-03	-3.91348000E-02	 4.10548000E-03
					-2.29545000E-03	-2.98561000E-02	 8.04540000E-03
					 3.30631000E-03	-3.89773000E-02	-8.62791000E-03
					 3.34669000E-03	-3.73859000E-02	-8.75854000E-03
					 2.48019000E-03	-2.96436000E-02	-8.00912000E-03
					 1.72803000E-03	-3.89751000E-02	-4.12469000E-03
					 3.77424000E-04	-4.95083000E-02	-1.73114000E-04
					-4.05252000E-03	-4.93835000E-02	 8.14439000E-03