# vtk DataFile Version 3.0

ASCII
DATASET UNSTRUCTURED_GRID

POINTS 522 double
	 1.00000000E+00	 1.00000000E+00	-5.96046000E-08
	 1.00000000E+00	 5.00000000E-01	-5.96046000E-08
	 1.00000000E+00	 5.00000000E-01	 1.00000000E+00
	 1.00000000E+00	 1.00000000E+00	 1.00000000E+00
	 5.00000000E-01	 1.00000000E+00	-5.96046000E-08
	 5.00000000E-01	 5.00000000E-01	-5.96046000E-08
	 5.00000000E-01	 5.00000000E-01	 1.00000000E+00
	 5.00000000E-01	 1.00000000E+00	 1.00000000E+00
	 1.00000000E+00	 7.50000000E-01	-5.96046000E-08
	 1.00000000E+00	 5.00000000E-01	 5.00000000E-01
	 1.00000000E+00	 7.50000000E-01	 1.00000000E+00
	 1.00000000E+00	 1.00000000E+00	 5.00000000E-01
	 7.50000000E-01	 1.00000000E+00	-5.96046000E-08
	 7.50000000E-01	 5.00000000E-01	-5.96046000E-08
	 7.50000000E-01	 5.00000000E-01	 1.00000000E+00
	 7.50000000E-01	 1.00000000E+00	 1.00000000E+00
	 5.00000000E-01	 7.50000000E-01	-5.96046000E-08
	 5.00000000E-01	 5.00000000E-01	 5.00000000E-01
	 5.00000000E-01	 7.50000000E-01	 1.00000000E+00
	 5.00000000E-01	 1.00000000E+00	 5.00000000E-01
	 1.00000000E+00	-1.49012000E-08	-5.96046000E-08
	 1.00000000E+00	-1.49012000E-08	 1.00000000E+00
	 5.00000000E-01	-1.49012000E-08	-5.96046000E-08
	 5.00000000E-01	-1.49012000E-08	 1.00000000E+00
	 1.00000000E+00	 2.50000000E-01	-5.96046000E-08
	 1.00000000E+00	-1.49012000E-08	 5.00000000E-01
	 1.00000000E+00	 2.50000000E-01	 1.00000000E+00
	 7.50000000E-01	-1.49012000E-08	-5.96046000E-08
	 7.50000000E-01	-1.49012000E-08	 1.00000000E+00
	 5.00000000E-01	 2.50000000E-01	-5.96046000E-08
	 5.00000000E-01	-1.49012000E-08	 5.00000000E-01
	 5.00000000E-01	 2.50000000E-01	 1.00000000E+00
	-7.45058000E-09	 1.00000000E+00	-5.96046000E-08
	-7.45058000E-09	 5.00000000E-01	-5.96046000E-08
	-7.45058000E-09	 5.00000000E-01	 1.00000000E+00
	-7.45058000E-09	 1.00000000E+00	 1.00000000E+00
	 2.50000000E-01	 1.00000000E+00	-5.96046000E-08
	 2.50000000E-01	 5.00000000E-01	-5.96046000E-08
	 2.50000000E-01	 5.00000000E-01	 1.00000000E+00
	 2.50000000E-01	 1.00000000E+00	 1.00000000E+00
	-7.45058000E-09	 7.50000000E-01	-5.96046000E-08
	-7.45058000E-09	 5.00000000E-01	 5.00000000E-01
	-7.45058000E-09	 7.50000000E-01	 1.00000000E+00
	-7.45058000E-09	 1.00000000E+00	 5.00000000E-01
	-7.45058000E-09	-1.49012000E-08	-5.96046000E-08
	-7.45058000E-09	-1.49012000E-08	 1.00000000E+00
	 2.50000000E-01	-1.49012000E-08	-5.96046000E-08
	 2.50000000E-01	-1.49012000E-08	 1.00000000E+00
	-7.45058000E-09	 2.50000000E-01	-5.96046000E-08
	-7.45058000E-09	-1.49012000E-08	 5.00000000E-01
	-7.45058000E-09	 2.50000000E-01	 1.00000000E+00
	 1.00000000E+00	 5.00000000E-01	 2.00000000E+00
	 1.00000000E+00	 1.00000000E+00	 2.00000000E+00
	 5.00000000E-01	 5.00000000E-01	 2.00000000E+00
	 5.00000000E-01	 1.00000000E+00	 2.00000000E+00
	 1.00000000E+00	 5.00000000E-01	 1.50000000E+00
	 1.00000000E+00	 7.50000000E-01	 2.00000000E+00
	 1.00000000E+00	 1.00000000E+00	 1.50000000E+00
	 7.50000000E-01	 5.00000000E-01	 2.00000000E+00
	 7.50000000E-01	 1.00000000E+00	 2.00000000E+00
	 5.00000000E-01	 5.00000000E-01	 1.50000000E+00
	 5.00000000E-01	 7.50000000E-01	 2.00000000E+00
	 5.00000000E-01	 1.00000000E+00	 1.50000000E+00
	 1.00000000E+00	-1.49012000E-08	 2.00000000E+00
	 5.00000000E-01	-1.49012000E-08	 2.00000000E+00
	 1.00000000E+00	-1.49012000E-08	 1.50000000E+00
	 1.00000000E+00	 2.50000000E-01	 2.00000000E+00
	 7.50000000E-01	-1.49012000E-08	 2.00000000E+00
	 5.00000000E-01	-1.49012000E-08	 1.50000000E+00
	 5.00000000E-01	 2.50000000E-01	 2.00000000E+00
	-7.45058000E-09	 5.00000000E-01	 2.00000000E+00
	-7.45058000E-09	 1.00000000E+00	 2.00000000E+00
	 2.50000000E-01	 5.00000000E-01	 2.00000000E+00
	 2.50000000E-01	 1.00000000E+00	 2.00000000E+00
	-7.45058000E-09	 5.00000000E-01	 1.50000000E+00
	-7.45058000E-09	 7.50000000E-01	 2.00000000E+00
	-7.45058000E-09	 1.00000000E+00	 1.50000000E+00
	-7.45058000E-09	-1.49012000E-08	 2.00000000E+00
	 2.50000000E-01	-1.49012000E-08	 2.00000000E+00
	-7.45058000E-09	-1.49012000E-08	 1.50000000E+00
	-7.45058000E-09	 2.50000000E-01	 2.00000000E+00
	 1.00000000E+00	 5.00000000E-01	 3.00000000E+00
	 1.00000000E+00	 1.00000000E+00	 3.00000000E+00
	 5.00000000E-01	 5.00000000E-01	 3.00000000E+00
	 5.00000000E-01	 1.00000000E+00	 3.00000000E+00
	 1.00000000E+00	 5.00000000E-01	 2.50000000E+00
	 1.00000000E+00	 7.50000000E-01	 3.00000000E+00
	 1.00000000E+00	 1.00000000E+00	 2.50000000E+00
	 7.50000000E-01	 5.00000000E-01	 3.00000000E+00
	 7.50000000E-01	 1.00000000E+00	 3.00000000E+00
	 5.00000000E-01	 5.00000000E-01	 2.50000000E+00
	 5.00000000E-01	 7.50000000E-01	 3.00000000E+00
	 5.00000000E-01	 1.00000000E+00	 2.50000000E+00
	 1.00000000E+00	-1.49012000E-08	 3.00000000E+00
	 5.00000000E-01	-1.49012000E-08	 3.00000000E+00
	 1.00000000E+00	-1.49012000E-08	 2.50000000E+00
	 1.00000000E+00	 2.50000000E-01	 3.00000000E+00
	 7.50000000E-01	-1.49012000E-08	 3.00000000E+00
	 5.00000000E-01	-1.49012000E-08	 2.50000000E+00
	 5.00000000E-01	 2.50000000E-01	 3.00000000E+00
	-7.45058000E-09	 5.00000000E-01	 3.00000000E+00
	-7.45058000E-09	 1.00000000E+00	 3.00000000E+00
	 2.50000000E-01	 5.00000000E-01	 3.00000000E+00
	 2.50000000E-01	 1.00000000E+00	 3.00000000E+00
	-7.45058000E-09	 5.00000000E-01	 2.50000000E+00
	-7.45058000E-09	 7.50000000E-01	 3.00000000E+00
	-7.45058000E-09	 1.00000000E+00	 2.50000000E+00
	-7.45058000E-09	-1.49012000E-08	 3.00000000E+00
	 2.50000000E-01	-1.49012000E-08	 3.00000000E+00
	-7.45058000E-09	-1.49012000E-08	 2.50000000E+00
	-7.45058000E-09	 2.50000000E-01	 3.00000000E+00
	 1.00000000E+00	 5.00000000E-01	 4.00000000E+00
	 1.00000000E+00	 1.00000000E+00	 4.00000000E+00
	 5.00000000E-01	 5.00000000E-01	 4.00000000E+00
	 5.00000000E-01	 1.00000000E+00	 4.00000000E+00
	 1.00000000E+00	 5.00000000E-01	 3.50000000E+00
	 1.00000000E+00	 7.50000000E-01	 4.00000000E+00
	 1.00000000E+00	 1.00000000E+00	 3.50000000E+00
	 7.50000000E-01	 5.00000000E-01	 4.00000000E+00
	 7.50000000E-01	 1.00000000E+00	 4.00000000E+00
	 5.00000000E-01	 5.00000000E-01	 3.50000000E+00
	 5.00000000E-01	 7.50000000E-01	 4.00000000E+00
	 5.00000000E-01	 1.00000000E+00	 3.50000000E+00
	 1.00000000E+00	-1.49012000E-08	 4.00000000E+00
	 5.00000000E-01	-1.49012000E-08	 4.00000000E+00
	 1.00000000E+00	-1.49012000E-08	 3.50000000E+00
	 1.00000000E+00	 2.50000000E-01	 4.00000000E+00
	 7.50000000E-01	-1.49012000E-08	 4.00000000E+00
	 5.00000000E-01	-1.49012000E-08	 3.50000000E+00
	 5.00000000E-01	 2.50000000E-01	 4.00000000E+00
	-7.45058000E-09	 5.00000000E-01	 4.00000000E+00
	-7.45058000E-09	 1.00000000E+00	 4.00000000E+00
	 2.50000000E-01	 5.00000000E-01	 4.00000000E+00
	 2.50000000E-01	 1.00000000E+00	 4.00000000E+00
	-7.45058000E-09	 5.00000000E-01	 3.50000000E+00
	-7.45058000E-09	 7.50000000E-01	 4.00000000E+00
	-7.45058000E-09	 1.00000000E+00	 3.50000000E+00
	-7.45058000E-09	-1.49012000E-08	 4.00000000E+00
	 2.50000000E-01	-1.49012000E-08	 4.00000000E+00
	-7.45058000E-09	-1.49012000E-08	 3.50000000E+00
	-7.45058000E-09	 2.50000000E-01	 4.00000000E+00
	 1.00000000E+00	 5.00000000E-01	 5.00000000E+00
	 1.00000000E+00	 1.00000000E+00	 5.00000000E+00
	 5.00000000E-01	 5.00000000E-01	 5.00000000E+00
	 5.00000000E-01	 1.00000000E+00	 5.00000000E+00
	 1.00000000E+00	 5.00000000E-01	 4.50000000E+00
	 1.00000000E+00	 7.50000000E-01	 5.00000000E+00
	 1.00000000E+00	 1.00000000E+00	 4.50000000E+00
	 7.50000000E-01	 5.00000000E-01	 5.00000000E+00
	 7.50000000E-01	 1.00000000E+00	 5.00000000E+00
	 5.00000000E-01	 5.00000000E-01	 4.50000000E+00
	 5.00000000E-01	 7.50000000E-01	 5.00000000E+00
	 5.00000000E-01	 1.00000000E+00	 4.50000000E+00
	 1.00000000E+00	-1.49012000E-08	 5.00000000E+00
	 5.00000000E-01	-1.49012000E-08	 5.00000000E+00
	 1.00000000E+00	-1.49012000E-08	 4.50000000E+00
	 1.00000000E+00	 2.50000000E-01	 5.00000000E+00
	 7.50000000E-01	-1.49012000E-08	 5.00000000E+00
	 5.00000000E-01	-1.49012000E-08	 4.50000000E+00
	 5.00000000E-01	 2.50000000E-01	 5.00000000E+00
	-7.45058000E-09	 5.00000000E-01	 5.00000000E+00
	-7.45058000E-09	 1.00000000E+00	 5.00000000E+00
	 2.50000000E-01	 5.00000000E-01	 5.00000000E+00
	 2.50000000E-01	 1.00000000E+00	 5.00000000E+00
	-7.45058000E-09	 5.00000000E-01	 4.50000000E+00
	-7.45058000E-09	 7.50000000E-01	 5.00000000E+00
	-7.45058000E-09	 1.00000000E+00	 4.50000000E+00
	-7.45058000E-09	-1.49012000E-08	 5.00000000E+00
	 2.50000000E-01	-1.49012000E-08	 5.00000000E+00
	-7.45058000E-09	-1.49012000E-08	 4.50000000E+00
	-7.45058000E-09	 2.50000000E-01	 5.00000000E+00
	 1.00000000E+00	 5.00000000E-01	 6.00000000E+00
	 1.00000000E+00	 1.00000000E+00	 6.00000000E+00
	 5.00000000E-01	 5.00000000E-01	 6.00000000E+00
	 5.00000000E-01	 1.00000000E+00	 6.00000000E+00
	 1.00000000E+00	 5.00000000E-01	 5.50000000E+00
	 1.00000000E+00	 7.50000000E-01	 6.00000000E+00
	 1.00000000E+00	 1.00000000E+00	 5.50000000E+00
	 7.50000000E-01	 5.00000000E-01	 6.00000000E+00
	 7.50000000E-01	 1.00000000E+00	 6.00000000E+00
	 5.00000000E-01	 5.00000000E-01	 5.50000000E+00
	 5.00000000E-01	 7.50000000E-01	 6.00000000E+00
	 5.00000000E-01	 1.00000000E+00	 5.50000000E+00
	 1.00000000E+00	-1.49012000E-08	 6.00000000E+00
	 5.00000000E-01	-1.49012000E-08	 6.00000000E+00
	 1.00000000E+00	-1.49012000E-08	 5.50000000E+00
	 1.00000000E+00	 2.50000000E-01	 6.00000000E+00
	 7.50000000E-01	-1.49012000E-08	 6.00000000E+00
	 5.00000000E-01	-1.49012000E-08	 5.50000000E+00
	 5.00000000E-01	 2.50000000E-01	 6.00000000E+00
	-7.45058000E-09	 5.00000000E-01	 6.00000000E+00
	-7.45058000E-09	 1.00000000E+00	 6.00000000E+00
	 2.50000000E-01	 5.00000000E-01	 6.00000000E+00
	 2.50000000E-01	 1.00000000E+00	 6.00000000E+00
	-7.45058000E-09	 5.00000000E-01	 5.50000000E+00
	-7.45058000E-09	 7.50000000E-01	 6.00000000E+00
	-7.45058000E-09	 1.00000000E+00	 5.50000000E+00
	-7.45058000E-09	-1.49012000E-08	 6.00000000E+00
	 2.50000000E-01	-1.49012000E-08	 6.00000000E+00
	-7.45058000E-09	-1.49012000E-08	 5.50000000E+00
	-7.45058000E-09	 2.50000000E-01	 6.00000000E+00
	 1.00000000E+00	 5.00000000E-01	 7.00000000E+00
[...]
POINT_DATA 522
FIELD U 1
	U 3 522 double
		 0.00000000E+00	 0.00000000E+00	 0.00000000E+00
		 0.00000000E+00	 0.00000000E+00	 0.00000000E+00
		 3.18785000E-05	-1.04450000E-03	-6.89033000E-05
		 7.81865000E-04	-9.26471000E-04	-6.64433000E-04
		 0.00000000E+00	 0.00000000E+00	 0.00000000E+00
		 0.00000000E+00	 0.00000000E+00	 0.00000000E+00
		 2.24920000E-05	-4.03568000E-04	-6.09790000E-05
		 5.65876000E-04	-2.84144000E-04	-6.38210000E-04
		 0.00000000E+00	 0.00000000E+00	 0.00000000E+00
		 2.11405000E-05	-6.93077000E-04	-3.49719000E-05
		 4.08581000E-04	-1.01202000E-03	-4.82888000E-04
		 3.48430000E-04	-6.12212000E-04	-1.49531000E-04
		 0.00000000E+00	 0.00000000E+00	 0.00000000E+00
		 0.00000000E+00	 0.00000000E+00	 0.00000000E+00
		 2.73300000E-05	-6.96917000E-04	-6.41703000E-05
		 6.73241000E-04	-5.80274000E-04	-5.83149000E-04
		 0.00000000E+00	 0.00000000E+00	 0.00000000E+00
		 1.10258000E-05	-3.91869000E-04	-2.66787000E-05
		 2.93683000E-04	-3.71428000E-04	-4.01589000E-04
		 2.63802000E-04	-3.28558000E-04	-1.16911000E-04
		 0.00000000E+00	 0.00000000E+00	 0.00000000E+00
		-7.19577000E-04	-9.41327000E-04	 5.29119000E-04
		 0.00000000E+00	 0.00000000E+00	 0.00000000E+00
		-5.20523000E-04	-2.99698000E-04	 5.18112000E-04
		 0.00000000E+00	 0.00000000E+00	 0.00000000E+00
		-3.08172000E-04	-6.33522000E-04	 7.70236000E-05
		-3.45270000E-04	-1.01931000E-03	 3.45895000E-04
		 0.00000000E+00	 0.00000000E+00	 0.00000000E+00
		-6.19171000E-04	-5.95246000E-04	 4.57458000E-04
		 0.00000000E+00	 0.00000000E+00	 0.00000000E+00
		-2.42707000E-04	-3.46529000E-04	 6.10400000E-05
		-2.48458000E-04	-3.78836000E-04	 2.80532000E-04
		 0.00000000E+00	 0.00000000E+00	 0.00000000E+00
		 0.00000000E+00	 0.00000000E+00	 0.00000000E+00
		 1.21035000E-05	 4.14375000E-05	-5.28431000E-05
		 3.42348000E-04	 1.53704000E-04	-6.48544000E-04
		 0.00000000E+00	 0.00000000E+00	 0.00000000E+00
		 0.00000000E+00	 0.00000000E+00	 0.00000000E+00
		 1.70962000E-05	-1.55394000E-04	-5.72517000E-05
		 4.54017000E-04	-3.81554000E-05	-6.82611000E-04
		 0.00000000E+00	 0.00000000E+00	 0.00000000E+00
		 2.02970000E-06	-1.86599000E-04	-2.22998000E-05
		 1.77937000E-04	 7.03480000E-05	-3.60485000E-04
		 1.57869000E-04	-1.30843000E-04	-1.36364000E-04
		 0.00000000E+00	 0.00000000E+00	 0.00000000E+00
		-3.16053000E-04	 1.36903000E-04	 5.43912000E-04
		 0.00000000E+00	 0.00000000E+00	 0.00000000E+00
		-4.18558000E-04	-5.39989000E-05	 5.69156000E-04
		 0.00000000E+00	 0.00000000E+00	 0.00000000E+00
		-1.53898000E-04	-1.47202000E-04	 8.93803000E-05
		-1.52801000E-04	 6.21075000E-05	 2.55682000E-04
		 4.70015000E-05	 1.05639000E-03	-1.22202000E-04
		 1.41406000E-03	 1.17693000E-03	-2.44615000E-03
		 4.04637000E-05	 2.28237000E-03	-1.24094000E-04
		 1.14141000E-03	 2.41309000E-03	-2.45066000E-03
		 4.08164000E-05	-5.29476000E-04	-9.70669000E-05
		 7.27010000E-04	 1.08110000E-03	-1.30160000E-03
		 1.14821000E-03	-4.18677000E-04	-1.51533000E-03
		 4.41415000E-05	 1.70221000E-03	-1.23268000E-04
		 1.27822000E-03	 1.83138000E-03	-2.42053000E-03
		 3.19128000E-05	 4.35924000E-04	-9.23783000E-05
		 5.91230000E-04	 2.31227000E-03	-1.27540000E-03
		 8.73271000E-04	 5.58259000E-04	-1.50609000E-03
		-1.31727000E-03	 1.18272000E-03	 2.20081000E-03
		-1.05644000E-03	 2.41265000E-03	 2.20094000E-03
		-1.06542000E-03	-4.25216000E-04	 1.32257000E-03
		-6.32489000E-04	 1.08498000E-03	 1.05659000E-03
		-1.18637000E-03	 1.83370000E-03	 2.17315000E-03
		-8.07286000E-04	 5.48745000E-04	 1.32190000E-03
		-5.09158000E-04	 2.31242000E-03	 1.02669000E-03
		 3.19328000E-05	 3.25354000E-03	-1.22642000E-04
		 8.72978000E-04	 3.38683000E-03	-2.44709000E-03
		 3.63458000E-05	 2.80163000E-03	-1.24129000E-04
		 1.00805000E-03	 2.93356000E-03	-2.48718000E-03
		 2.20030000E-05	 1.15033000E-03	-8.61045000E-05
		 4.53102000E-04	 3.28590000E-03	-1.23674000E-03
		 6.05583000E-04	 1.27281000E-03	-1.50479000E-03
		-8.04261000E-04	 3.37942000E-03	 2.20001000E-03
		-9.30831000E-04	 2.93030000E-03	 2.23690000E-03
		-5.58643000E-04	 1.25914000E-03	 1.33235000E-03
		-3.87935000E-04	 3.28180000E-03	 9.91096000E-04
		 4.33652000E-05	 7.02327000E-03	-1.71279000E-04
		 1.76527000E-03	 7.12192000E-03	-4.07189000E-03
		 4.18691000E-05	 8.63411000E-03	-1.92893000E-04
		 1.54223000E-03	 8.73527000E-03	-4.09243000E-03
		 4.88757000E-05	 3.64651000E-03	-1.45865000E-04
		 9.05346000E-04	 7.04661000E-03	-2.14632000E-03
		 1.60153000E-03	 3.75747000E-03	-3.28804000E-03
		 4.27864000E-05	 7.85550000E-03	-1.82284000E-04
		 1.65381000E-03	 7.95433000E-03	-4.05808000E-03
		 4.50024000E-05	 5.07785000E-03	-1.57209000E-04
		 7.91620000E-04	 8.65939000E-03	-2.14320000E-03
		 1.36188000E-03	 5.19437000E-03	-3.30414000E-03
		-1.67386000E-03	 7.15038000E-03	 3.72629000E-03
		-1.45511000E-03	 8.75537000E-03	 3.70408000E-03
		-1.49937000E-03	 3.77451000E-03	 2.99333000E-03
		-8.17407000E-04	 7.06090000E-03	 1.80294000E-03
		-1.56395000E-03	 7.97798000E-03	 3.69056000E-03
		-1.26755000E-03	 5.20341000E-03	 2.98700000E-03
		-7.07014000E-04	 8.66893000E-03	 1.75670000E-03
		 3.69634000E-05	 1.00205000E-02	-2.11334000E-04
		 1.31849000E-03	 1.01286000E-02	-4.11187000E-03
		 4.00964000E-05	 9.35420000E-03	-2.02605000E-04
		 1.43112000E-03	 9.45727000E-03	-4.12553000E-03
		 3.83115000E-05	 6.27547000E-03	-1.64761000E-04
		 6.75753000E-04	 1.00490000E-02	-2.13915000E-03
		 1.12389000E-03	 6.39842000E-03	-3.30716000E-03
		-1.24234000E-03	 1.01434000E-02	 3.68707000E-03
		-1.34841000E-03	 9.47483000E-03	 3.71838000E-03
		-1.04290000E-03	 6.40008000E-03	 2.97511000E-03
		-6.01240000E-04	 1.00557000E-02	 1.71563000E-03
		 1.35524000E-05	 1.59260000E-02	-2.39289000E-04
		 2.08930000E-03	 1.60308000E-02	-5.76087000E-03
		 1.36534000E-05	 1.78556000E-02	-2.78746000E-04
		 1.80560000E-03	 1.79681000E-02	-5.79352000E-03
		 3.08503000E-05	 1.10857000E-02	-2.01677000E-04
		 1.05005000E-03	 1.59427000E-02	-3.03964000E-03
		 1.92867000E-03	 1.11904000E-02	-4.86939000E-03
		 1.37324000E-05	 1.69258000E-02	-2.59363000E-04
		 1.94799000E-03	 1.70358000E-02	-5.75185000E-03
		 3.02625000E-05	 1.28619000E-02	-2.32586000E-04
		 9.09323000E-04	 1.78765000E-02	-3.05109000E-03
		 1.68553000E-03	 1.29691000E-02	-4.89302000E-03
		-2.05772000E-03	 1.60919000E-02	 5.28048000E-03
		-1.77587000E-03	 1.80209000E-02	 5.23403000E-03
		-1.86297000E-03	 1.12313000E-02	 4.46355000E-03
		-1.02191000E-03	 1.59737000E-02	 2.56052000E-03
		-1.91661000E-03	 1.70917000E-02	 5.23146000E-03
		-1.62270000E-03	 1.30026000E-02	 4.42577000E-03
		-8.81518000E-04	 1.79026000E-02	 2.49313000E-03
		 1.03360000E-05	 1.95070000E-02	-3.15570000E-04
		 1.52327000E-03	 1.96223000E-02	-5.83700000E-03
		 1.27825000E-05	 1.87166000E-02	-2.97463000E-04
		 1.66485000E-03	 1.88308000E-02	-5.83096000E-03
		 2.64008000E-05	 1.43940000E-02	-2.60839000E-04
		 7.67039000E-04	 1.95293000E-02	-3.07469000E-03
		 1.44013000E-03	 1.45049000E-02	-4.92819000E-03
		-1.50200000E-03	 1.96721000E-02	 5.20366000E-03
		-1.63836000E-03	 1.88819000E-02	 5.23366000E-03
		-1.38677000E-03	 1.45354000E-02	 4.40476000E-03
		-7.46237000E-04	 1.95542000E-02	 2.44319000E-03
		-3.22381000E-05	 2.87615000E-02	-3.49216000E-04
		 2.24332000E-03	 2.88362000E-02	-7.87171000E-03
		-3.28101000E-05	 3.08744000E-02	-4.04895000E-04
		 1.93979000E-03	 3.09646000E-02	-7.93568000E-03
		-7.25708000E-06	 2.17524000E-02	-2.86561000E-04
		 1.10152000E-03	 2.87595000E-02	-4.09287000E-03
		 2.21490000E-03	 2.18455000E-02	-6.79930000E-03
		-3.23944000E-05	 2.98549000E-02	-3.77877000E-04
		 2.09238000E-03	 2.99416000E-02	-7.90601000E-03
		-7.41958000E-06	 2.38125000E-02	-3.35050000E-04
		 9.54033000E-04	 3.08802000E-02	-4.15348000E-03
		 1.90574000E-03	 2.39179000E-02	-6.84620000E-03
		-2.30367000E-03	 2.89534000E-02	 7.16978000E-03
		-2.00176000E-03	 3.10745000E-02	 7.12237000E-03
		-2.22446000E-03	 2.19335000E-02	 6.22416000E-03
		-1.16502000E-03	 2.88181000E-02	 3.39396000E-03
		-2.15276000E-03	 3.00548000E-02	 7.14644000E-03
		-1.91711000E-03	 2.39969000E-02	 6.17363000E-03
		-1.01860000E-03	 3.09346000E-02	 3.34295000E-03
		-3.52540000E-05	 3.27014000E-02	-4.56408000E-04
		 1.64835000E-03	 3.27962000E-02	-7.97886000E-03
		-3.37060000E-05	 3.18262000E-02	-4.30980000E-04
		 1.79469000E-03	 3.19182000E-02	-7.96445000E-03
		-1.05405000E-05	 2.55741000E-02	-3.80341000E-04
		 8.06899000E-04	 3.27106000E-02	-4.19474000E-03
		 1.60155000E-03	 2.56820000E-02	-6.89302000E-03
		-1.71630000E-03	 3.29015000E-02	 7.06282000E-03
		-1.85930000E-03	 3.20259000E-02	 7.09920000E-03
		-1.62053000E-03	 2.57563000E-02	 6.12963000E-03
		-8.76646000E-04	 3.27625000E-02	 3.28116000E-03
		-7.60478000E-05	 4.63117000E-02	-5.33733000E-04
		 1.72244000E-03	 4.62938000E-02	-9.57399000E-03
		-7.68587000E-05	 4.80334000E-02	-5.86891000E-04
		 1.57608000E-03	 4.80227000E-02	-9.64871000E-03
		-5.56591000E-05	 3.70282000E-02	-4.32980000E-04
		 8.21500000E-04	 4.62871000E-02	-4.95040000E-03
		 2.08038000E-03	 3.70510000E-02	-8.83320000E-03
		-7.65028000E-05	 4.71891000E-02	-5.60867000E-04
		 1.65004000E-03	 4.71760000E-02	-9.67311000E-03
		-5.65889000E-05	 3.90323000E-02	-4.89718000E-04
		 7.50030000E-04	 4.80118000E-02	-5.07300000E-03
		 1.83627000E-03	 3.90720000E-02	-8.90774000E-03
		-1.87146000E-03	 4.64572000E-02	 8.50349000E-03
		-1.72798000E-03	 4.81827000E-02	 8.47160000E-03
		-2.18854000E-03	 3.71942000E-02	 7.96357000E-03
		-9.72794000E-04	 4.63651000E-02	 3.88230000E-03
		-1.80019000E-03	 4.73394000E-02	 8.54802000E-03
		-1.94702000E-03	 3.92108000E-02	 7.92450000E-03
		-9.03112000E-04	 4.80900000E-02	 3.89838000E-03
		-7.82931000E-05	 4.96157000E-02	-6.35814000E-04
		 1.43964000E-03	 4.96110000E-02	-9.67728000E-03
		-7.73673000E-05	 4.88428000E-02	-6.11875000E-04
		 1.50805000E-03	 4.88337000E-02	-9.62831000E-03
		-5.85451000E-05	 4.08097000E-02	-5.41791000E-04
		 6.79187000E-04	 4.95967000E-02	-5.14958000E-03
		 1.61354000E-03	 4.08590000E-02	-8.94296000E-03
		-1.59577000E-03	 4.97693000E-02	 8.40202000E-03
		-1.66196000E-03	 4.89913000E-02	 8.40135000E-03
		-1.72948000E-03	 4.09952000E-02	 7.85566000E-03
		-8.35530000E-04	 4.96756000E-02	 3.87679000E-03
		-1.21388000E-04	 6.60959000E-02	-7.56968000E-04
		 8.05584000E-04	 6.60067000E-02	-1.00760000E-02
		-1.23008000E-04	 6.70500000E-02	-7.92268000E-04
		 8.42790000E-04	 6.69506000E-02	-1.01151000E-02
		-9.85288000E-05	 5.61797000E-02	-6.44038000E-04
		 3.43889000E-04	 6.60585000E-02	-5.34747000E-03
		 1.25314000E-03	 5.61231000E-02	-9.95517000E-03
		-1.22812000E-04	 6.65677000E-02	-7.75248000E-04
		 8.22841000E-04	 6.64699000E-02	-1.01507000E-02
		-9.96177000E-05	 5.75145000E-02	-6.90368000E-04
		 3.58351000E-04	 6.70074000E-02	-5.43696000E-03
		 1.21227000E-03	 5.74559000E-02	-1.00210000E-02
		-1.04686000E-03	 6.61733000E-02	 8.56455000E-03
		-1.08804000E-03	 6.71176000E-02	 8.53354000E-03
		-1.44735000E-03	 5.62923000E-02	 8.66554000E-03
		-5.86061000E-04	 6.61388000E-02	 3.83447000E-03
		-1.06704000E-03	 6.66384000E-02	 8.60280000E-03
		-1.41012000E-03	 5.76233000E-02	 8.63900000E-03
		-6.03784000E-04	 6.70894000E-02	 3.85329000E-03
		-1.21993000E-04	 6.80297000E-02	-8.27819000E-04
		 8.72532000E-04	 6.79282000E-02	-1.01375000E-02
		-1.22551000E-04	 6.75355000E-02	-8.09434000E-04
		 8.57226000E-04	 6.74359000E-02	-1.00802000E-02
		-9.97207000E-05	 5.88052000E-02	-7.34319000E-04
		 3.74584000E-04	 6.79846000E-02	-5.51028000E-03
		 1.17308000E-03	 5.87499000E-02	-1.00442000E-02
		-1.11740000E-03	 6.80972000E-02	 8.48497000E-03
		-1.10233000E-03	 6.76022000E-02	 8.46424000E-03
		-1.37292000E-03	 5.89172000E-02	 8.57430000E-03
		-6.18732000E-04	 6.80690000E-02	 3.85566000E-03
		-1.42235000E-04	 8.48765000E-02	-9.53300000E-04
		 4.42641000E-04	 8.47967000E-02	-1.00906000E-02
		-1.45791000E-04	 8.54575000E-02	-9.70790000E-04
		 4.67257000E-04	 8.53597000E-02	-1.00821000E-02
		-1.35891000E-04	 7.56460000E-02	-8.62346000E-04
		 1.57902000E-04	 8.48383000E-02	-5.53316000E-03
		 5.23397000E-04	 7.55705000E-02	-1.00711000E-02
		-1.43874000E-04	 8.51700000E-02	-9.61199000E-04
		 4.53065000E-04	 8.50750000E-02	-1.00886000E-02
		-1.37485000E-04	 7.63322000E-02	-8.85469000E-04
		 1.64053000E-04	 8.54094000E-02	-5.53945000E-03
		 5.66452000E-04	 7.62411000E-02	-1.00785000E-02
		-7.29081000E-04	 8.49703000E-02	 8.19150000E-03
		-7.57203000E-04	 8.55342000E-02	 8.14850000E-03
		-7.95929000E-04	 7.57363000E-02	 8.35263000E-03
		-4.42644000E-04	 8.49265000E-02	 3.62834000E-03
		-7.41142000E-04	 8.52500000E-02	 8.17414000E-03
		-8.40362000E-04	 7.64083000E-02	 8.31405000E-03
		-4.54928000E-04	 8.54980000E-02	 3.60011000E-03
		-1.47776000E-04	 8.60655000E-02	-9.92087000E-04
		 4.70410000E-04	 8.59534000E-02	-1.00926000E-02
		-1.47311000E-04	 8.57549000E-02	-9.81502000E-04
		 4.69788000E-04	 8.56507000E-02	-1.00738000E-02
		-1.37497000E-04	 7.70531000E-02	-9.11363000E-04
		 1.61381000E-04	 8.60107000E-02	-5.56459000E-03
		 5.97983000E-04	 7.69553000E-02	-1.00950000E-02
		-7.61461000E-04	 8.61232000E-02	 8.11702000E-03
		-7.60942000E-04	 8.58231000E-02	 8.11866000E-03
		-8.71157000E-04	 7.71218000E-02	 8.27880000E-03
		-4.55479000E-04	 8.60967000E-02	 3.58351000E-03
		 0.00000000E+00	 0.00000000E+00	 0.00000000E+00
		 0.00000000E+00	 0.00000000E+00	 0.00000000E+00
		-1.10820000E-04	-2.77696000E-03	 1.94266000E-04
		-2.04301000E-03	-3.04310000E-03	 4.09045000E-03
		 0.00000000E+00	 0.00000000E+00	 0.00000000E+00
		 0.00000000E+00	 0.00000000E+00	 0.00000000E+00
		-8.59889000E-05	-4.46099000E-03	 1.26023000E-04
		-1.53156000E-03	-4.73870000E-03	 4.07774000E-03
		 0.00000000E+00	 0.00000000E+00	 0.00000000E+00
		-5.50737000E-05	-2.28879000E-04	 9.94127000E-05
		-1.07990000E-03	-2.82158000E-03	 2.21705000E-03
		-1.29957000E-03	-6.20083000E-04	 2.09358000E-03
		 0.00000000E+00	 0.00000000E+00	 0.00000000E+00
		 0.00000000E+00	 0.00000000E+00	 0.00000000E+00
		-9.66871000E-05	-3.70563000E-03	 1.57568000E-04
		-1.78160000E-03	-3.97385000E-03	 3.94807000E-03
		 0.00000000E+00	 0.00000000E+00	 0.00000000E+00
		-2.86895000E-05	-1.17377000E-03	 5.86931000E-05
		-8.09539000E-04	-4.50622000E-03	 2.03903000E-03
		-7.09683000E-04	-1.53384000E-03	 1.99990000E-03
		 0.00000000E+00	 0.00000000E+00	 0.00000000E+00
		 1.82429000E-03	-2.95231000E-03	-3.71273000E-03
		 0.00000000E+00	 0.00000000E+00	 0.00000000E+00
		 1.36477000E-03	-4.65296000E-03	-3.83403000E-03
		 0.00000000E+00	 0.00000000E+00	 0.00000000E+00
		 1.19492000E-03	-5.43569000E-04	-1.88874000E-03
		 8.58476000E-04	-2.77480000E-03	-1.83291000E-03
		 0.00000000E+00	 0.00000000E+00	 0.00000000E+00
		 1.59160000E-03	-3.88560000E-03	-3.64230000E-03
		 0.00000000E+00	 0.00000000E+00	 0.00000000E+00
		 6.60278000E-04	-1.47531000E-03	-1.87541000E-03
		 6.36677000E-04	-4.46296000E-03	-1.79106000E-03
		 0.00000000E+00	 0.00000000E+00	 0.00000000E+00
		 0.00000000E+00	 0.00000000E+00	 0.00000000E+00
		-6.64510000E-05	-5.67050000E-03	 5.90133000E-05
		-1.00805000E-03	-5.91219000E-03	 3.95952000E-03
		 0.00000000E+00	 0.00000000E+00	 0.00000000E+00
		 0.00000000E+00	 0.00000000E+00	 0.00000000E+00
		-7.49368000E-05	-5.14950000E-03	 9.32518000E-05
		-1.27134000E-03	-5.40898000E-03	 4.16283000E-03
		 0.00000000E+00	 0.00000000E+00	 0.00000000E+00
		-1.33374000E-05	-1.59738000E-03	 2.76133000E-05
		-5.40804000E-04	-5.70037000E-03	 1.80526000E-03
		-7.44236000E-05	-1.91348000E-03	 2.02198000E-03
		 0.00000000E+00	 0.00000000E+00	 0.00000000E+00
		 8.79135000E-04	-5.83668000E-03	-3.84553000E-03
		 0.00000000E+00	 0.00000000E+00	 0.00000000E+00
		 1.12546000E-03	-5.33203000E-03	-3.98272000E-03
		 0.00000000E+00	 0.00000000E+00	 0.00000000E+00
		 5.58281000E-05	-1.87283000E-03	-1.96064000E-03
		 4.08580000E-04	-5.66434000E-03	-1.68963000E-03
		-2.48230000E-04	-1.29506000E-02	 2.88887000E-04
		-3.47174000E-03	-1.31031000E-02	 6.64796000E-03
		-2.19558000E-04	-1.60771000E-02	 1.86725000E-04
		-3.26118000E-03	-1.62302000E-02	 6.58666000E-03
		-1.78946000E-04	-7.15847000E-03	 2.54993000E-04
		-1.85912000E-03	-1.30096000E-02	 3.46956000E-03
		-2.80664000E-03	-7.39488000E-03	 5.65009000E-03
		-2.34357000E-04	-1.45304000E-02	 2.35728000E-04
		-3.36606000E-03	-1.46822000E-02	 6.53489000E-03
		-1.53642000E-04	-9.59438000E-03	 1.66343000E-04
		-1.73553000E-03	-1.61343000E-02	 3.30514000E-03
		-2.40800000E-03	-9.83384000E-03	 5.60069000E-03
		 2.97908000E-03	-1.29595000E-02	-6.07834000E-03
		 2.81911000E-03	-1.60961000E-02	-6.21934000E-03
		 2.44989000E-03	-7.27501000E-03	-5.15006000E-03
		 1.36339000E-03	-1.29366000E-02	-2.89451000E-03
		 2.90030000E-03	-1.45499000E-02	-6.06837000E-03
		 2.10364000E-03	-9.72178000E-03	-5.27753000E-03
		 1.30061000E-03	-1.60692000E-02	-2.93039000E-03
		-1.96462000E-04	-1.90287000E-02	 8.71241000E-05
		-3.03665000E-03	-1.91618000E-02	 6.44533000E-03
		-2.08328000E-04	-1.75675000E-02	 1.38914000E-04
		-3.14891000E-03	-1.77437000E-02	 6.64706000E-03
		-1.32879000E-04	-1.16699000E-02	 8.05325000E-05
		-1.62332000E-03	-1.90722000E-02	 3.06011000E-03
		-2.01819000E-03	-1.19004000E-02	 5.47634000E-03
		 2.66911000E-03	-1.90491000E-02	-6.27769000E-03
		 2.74439000E-03	-1.75891000E-02	-6.37858000E-03
		 1.76569000E-03	-1.18033000E-02	-5.32219000E-03
		 1.23761000E-03	-1.90210000E-02	-2.88320000E-03
		-3.60970000E-04	-2.57452000E-02	 3.00237000E-04
		-4.75102000E-03	-2.56915000E-02	 6.62655000E-03
		-3.24396000E-04	-3.01806000E-02	 2.08587000E-04
		-4.85625000E-03	-3.02360000E-02	 6.55999000E-03
		-3.09085000E-04	-1.93958000E-02	 3.01488000E-04
		-2.55281000E-03	-2.57396000E-02	 3.49674000E-03
		-4.10295000E-03	-1.94687000E-02	 6.91840000E-03
		-3.42011000E-04	-2.79452000E-02	 2.58292000E-04
		-4.80689000E-03	-2.79567000E-02	 6.49664000E-03
		-2.78152000E-04	-2.31847000E-02	 1.96827000E-04
		-2.61377000E-03	-3.02350000E-02	 3.30791000E-03
		-4.07375000E-03	-2.32677000E-02	 6.85606000E-03
		 3.98683000E-03	-2.55988000E-02	-6.01012000E-03
		 4.19890000E-03	-3.00412000E-02	-6.15977000E-03
		 3.47719000E-03	-1.93277000E-02	-6.31828000E-03
		 1.81703000E-03	-2.56955000E-02	-2.88460000E-03
		 4.09044000E-03	-2.77941000E-02	-5.99285000E-03
		 3.51795000E-03	-2.31093000E-02	-6.46552000E-03
		 1.93927000E-03	-3.01406000E-02	-2.91067000E-03
		-2.90543000E-04	-3.47834000E-02	 1.11844000E-04
		-5.06027000E-03	-3.49703000E-02	 6.43683000E-03
		-3.07216000E-04	-3.24744000E-02	 1.58499000E-04
		-4.96136000E-03	-3.24643000E-02	 6.63296000E-03
		-2.39500000E-04	-2.69792000E-02	 9.17938000E-05
		-2.64111000E-03	-3.49069000E-02	 3.06023000E-03
		-4.07439000E-03	-2.70930000E-02	 6.71265000E-03
		 4.42885000E-03	-3.46729000E-02	-6.25581000E-03
		 4.31361000E-03	-3.23275000E-02	-6.33199000E-03
		 3.55503000E-03	-2.69026000E-02	-6.53395000E-03
		 2.05967000E-03	-3.47660000E-02	-2.88160000E-03
		-3.76769000E-04	-3.59654000E-02	 2.92563000E-04
		-5.95443000E-03	-3.57486000E-02	 4.76187000E-03
		-3.35815000E-04	-4.17564000E-02	 2.63270000E-04
		-6.36815000E-03	-4.20069000E-02	 4.72988000E-03
		-4.16438000E-04	-3.13721000E-02	 2.96954000E-04
		-3.16519000E-03	-3.59004000E-02	 2.60560000E-03
		-5.39270000E-03	-3.13268000E-02	 5.80530000E-03
		-3.56857000E-04	-3.87833000E-02	 2.78379000E-04
		-6.15308000E-03	-3.87452000E-02	 4.67523000E-03
		-3.82732000E-04	-3.65291000E-02	 1.86278000E-04
		-3.22719000E-03	-4.19102000E-02	 2.50394000E-03
		-5.69261000E-03	-3.64318000E-02	 5.78821000E-03
		 5.02502000E-03	-3.57562000E-02	-4.17403000E-03
		 5.38750000E-03	-4.13863000E-02	-4.19969000E-03
		 4.52768000E-03	-3.11892000E-02	-5.20672000E-03
		 2.32443000E-03	-3.59097000E-02	-2.01918000E-03
		 5.20871000E-03	-3.85240000E-02	-4.11603000E-03
		 4.85029000E-03	-3.62947000E-02	-5.30802000E-03
		 2.51499000E-03	-4.15937000E-02	-1.97693000E-03
		-4.26001000E-04	-4.79065000E-02	 2.29161000E-04
		-6.64799000E-03	-4.85357000E-02	 4.69926000E-03
		-3.79558000E-04	-4.47508000E-02	 2.46592000E-04
		-6.50661000E-03	-4.57102000E-02	 4.77916000E-03
		-3.67544000E-04	-4.19684000E-02	 4.50080000E-05
		-3.65043000E-03	-4.82361000E-02	 2.40554000E-03
		-5.83403000E-03	-4.17717000E-02	 5.68815000E-03
		 5.78022000E-03	-4.73728000E-02	-4.23596000E-03