<?xml version="1.0"?>
<VTKFile type="UnstructuredGrid" version="0.1" byte_order="LittleEndian">
	<UnstructuredGrid>
		<Piece NumberOfPoints="522" NumberOfCells="64">
			<Points>
				<DataArray type="Float64" NumberOfComponents="3" format="ascii">
					 1.00000000E+00	 1.00000000E+00	-5.96046000E-08
					 1.00000000E+00	 5.00000000E-01	-5.96046000E-08
					 1.00000000E+00	 5.00000000E-01	 1.00000000E+00
					 1.00000000E+00	 1.00000000E+00	 1.00000000E+00
					 5.00000000E-01	 1.00000000E+00	-5.96046000E-08
					 5.00000000E-01	 5.00000000E-01	-5.96046000E-08
					 5.00000000E-01	 5.00000000E-01	 1.00000000E+00
					 5.00000000E-01	 1.00000000E+00	 1.00000000E+00
					 1.00000000E+00	 7.50000000E-01	-5.96046000E-08
					 1.00000000E+00	 5.00000000E-01	 5.00000000E-01
					 1.00000000E+00	 7.50000000E-01	 1.00000000E+00
					 1.00000000E+00	 1.00000000E+00	 5.00000000E-01
					 7.50000000E-01	 1.00000000E+00	-5.96046000E-08
					 7.50000000E-01	 5.00000000E-01	-5.96046000E-08
					 7.50000000E-01	 5.00000000E-01	 1.00000000E+00
					 7.50000000E-01	 1.00000000E+00	 1.00000000E+00
					 5.00000000E-01	 7.50000000E-01	-5.96046000E-08
					 5.00000000E-01	 5.00000000E-01	 5.00000000E-01
					 5.00000000E-01	 7.50000000E-01	 1.00000000E+00
					 5.00000000E-01	 1.00000000E+00	 5.00000000E-01
					 1.00000000E+00	-1.49012000E-08	-5.96046000E-08
					 1.00000000E+00	-1.49012000E-08	 1.00000000E+00
					 5.00000000E-01	-1.49012000E-08	-5.96046000E-08
					 5.00000000E-01	-1.49012000E-08	 1.00000000E+00
					 1.00000000E+00	 2.50000000E-01	-5.96046000E-08
					 1.00000000E+00	-1.49012000E-08	 5.00000000E-01
					 1.00000000E+00	 2.50000000E-01	 1.00000000E+00
					 7.50000000E-01	-1.49012000E-08	-5.96046000E-08
					 7.50000000E-01	-1.49012000E-08	 1.00000000E+00
					 5.00000000E-01	 2.50000000E-01	-5.96046000E-08
					 5.00000000E-01	-1.49012000E-08	 5.00000000E-01
					 5.00000000E-01	 2.50000000E-01	 1.00000000E+00
					-7.45058000E-09	 1.00000000E+00	-5.96046000E-08
					-7.45058000E-09	 5.00000000E-01	-5.96046000E-08
					-7.45058000E-09	 5.00000000E-01	 1.00000000E+00
					-7.45058000E-09	 1.00000000E+00	 1.00000000E+00
					 2.50000000E-01	 1.00000000E+00	-5.96046000E-08
					 2.50000000E-01	 5.00000000E-01	-5.96046000E-08
					 2.50000000E-01	 5.00000000E-01	 1.00000000E+00
					 2.50000000E-01	 1.00000000E+00	 1.00000000E+00
					-7.45058000E-09	 7.50000000E-01	-5.96046000E-08
					-7.45058000E-09	 5.00000000E-01	 5.00000000E-01
					-7.45058000E-09	 7.50000000E-01	 1.00000000E+00
					-7.45058000E-09	 1.00000000E+00	 5.00000000E-01
					-7.45058000E-09	-1.49012000E-08	-5.96046000E-08
					-7.45058000E-09	-1.49012000E-08	 1.00000000E+00
					 2.50000000E-01	-1.49012000E-08	-5.96046000E-08
					 2.50000000E-01	-1.49012000E-08	 1.00000000E+00
					-7.45058000E-09	 2.50000000E-01	-5.96046000E-08
					-7.45058000E-09	-1.49012000E-08	 5.00000000E-01
					-7.45058000E-09	 2.50000000E-01	 1.00000000E+00
					 1.00000000E+00	 5.00000000E-01	 2.00000000E+00
					 1.00000000E+00	 1.00000000E+00	 2.00000000E+00
					 5.00000000E-01	 5.00000000E-01	 2.00000000E+00
					 5.00000000E-01	 1.00000000E+00	 2.00000000E+00
					 1.00000000E+00	 5.00000000E-01	 1.50000000E+00
					 1.00000000E+00	 7.50000000E-01	 2.00000000E+00
					 1.00000000E+00	 1.00000000E+00	 1.50000000E+00
					 7.50000000E-01	 5.00000000E-01	 2.00000000E+00
					 7.50000000E-01	 1.00000000E+00	 2.00000000E+00
					 5.00000000E-01	 5.00000000E-01	 1.50000000E+00
					 5.00000000E-01	 7.50000000E-01	 2.00000000E+00
					 5.00000000E-01	 1.00000000E+00	 1.50000000E+00
					 1.00000000E+00	-1.49012000E-08	 2.00000000E+00
					 5.00000000E-01	-1.49012000E-08	 2.00000000E+00
					 1.00000000E+00	-1.49012000E-08	 1.50000000E+00
					 1.00000000E+00	 2.50000000E-01	 2.00000000E+00
					 7.50000000E-01	-1.49012000E-08	 2.00000000E+00
					 5.00000000E-01	-1.49012000E-08	 1.50000000E+00
					 5.00000000E-01	 2.50000000E-01	 2.00000000E+00
					-7.45058000E-09	 5.00000000E-01	 2.00000000E+00
					-7.45058000E-09	 1.00000000E+00	 2.00000000E+00
					 2.50000000E-01	 5.00000000E-01	 2.00000000E+00
					 2.50000000E-01	 1.00000000E+00	 2.00000000E+00
					-7.45058000E-09	 5.00000000E-01	 1.50000000E+00
					-7.45058000E-09	 7.50000000E-01	 2.00000000E+00
					-7.45058000E-09	 1.00000000E+00	 1.50000000E+00
					-7.45058000E-09	-1.49012000E-08	 2.00000000E+00
					 2.50000000E-01	-1.49012000E-08	 2.00000000E+00
					-7.45058000E-09	-1.49012000E-08	 1.50000000E+00
					-7.45058000E-09	 2.50000000E-01	 2.00000000E+00
					 1.00000000E+00	 5.00000000E-01	 3.00000000E+00
					 1.00000000E+00	 1.00000000E+00	 3.00000000E+00
					 5.00000000E-01	 5.00000000E-01	 3.00000000E+00
					 5.00000000E-01	 1.00000000E+00	 3.00000000E+00
					 1.00000000E+00	 5.00000000E-01	 2.50000000E+00
					 1.00000000E+00	 7.50000000E-01	 3.00000000E+00
					 1.00000000E+00	 1.00000000E+00	 2.50000000E+00
					 7.50000000E-01	 5.00000000E-01	 3.00000000E+00
					 7.50000000E-01	 1.00000000E+00	 3.00000000E+00
					 5.00000000E-01	 5.00000000E-01	 2.50000000E+00
					 5.00000000E-01	 7.50000000E-01	 3.00000000E+00
					 5.00000000E-01	 1.00000000E+00	 2.50000000E+00
					 1.00000000E+00	-1.49012000E-08	 3.00000000E+00
					 5.00000000E-01	-1.49012000E-08	 3.00000000E+00
					 1.00000000E+00	-1.49012000E-08	 2.50000000E+00
					 1.00000000E+00	 2.50000000E-01	 3.00000000E+00
					 7.50000000E-01	-1.49012000E-08	 3.00000000E+00
					 5.00000000E-01	-1.49012000E-08	 2.50000000E+00
					 5.00000000E-01	 2.50000000E-01	 3.00000000E+00
					-7.45058000E-09	 5.00000000E-01	 3.00000000E+00
					-7.45058000E-09	 1.00000000E+00	 3.00000000E+00
					 2.50000000E-01	 5.00000000E-01	 3.00000000E+00
					 2.50000000E-01	 1.00000000E+00	 3.00000000E+00
					-7.45058000E-09	 5.00000000E-01	 2.50000000E+00
					-7.45058000E-09	 7.50000000E-01	 3.00000000E+00
					-7.45058000E-09	 1.00000000E+00	 2.50000000E+00
					-7.45058000E-09	-1.49012000E-08	 3.00000000E+00
					 2.50000000E-01	-1.49012000E-08	 3.00000000E+00
					-7.45058000E-09	-1.49012000E-08	 2.50000000E+00
					-7.45058000E-09	 2.50000000E-01	 3.00000000E+00
					 1.00000000E+00	 5.00000000E-01	 4.00000000E+00
					 1.00000000E+00	 1.00000000E+00	 4.00000000E+00
					 5.00000000E-01	 5.00000000E-01	 4.00000000E+00
					 5.00000000E-01	 1.00000000E+00	 4.00000000E+00
					 1.00000000E+00	 5.00000000E-01	 3.50000000E+00
					 1.00000000E+00	 7.50000000E-01	 4.00000000E+00
					 1.00000000E+00	 1.00000000E+00	 3.50000000E+00
					 7.50000000E-01	 5.00000000E-01	 4.00000000E+00
					 7.50000000E-01	 1.00000000E+00	 4.00000000E+00
					 5.00000000E-01	 5.00000000E-01	 3.50000000E+00
					 5.00000000E-01	 7.50000000E-01	 4.00000000E+00
					 5.00000000E-01	 1.00000000E+00	 3.50000000E+00
					 1.00000000E+00	-1.49012000E-08	 4.00000000E+00
					 5.00000000E-01	-1.49012000E-08	 4.00000000E+00
					 1.00000000E+00	-1.49012000E-08	 3.50000000E+00
					 1.00000000E+00	 2.50000000E-01	 4.00000000E+00
					 7.50000000E-01	-1.49012000E-08	 4.00000000E+00
					 5.00000000E-01	-1.49012000E-08	 3.50000000E+00
					 5.00000000E-01	 2.50000000E-01	 4.00000000E+00
					-7.45058000E-09	 5.00000000E-01	 4.00000000E+00
					-7.45058000E-09	 1.00000000E+00	 4.00000000E+00
					 2.50000000E-01	 5.00000000E-01	 4.00000000E+00
					 2.50000000E-01	 1.00000000E+00	 4.00000000E+00
					-7.45058000E-09	 5.00000000E-01	 3.50000000E+00
					-7.45058000E-09	 7.50000000E-01	 4.00000000E+00
					-7.45058000E-09	 1.00000000E+00	 3.50000000E+00
					-7.45058000E-09	-1.49012000E-08	 4.00000000E+00
					 2.50000000E-01	-1.49012000E-08	 4.00000000E+00
					-7.45058000E-09	-1.49012000E-08	 3.50000000E+00
					-7.45058000E-09	 2.50000000E-01	 4.00000000E+00
					 1.00000000E+00	 5.00000000E-01	 5.00000000E+00
					 1.00000000E+00	 1.00000000E+00	 5.00000000E+00
					 5.00000000E-01	 5.00000000E-01	 5.00000000E+00
					 5.00000000E-01	 1.00000000E+00	 5.00000000E+00
					 1.00000000E+00	 5.00000000E-01	 4.50000000E+00
					 1.00000000E+00	 7.50000000E-01	 5.00000000E+00
					 1.00000000E+00	 1.00000000E+00	 4.50000000E+00
					 7.50000000E-01	 5.00000000E-01	 5.00000000E+00
					 7.50000000E-01	 1.00000000E+00	 5.00000000E+00
					 5.00000000E-01	 5.00000000E-01	 4.50000000E+00
					 5.00000000E-01	 7.50000000E-01	 5.00000000E+00
					 5.00000000E-01	 1.00000000E+00	 4.50000000E+00
					 1.00000000E+00	-1.49012000E-08	 5.00000000E+00
					 5.00000000E-01	-1.49012000E-08	 5.00000000E+00
					 1.00000000E+00	-1.49012000E-08	 4.50000000E+00
					 1.00000000E+00	 2.50000000E-01	 5.00000000E+00
					 7.50000000E-01	-1.49012000E-08	 5.00000000E+00
					 5.00000000E-01	-1.49012000E-08	 4.50000000E+00
					 5.00000000E-01	 2.50000000E-01	 5.00000000E+00
					-7.45058000E-09	 5.00000000E-01	 5.00000000E+00
					-7.45058000E-09	 1.00000000E+00	 5.00000000E+00
					 2.50000000E-01	 5.00000000E-01	 5.00000000E+00
					 2.50000000E-01	 1.00000000E+00	 5.00000000E+00
					-7.45058000E-09	 5.00000000E-01	 4.50000000E+00
					-7.45058000E-09	 7.50000000E-01	 5.00000000E+00
					-7.45058000E-09	 1.00000000E+00	 4.50000000E+00
					-7.45058000E-09	-1.49012000E-08	 5.00000000E+00
					 2.50000000E-01	-1.49012000E-08	 5.00000000E+00
					-7.45058000E-09	-1.49012000E-08	 4.50000000E+00
					-7.45058000E-09	 2.50000000E-01	 5.00000000E+00
					 1.00000000E+00	 5.00000000E-01	 6.00000000E+00
					 1.00000000E+00	 1.00000000E+00	 6.00000000E+00
					 5.00000000E-01	 5.00000000E-01	 6.00000000E+00
					 5.00000000E-01	 1.00000000E+00	 6.00000000E+00
					 1.00000000E+00	 5.00000000E-01	 5.50000000E+00
					 1.00000000E+00	 7.50000000E-01	 6.00000000E+00
					 1.00000000E+00	 1.00000000E+00	 5.50000000E+00
					 7.50000000E-01	 5.00000000E-01	 6.00000000E+00
					 7.50000000E-01	 1.00000000E+00	 6.00000000E+00
					 5.00000000E-01	 5.00000000E-01	 5.50000000E+00
					 5.00000000E-01	 7.50000000E-01	 6.00000000E+00
					 5.00000000E-01	 1.00000000E+00	 5.50000000E+00
					 1.00000000E+00	-1.49012000E-08	 6.00000000E+00
[...]
			<PointData>
				<DataArray type="Float32" Name="U" NumberOfComponents="3" ComponentName0="D1" ComponentName1="D2" ComponentName2="D3" format="ascii">
					 0.00000000E+00	 0.00000000E+00	 0.00000000E+00
					 0.00000000E+00	 0.00000000E+00	 0.00000000E+00
					 1.90810000E-06	 6.06936000E-03	-9.56301000E-05
					-7.42145000E-04	 6.30354000E-03	-4.58955000E-03
					 0.00000000E+00	 0.00000000E+00	 0.00000000E+00
					 0.00000000E+00	 0.00000000E+00	 0.00000000E+00
					-8.63377000E-06	 5.01481000E-03	-9.27363000E-05
					-1.34914000E-03	 5.27870000E-03	-4.64243000E-03
					 0.00000000E+00	 0.00000000E+00	 0.00000000E+00
					 1.01296000E-05	 1.67489000E-03	-3.95282000E-05
					-3.73067000E-04	 6.08107000E-03	-2.16107000E-03
					 4.95806000E-05	 2.02769000E-03	-2.31057000E-03
					 0.00000000E+00	 0.00000000E+00	 0.00000000E+00
					 0.00000000E+00	 0.00000000E+00	 0.00000000E+00
					-3.46706000E-06	 5.64054000E-03	-9.53320000E-05
					-1.04851000E-03	 5.89321000E-03	-4.74134000E-03
					 0.00000000E+00	 0.00000000E+00	 0.00000000E+00
					-3.34131000E-06	 1.31257000E-03	-3.80293000E-05
					-6.77354000E-04	 5.03626000E-03	-2.30690000E-03
					-6.67488000E-04	 1.69644000E-03	-2.24497000E-03
					 0.00000000E+00	 0.00000000E+00	 0.00000000E+00
					 7.39783000E-04	 6.33026000E-03	 4.39412000E-03
					 0.00000000E+00	 0.00000000E+00	 0.00000000E+00
					 1.33007000E-03	 5.30973000E-03	 4.45082000E-03
					 0.00000000E+00	 0.00000000E+00	 0.00000000E+00
					-3.29869000E-05	 2.02049000E-03	 2.22722000E-03
					 3.74459000E-04	 6.09218000E-03	 1.96997000E-03
					 0.00000000E+00	 0.00000000E+00	 0.00000000E+00
					 1.03818000E-03	 5.92485000E-03	 4.54421000E-03
					 0.00000000E+00	 0.00000000E+00	 0.00000000E+00
					 6.59506000E-04	 1.69098000E-03	 2.16446000E-03
					 6.59562000E-04	 5.05206000E-03	 2.11997000E-03
					 0.00000000E+00	 0.00000000E+00	 0.00000000E+00
					 0.00000000E+00	 0.00000000E+00	 0.00000000E+00
					-1.75733000E-05	 3.39002000E-03	-8.22258000E-05
					-1.94150000E-03	 3.63364000E-03	-4.57681000E-03
					 0.00000000E+00	 0.00000000E+00	 0.00000000E+00
					 0.00000000E+00	 0.00000000E+00	 0.00000000E+00
					-1.34804000E-05	 4.30348000E-03	-8.80286000E-05
					-1.64153000E-03	 4.55533000E-03	-4.49013000E-03
					 0.00000000E+00	 0.00000000E+00	 0.00000000E+00
					-1.58160000E-05	 3.47965000E-04	-3.67317000E-05
					-9.81013000E-04	 3.40584000E-03	-2.39147000E-03
					-1.33181000E-03	 7.50047000E-04	-2.30854000E-03
					 0.00000000E+00	 0.00000000E+00	 0.00000000E+00
					 1.90958000E-03	 3.66680000E-03	 4.40621000E-03
					 0.00000000E+00	 0.00000000E+00	 0.00000000E+00
					 1.61464000E-03	 4.58670000E-03	 4.30905000E-03
					 0.00000000E+00	 0.00000000E+00	 0.00000000E+00
					 1.30183000E-03	 7.46893000E-04	 2.22881000E-03
					 9.47229000E-04	 3.42424000E-03	 2.22494000E-03
					-3.35463000E-05	 2.08693000E-02	-2.68242000E-04
					-2.26618000E-03	 2.09596000E-02	-7.94077000E-03
					-3.65527000E-05	 1.85016000E-02	-2.48136000E-04
					-2.54751000E-03	 1.85829000E-02	-7.96142000E-03
					-1.16732000E-05	 1.26312000E-02	-1.71134000E-04
					-1.14664000E-03	 2.08890000E-02	-3.92814000E-03
					-1.52616000E-03	 1.28420000E-02	-6.52019000E-03
					-3.51693000E-05	 1.97173000E-02	-2.59316000E-04
					-2.40716000E-03	 1.97973000E-02	-8.04262000E-03
					-1.92037000E-05	 1.08890000E-02	-1.60671000E-04
					-1.29334000E-03	 1.85153000E-02	-4.01456000E-03
					-1.99742000E-03	 1.10888000E-02	-6.54823000E-03
					 2.19547000E-03	 2.10730000E-02	 7.39884000E-03
					 2.47250000E-03	 1.87022000E-02	 7.45955000E-03
					 1.49757000E-03	 1.29114000E-02	 6.16990000E-03
					 1.07849000E-03	 2.09399000E-02	 3.39061000E-03
					 2.33392000E-03	 1.99171000E-02	 7.51840000E-03
					 1.95707000E-03	 1.11645000E-02	 6.21865000E-03
					 1.21979000E-03	 1.85725000E-02	 3.51703000E-03
					-3.79800000E-05	 1.58495000E-02	-2.22642000E-04
					-2.84710000E-03	 1.59161000E-02	-7.89461000E-03
					-3.75056000E-05	 1.72044000E-02	-2.35848000E-04
					-2.69903000E-03	 1.72834000E-02	-7.89132000E-03
					-2.50647000E-05	 8.67666000E-03	-1.42694000E-04
					-1.43979000E-03	 1.58533000E-02	-4.00971000E-03
					-2.49034000E-03	 8.86014000E-03	-6.49133000E-03
					 2.77109000E-03	 1.60372000E-02	 7.44445000E-03
					 2.62313000E-03	 1.74025000E-02	 7.41445000E-03
					 2.44176000E-03	 8.93743000E-03	 6.19820000E-03
					 1.36406000E-03	 1.59128000E-02	 3.56339000E-03
					-7.87036000E-05	 3.89717000E-02	-4.86347000E-04
					-3.30166000E-03	 3.88992000E-02	-8.82402000E-03
					-7.72366000E-05	 3.57887000E-02	-4.46734000E-04
					-3.25001000E-03	 3.56979000E-02	-8.80178000E-03
					-5.75832000E-05	 2.99244000E-02	-3.77331000E-04
					-1.68539000E-03	 3.89437000E-02	-4.58567000E-03
					-2.88263000E-03	 2.99308000E-02	-8.63265000E-03
					-7.79964000E-05	 3.73760000E-02	-4.66495000E-04
					-3.27624000E-03	 3.72887000E-02	-8.84997000E-03
					-5.78898000E-05	 2.70677000E-02	-3.46743000E-04
					-1.66419000E-03	 3.57516000E-02	-4.59031000E-03
					-2.96885000E-03	 2.70556000E-02	-8.63910000E-03
					 3.14222000E-03	 3.90438000E-02	 7.85118000E-03
					 3.09535000E-03	 3.58456000E-02	 7.90880000E-03
					 2.76464000E-03	 3.00677000E-02	 7.87539000E-03
					 1.52742000E-03	 3.90139000E-02	 3.61259000E-03
					 3.11909000E-03	 3.74364000E-02	 7.91736000E-03
					 2.85203000E-03	 2.71973000E-02	 7.94331000E-03
					 1.50974000E-03	 3.58246000E-02	 3.69671000E-03
					-7.43662000E-05	 3.26268000E-02	-4.07248000E-04
					-3.21390000E-03	 3.25366000E-02	-8.74436000E-03
					-7.62223000E-05	 3.42023000E-02	-4.26825000E-04
					-3.23245000E-03	 3.41107000E-02	-8.75277000E-03
					-5.68382000E-05	 2.41039000E-02	-3.14309000E-04
					-1.64646000E-03	 3.25885000E-02	-4.56357000E-03
					-3.07068000E-03	 2.40912000E-02	-8.56930000E-03
					 3.06610000E-03	 3.26838000E-02	 7.93045000E-03
					 3.08068000E-03	 3.42579000E-02	 7.89968000E-03
					 2.95734000E-03	 2.42328000E-02	 7.93815000E-03
					 1.49802000E-03	 3.26617000E-02	 3.74900000E-03
					-9.23505000E-05	 5.54046000E-02	-6.73807000E-04
					-3.39809000E-03	 5.53271000E-02	-8.60680000E-03
					-8.84411000E-05	 5.21331000E-02	-6.25447000E-04
					-3.34163000E-03	 5.20451000E-02	-8.55222000E-03
					-9.01352000E-05	 4.74565000E-02	-5.85801000E-04
					-1.74275000E-03	 5.53725000E-02	-4.67757000E-03
					-3.45326000E-03	 4.73802000E-02	-8.72912000E-03
					-9.02539000E-05	 5.37637000E-02	-6.49088000E-04
					-3.36972000E-03	 5.36782000E-02	-8.55669000E-03
					-8.71378000E-05	 4.41426000E-02	-5.39601000E-04
					-1.71594000E-03	 5.20958000E-02	-4.60511000E-03
					-3.37466000E-03	 4.40491000E-02	-8.68236000E-03
					 3.21224000E-03	 5.54612000E-02	 7.25982000E-03
					 3.16444000E-03	 5.21799000E-02	 7.30220000E-03
					 3.27124000E-03	 4.75202000E-02	 7.55757000E-03
					 1.55761000E-03	 5.54407000E-02	 3.32986000E-03
					 3.18833000E-03	 5.38121000E-02	 7.25936000E-03
					 3.20011000E-03	 4.41911000E-02	 7.60369000E-03
					 1.53890000E-03	 5.21638000E-02	 3.35436000E-03
					-8.45758000E-05	 4.88995000E-02	-5.76647000E-04
					-3.30044000E-03	 4.88066000E-02	-8.50941000E-03
					-8.65537000E-05	 5.05095000E-02	-6.01639000E-04
					-3.32201000E-03	 5.04206000E-02	-8.54307000E-03
					-8.34356000E-05	 4.08824000E-02	-4.93478000E-04
					-1.69192000E-03	 4.88593000E-02	-4.54626000E-03
					-3.31544000E-03	 4.07854000E-02	-8.63643000E-03
					 3.13203000E-03	 4.89410000E-02	 7.35708000E-03
					 3.14922000E-03	 5.05558000E-02	 7.34075000E-03
					 3.14936000E-03	 4.09274000E-02	 7.65012000E-03
					 1.52294000E-03	 4.89266000E-02	 3.39319000E-03
					-9.48446000E-05	 7.05154000E-02	-8.28709000E-04
					-2.90811000E-03	 7.04666000E-02	-8.72049000E-03
					-9.26236000E-05	 6.76918000E-02	-7.84606000E-04
					-2.93030000E-03	 6.76399000E-02	-8.66968000E-03
					-9.28622000E-05	 6.30105000E-02	-7.51947000E-04
					-1.50106000E-03	 7.04867000E-02	-4.83320000E-03
					-3.19152000E-03	 6.29473000E-02	-8.61115000E-03
					-9.39717000E-05	 6.91071000E-02	-8.07315000E-04
					-2.91974000E-03	 6.90571000E-02	-8.64987000E-03
					-8.94864000E-05	 5.99212000E-02	-7.06225000E-04
					-1.51134000E-03	 6.76621000E-02	-4.74047000E-03
					-3.17724000E-03	 5.98515000E-02	-8.55788000E-03
					 2.71635000E-03	 7.05931000E-02	 7.06211000E-03
					 2.74276000E-03	 6.77700000E-02	 7.10000000E-03
					 3.00461000E-03	 6.30775000E-02	 7.10713000E-03
					 1.31079000E-03	 7.05517000E-02	 3.17566000E-03
					 2.72964000E-03	 6.91840000E-02	 7.03443000E-03
					 2.99719000E-03	 5.99829000E-02	 7.14595000E-03
					 1.32547000E-03	 6.77276000E-02	 3.17115000E-03
					-8.88140000E-05	 6.48430000E-02	-7.39127000E-04
					-2.95418000E-03	 6.47869000E-02	-8.63040000E-03
					-9.08698000E-05	 6.62705000E-02	-7.61558000E-04
					-2.94229000E-03	 6.62166000E-02	-8.68903000E-03
					-8.55033000E-05	 5.68368000E-02	-6.59534000E-04
					-1.52070000E-03	 6.48116000E-02	-4.65838000E-03
					-3.17375000E-03	 5.67609000E-02	-8.51799000E-03
					 2.77419000E-03	 6.49215000E-02	 7.15218000E-03
					 2.75813000E-03	 6.63501000E-02	 7.16586000E-03
					 3.00218000E-03	 5.68936000E-02	 7.20003000E-03
					 1.34250000E-03	 6.48783000E-02	 3.17999000E-03
					-7.89316000E-05	 8.58855000E-02	-9.93053000E-04
					-2.29610000E-03	 8.58587000E-02	-9.28977000E-03
					-7.84939000E-05	 8.36151000E-02	-9.42932000E-04
					-2.39703000E-03	 8.35933000E-02	-9.23412000E-03
					-9.14823000E-05	 7.80807000E-02	-9.09745000E-04
					-1.18931000E-03	 8.58581000E-02	-5.18790000E-03
					-2.59157000E-03	 7.80445000E-02	-8.95015000E-03
					-7.90177000E-05	 8.47618000E-02	-9.67656000E-04
					-2.34683000E-03	 8.47406000E-02	-9.22576000E-03
					-9.01722000E-05	 7.55497000E-02	-8.62775000E-04
					-1.23704000E-03	 8.35907000E-02	-5.09992000E-03
					-2.65198000E-03	 7.55142000E-02	-8.89550000E-03
					 2.13542000E-03	 8.59934000E-02	 7.30455000E-03
					 2.23764000E-03	 8.37326000E-02	 7.34877000E-03
					 2.40582000E-03	 7.81714000E-02	 7.13019000E-03
					 1.03085000E-03	 8.59267000E-02	 3.20214000E-03
					 2.18601000E-03	 8.48768000E-02	 7.29104000E-03
					 2.46897000E-03	 7.56461000E-02	 7.16921000E-03
					 1.07939000E-03	 8.36605000E-02	 3.21429000E-03
					-7.63140000E-05	 8.12536000E-02	-8.92050000E-04
					-2.48638000E-03	 8.12323000E-02	-9.18925000E-03
					-7.76338000E-05	 8.24475000E-02	-9.18104000E-04
					-2.44130000E-03	 8.24242000E-02	-9.24043000E-03
					-8.69467000E-05	 7.29607000E-02	-8.14450000E-04
					-1.28164000E-03	 8.12308000E-02	-5.02296000E-03
					-2.70568000E-03	 7.29245000E-02	-8.85555000E-03
					 2.33177000E-03	 8.13757000E-02	 7.40546000E-03
					 2.28395000E-03	 8.25666000E-02	 7.40446000E-03
					 2.52910000E-03	 7.30618000E-02	 7.22570000E-03
					 1.12844000E-03	 8.13015000E-02	 3.23929000E-03
					-4.72647000E-05	 1.03042000E-01	-1.16754000E-03
					-2.09323000E-03	 1.02997000E-01	-1.01682000E-02
					-4.70778000E-05	 1.00952000E-01	-1.11539000E-03
					-2.18363000E-03	 1.00910000E-01	-1.01186000E-02
					-6.24848000E-05	 9.41724000E-02	-1.07816000E-03
					-1.07186000E-03	 1.03008000E-01	-5.64171000E-03
					-2.11274000E-03	 9.41336000E-02	-9.73230000E-03
					-4.67850000E-05	 1.02007000E-01	-1.14161000E-03
					-2.13792000E-03	 1.01965000E-01	-1.01556000E-02
					-6.28678000E-05	 9.20611000E-02	-1.02707000E-03
					-1.11581000E-03	 1.00919000E-01	-5.59969000E-03
					-2.22982000E-03	 9.20313000E-02	-9.68113000E-03
					 1.99578000E-03	 1.03163000E-01	 7.83117000E-03
					 2.08591000E-03	 1.01080000E-01	 7.88584000E-03
					 1.98440000E-03	 9.42834000E-02	 7.57731000E-03
					 9.76415000E-04	 1.03090000E-01	 3.30564000E-03
					 2.04114000E-03	 1.02134000E-01	 7.87050000E-03
					 2.10127000E-03	 9.21862000E-02	 7.62824000E-03
					 1.02044000E-03	 1.01005000E-01	 3.36805000E-03
					-4.61686000E-05	 9.87775000E-02	-1.05921000E-03
					-2.26565000E-03	 9.87346000E-02	-1.00497000E-02
					-4.70965000E-05	 9.98776000E-02	-1.08786000E-03
					-2.22570000E-03	 9.98340000E-02	-1.00824000E-02
					-6.21090000E-05	 8.98470000E-02	-9.74994000E-04
					-1.15643000E-03	 9.87446000E-02	-5.53865000E-03
					-2.32822000E-03	 8.98210000E-02	-9.62718000E-03
					 2.16986000E-03	 9.89094000E-02	 7.92929000E-03
					 2.12766000E-03	 1.00006000E-01	 7.90515000E-03
					 2.20234000E-03	 8.99789000E-02	 7.67860000E-03
					 1.06310000E-03	 9.88329000E-02	 3.41892000E-03
					-2.20577000E-05	 1.21703000E-01	-1.34927000E-03
					-2.23730000E-03	 1.21637000E-01	-1.06140000E-02
					-9.71763000E-06	 1.19477000E-01	-1.29451000E-03
					-2.22745000E-03	 1.19403000E-01	-1.05505000E-02
					-3.35693000E-05	 1.12347000E-01	-1.25959000E-03
					-1.12861000E-03	 1.21672000E-01	-5.96236000E-03
					-2.17775000E-03	 1.12279000E-01	-1.04598000E-02
					-1.67968000E-05	 1.20594000E-01	-1.32303000E-03
					-2.23170000E-03	 1.20523000E-01	-1.05966000E-02
					-2.92170000E-05	 1.10181000E-01	-1.20606000E-03
					-1.11398000E-03	 1.19443000E-01	-5.91247000E-03
					-2.21919000E-03	 1.10112000E-01	-1.04034000E-02
					 2.19921000E-03	 1.21809000E-01	 7.90610000E-03
					 2.20571000E-03	 1.19568000E-01	 7.95131000E-03
					 2.11268000E-03	 1.12455000E-01	 7.93345000E-03
					 1.08595000E-03	 1.21756000E-01	 3.26062000E-03
					 2.20089000E-03	 1.20691000E-01	 7.94152000E-03
					 2.15787000E-03	 1.10287000E-01	 7.98362000E-03
					 1.09358000E-03	 1.19523000E-01	 3.32051000E-03
					 3.00100000E-06	 1.17233000E-01	-1.22774000E-03
					-2.22246000E-03	 1.17149000E-01	-1.04539000E-02
					-2.41987000E-06	 1.18350000E-01	-1.26263000E-03
					-2.22552000E-03	 1.18273000E-01	-1.04988000E-02
					-2.47168000E-05	 1.07973000E-01	-1.14314000E-03
					-1.10532000E-03	 1.17193000E-01	-5.83358000E-03
					-2.25286000E-03	 1.07899000E-01	-1.03166000E-02
					 2.21802000E-03	 1.17322000E-01	 7.98704000E-03
					 2.21319000E-03	 1.18440000E-01	 7.96266000E-03
					 2.19566000E-03	 1.08082000E-01	 8.02209000E-03
					 1.10857000E-03	 1.17279000E-01	 3.37468000E-03
					 0.00000000E+00	 0.00000000E+00	 0.00000000E+00
					 0.00000000E+00	 0.00000000E+00	 0.00000000E+00
					-6.20650000E-06	-5.60688000E-03	 3.64651000E-05
					-5.65960000E-04	-5.94758000E-03	 5.24434000E-03
					 0.00000000E+00	 0.00000000E+00	 0.00000000E+00
					 0.00000000E+00	 0.00000000E+00	 0.00000000E+00
					 2.91478000E-06	-5.80902000E-03	 3.07004000E-05
					 1.33199000E-04	-6.17950000E-03	 5.30016000E-03
					 0.00000000E+00	 0.00000000E+00	 0.00000000E+00
					-3.92254000E-06	-1.25873000E-03	 2.03453000E-05
					-2.85134000E-04	-5.65410000E-03	 2.56838000E-03
					-7.12485000E-04	-1.71234000E-03	 2.65157000E-03
					 0.00000000E+00	 0.00000000E+00	 0.00000000E+00
					 0.00000000E+00	 0.00000000E+00	 0.00000000E+00
					-1.11790000E-06	-5.82432000E-03	 3.26646000E-05
					-2.11475000E-04	-6.18180000E-03	 5.28034000E-03
					 0.00000000E+00	 0.00000000E+00	 0.00000000E+00
					 1.93049000E-06	-1.52503000E-03	 1.67068000E-05
					 6.68718000E-05	-5.86673000E-03	 2.59873000E-03
					 8.48468000E-05	-1.98794000E-03	 2.57381000E-03
					 0.00000000E+00	 0.00000000E+00	 0.00000000E+00
					 5.48546000E-04	-5.86519000E-03	-5.17853000E-03
					 0.00000000E+00	 0.00000000E+00	 0.00000000E+00
					-1.27034000E-04	-6.09277000E-03	-5.24777000E-03
					 0.00000000E+00	 0.00000000E+00	 0.00000000E+00
					 7.00696000E-04	-1.67336000E-03	-2.60917000E-03
					 2.71143000E-04	-5.61362000E-03	-2.49765000E-03
					 0.00000000E+00	 0.00000000E+00	 0.00000000E+00
					 2.06761000E-04	-6.09506000E-03	-5.22364000E-03
					 0.00000000E+00	 0.00000000E+00	 0.00000000E+00
					-8.09350000E-05	-1.94859000E-03	-2.53785000E-03
					-6.23168000E-05	-5.82311000E-03	-2.54122000E-03
					 0.00000000E+00	 0.00000000E+00	 0.00000000E+00
					 0.00000000E+00	 0.00000000E+00	 0.00000000E+00
					 1.10906000E-05	-5.34535000E-03	 3.44134000E-05
					 8.33853000E-04	-5.68616000E-03	 5.24251000E-03
					 0.00000000E+00	 0.00000000E+00	 0.00000000E+00
					 0.00000000E+00	 0.00000000E+00	 0.00000000E+00
					 6.83898000E-06	-5.69398000E-03	 3.00911000E-05
					 4.78632000E-04	-6.04439000E-03	 5.26292000E-03
					 0.00000000E+00	 0.00000000E+00	 0.00000000E+00
					 7.53443000E-06	-1.09222000E-03	 2.11116000E-05
					 4.22504000E-04	-5.39371000E-03	 2.58056000E-03
					 8.76249000E-04	-1.55194000E-03	 2.65196000E-03
					 0.00000000E+00	 0.00000000E+00	 0.00000000E+00
					-8.10203000E-04	-5.59951000E-03	-5.18171000E-03
					 0.00000000E+00	 0.00000000E+00	 0.00000000E+00
					-4.64855000E-04	-5.96302000E-03	-5.21077000E-03
					 0.00000000E+00	 0.00000000E+00	 0.00000000E+00
					-8.60052000E-04	-1.51043000E-03	-2.60892000E-03
					-3.99319000E-04	-5.35037000E-03	-2.51534000E-03
					-2.62931000E-05	-2.12360000E-02	 1.31539000E-05
					-4.38370000E-04	-2.15182000E-02	 9.00299000E-03
					-8.21952000E-06	-2.14747000E-02	-1.12943000E-05
					-7.14060000E-05	-2.17453000E-02	 9.02397000E-03
					-1.19587000E-05	-1.24249000E-02	 3.42549000E-05
					-2.34890000E-04	-2.13387000E-02	 4.41704000E-03
					-4.76081000E-04	-1.27851000E-02	 7.42018000E-03
					-1.71581000E-05	-2.13945000E-02	-7.77931000E-07
					-2.53736000E-04	-2.16660000E-02	 9.00997000E-03
					-1.94479000E-07	-1.26106000E-02	 2.09638000E-05
					-3.32274000E-05	-2.15705000E-02	 4.41022000E-03
					 9.48573000E-05	-1.29627000E-02	 7.44818000E-03
					 3.88873000E-04	-2.13130000E-02	-8.98317000E-03
					 5.27435000E-05	-2.15512000E-02	-9.05256000E-03
					 4.49273000E-04	-1.26417000E-02	-7.36164000E-03
					 1.82629000E-04	-2.12390000E-02	-4.39325000E-03
					 2.21853000E-04	-2.14702000E-02	-9.01490000E-03
					-9.47565000E-05	-1.28216000E-02	-7.41680000E-03
					 2.08421000E-05	-2.14764000E-02	-4.43145000E-03
					 9.69047000E-07	-2.13599000E-02	-2.56552000E-05
					 3.31103000E-04	-2.15955000E-02	 8.96185000E-03
					-3.35750000E-06	-2.14509000E-02	-1.90711000E-05
					 1.32005000E-04	-2.17417000E-02	 9.05208000E-03
					 8.83910000E-06	-1.22370000E-02	 1.95488000E-05
					 1.55495000E-04	-2.14340000E-02	 4.31736000E-03
					 6.89083000E-04	-1.25657000E-02	 7.40500000E-03
					-3.01027000E-04	-2.14272000E-02	-9.02069000E-03
					-1.24880000E-04	-2.15306000E-02	-9.10075000E-03
					-6.58311000E-04	-1.24370000E-02	-7.37469000E-03
					-1.45742000E-04	-2.13541000E-02	-4.36579000E-03
					-7.86520000E-05	-4.11887000E-02	-3.85786000E-05
					-8.61196000E-04	-4.12746000E-02	 9.92055000E-03
					-5.42788000E-05	-4.19618000E-02	-9.42470000E-05
					-8.41239000E-04	-4.21339000E-02	 9.88612000E-03
					-4.53692000E-05	-3.11281000E-02	-1.48471000E-05
					-4.70055000E-04	-4.12359000E-02	 4.95049000E-03
					-5.40455000E-04	-3.13380000E-02	 9.75867000E-03
					-6.40187000E-05	-4.15765000E-02	-6.12095000E-05
					-8.52575000E-04	-4.17138000E-02	 9.83884000E-03
					-2.50491000E-05	-3.15592000E-02	-5.44679000E-05
					-4.72126000E-04	-4.20572000E-02	 4.82730000E-03
					-3.81269000E-04	-3.17609000E-02	 9.76470000E-03
					 6.73325000E-04	-4.10683000E-02	-9.98087000E-03
					 7.38341000E-04	-4.18494000E-02	-1.00924000E-02
					 4.46729000E-04	-3.11049000E-02	-9.78884000E-03
					 3.01756000E-04	-4.11344000E-02	-5.01681000E-03
					 7.04915000E-04	-4.14493000E-02	-9.97236000E-03
					 3.38360000E-04	-3.15220000E-02	-9.87609000E-03
					 3.41708000E-04	-4.19179000E-02	-5.03574000E-03
					-4.51809000E-05	-4.27511000E-02	-1.52533000E-04
					-9.15907000E-04	-4.30328000E-02	 9.80299000E-03
					-4.81144000E-05	-4.23663000E-02	-1.27016000E-04
					-8.79283000E-04	-4.24635000E-02	 9.94134000E-03
					-5.11311000E-06	-3.18407000E-02	-8.96273000E-05
					-4.48178000E-04	-4.29038000E-02	 4.65436000E-03
					-2.40888000E-04	-3.20580000E-02	 9.68548000E-03
					 7.90817000E-04	-4.26763000E-02	-1.01539000E-02
					 7.65644000E-04	-4.22513000E-02	-1.02155000E-02
					 1.98463000E-04	-3.18036000E-02	-9.87137000E-03
					 3.61587000E-04	-4.27338000E-02	-5.00357000E-03
					-1.62758000E-04	-5.97500000E-02	-4.95588000E-05
					-2.03762000E-03	-5.96943000E-02	 9.19826000E-03