# vtk DataFile Version 3.0

ASCII
DATASET UNSTRUCTURED_GRID

POINTS 522 double
	 1.00000000E+00	 1.00000000E+00	-5.96046000E-08
	 1.00000000E+00	 5.00000000E-01	-5.96046000E-08
	 1.00000000E+00	 5.00000000E-01	 1.00000000E+00
	 1.00000000E+00	 1.00000000E+00	 1.00000000E+00
	 5.00000000E-01	 1.00000000E+00	-5.96046000E-08
	 5.00000000E-01	 5.00000000E-01	-5.96046000E-08
	 5.00000000E-01	 5.00000000E-01	 1.00000000E+00
	 5.00000000E-01	 1.00000000E+00	 1.00000000E+00
	 1.00000000E+00	 7.50000000E-01	-5.96046000E-08
	 1.00000000E+00	 5.00000000E-01	 5.00000000E-01
	 1.00000000E+00	 7.50000000E-01	 1.00000000E+00
	 1.00000000E+00	 1.00000000E+00	 5.00000000E-01
	 7.50000000E-01	 1.00000000E+00	-5.96046000E-08
	 7.50000000E-01	 5.00000000E-01	-5.96046000E-08
	 7.50000000E-01	 5.00000000E-01	 1.00000000E+00
	 7.50000000E-01	 1.00000000E+00	 1.00000000E+00
	 5.00000000E-01	 7.50000000E-01	-5.96046000E-08
	 5.00000000E-01	 5.00000000E-01	 5.00000000E-01
	 5.00000000E-01	 7.50000000E-01	 1.00000000E+00
	 5.00000000E-01	 1.00000000E+00	 5.00000000E-01
	 1.00000000E+00	-1.49012000E-08	-5.96046000E-08
	 1.00000000E+00	-1.49012000E-08	 1.00000000E+00
	 5.00000000E-01	-1.49012000E-08	-5.96046000E-08
	 5.00000000E-01	-1.49012000E-08	 1.00000000E+00
	 1.00000000E+00	 2.50000000E-01	-5.96046000E-08
	 1.00000000E+00	-1.49012000E-08	 5.00000000E-01
	 1.00000000E+00	 2.50000000E-01	 1.00000000E+00
	 7.50000000E-01	-1.49012000E-08	-5.96046000E-08
	 7.50000000E-01	-1.49012000E-08	 1.00000000E+00
	 5.00000000E-01	 2.50000000E-01	-5.96046000E-08
	 5.00000000E-01	-1.49012000E-08	 5.00000000E-01
	 5.00000000E-01	 2.50000000E-01	 1.00000000E+00
	-7.45058000E-09	 1.00000000E+00	-5.96046000E-08
	-7.45058000E-09	 5.00000000E-01	-5.96046000E-08
	-7.45058000E-09	 5.00000000E-01	 1.00000000E+00
	-7.45058000E-09	 1.00000000E+00	 1.00000000E+00
	 2.50000000E-01	 1.00000000E+00	-5.96046000E-08
	 2.50000000E-01	 5.00000000E-01	-5.96046000E-08
	 2.50000000E-01	 5.00000000E-01	 1.00000000E+00
	 2.50000000E-01	 1.00000000E+00	 1.00000000E+00
	-7.45058000E-09	 7.50000000E-01	-5.96046000E-08
	-7.45058000E-09	 5.00000000E-01	 5.00000000E-01
	-7.45058000E-09	 7.50000000E-01	 1.00000000E+00
	-7.45058000E-09	 1.00000000E+00	 5.00000000E-01
	-7.45058000E-09	-1.49012000E-08	-5.96046000E-08
	-7.45058000E-09	-1.49012000E-08	 1.00000000E+00
	 2.50000000E-01	-1.49012000E-08	-5.96046000E-08
	 2.50000000E-01	-1.49012000E-08	 1.00000000E+00
	-7.45058000E-09	 2.50000000E-01	-5.96046000E-08
	-7.45058000E-09	-1.49012000E-08	 5.00000000E-01
	-7.45058000E-09	 2.50000000E-01	 1.00000000E+00
	 1.00000000E+00	 5.00000000E-01	 2.00000000E+00
	 1.00000000E+00	 1.00000000E+00	 2.00000000E+00
	 5.00000000E-01	 5.00000000E-01	 2.00000000E+00
	 5.00000000E-01	 1.00000000E+00	 2.00000000E+00
	 1.00000000E+00	 5.00000000E-01	 1.50000000E+00
	 1.00000000E+00	 7.50000000E-01	 2.00000000E+00
	 1.00000000E+00	 1.00000000E+00	 1.50000000E+00
	 7.50000000E-01	 5.00000000E-01	 2.00000000E+00
	 7.50000000E-01	 1.00000000E+00	 2.00000000E+00
	 5.00000000E-01	 5.00000000E-01	 1.50000000E+00
	 5.00000000E-01	 7.50000000E-01	 2.00000000E+00
	 5.00000000E-01	 1.00000000E+00	 1.50000000E+00
	 1.00000000E+00	-1.49012000E-08	 2.00000000E+00
	 5.00000000E-01	-1.49012000E-08	 2.00000000E+00
	 1.00000000E+00	-1.49012000E-08	 1.50000000E+00
	 1.00000000E+00	 2.50000000E-01	 2.00000000E+00
	 7.50000000E-01	-1.49012000E-08	 2.00000000E+00
	 5.00000000E-01	-1.49012000E-08	 1.50000000E+00
	 5.00000000E-01	 2.50000000E-01	 2.00000000E+00
	-7.45058000E-09	 5.00000000E-01	 2.00000000E+00
	-7.45058000E-09	 1.00000000E+00	 2.00000000E+00
	 2.50000000E-01	 5.00000000E-01	 2.00000000E+00
	 2.50000000E-01	 1.00000000E+00	 2.00000000E+00
	-7.45058000E-09	 5.00000000E-01	 1.50000000E+00
	-7.45058000E-09	 7.50000000E-01	 2.00000000E+00
	-7.45058000E-09	 1.00000000E+00	 1.50000000E+00
	-7.45058000E-09	-1.49012000E-08	 2.00000000E+00
	 2.50000000E-01	-1.49012000E-08	 2.00000000E+00
	-7.45058000E-09	-1.49012000E-08	 1.50000000E+00
	-7.45058000E-09	 2.50000000E-01	 2.00000000E+00
	 1.00000000E+00	 5.00000000E-01	 3.00000000E+00
	 1.00000000E+00	 1.00000000E+00	 3.00000000E+00
	 5.00000000E-01	 5.00000000E-01	 3.00000000E+00
	 5.00000000E-01	 1.00000000E+00	 3.00000000E+00
	 1.00000000E+00	 5.00000000E-01	 2.50000000E+00
	 1.00000000E+00	 7.50000000E-01	 3.00000000E+00
	 1.00000000E+00	 1.00000000E+00	 2.50000000E+00
	 7.50000000E-01	 5.00000000E-01	 3.00000000E+00
	 7.50000000E-01	 1.00000000E+00	 3.00000000E+00
	 5.00000000E-01	 5.00000000E-01	 2.50000000E+00
	 5.00000000E-01	 7.50000000E-01	 3.00000000E+00
	 5.00000000E-01	 1.00000000E+00	 2.50000000E+00
	 1.00000000E+00	-1.49012000E-08	 3.00000000E+00
	 5.00000000E-01	-1.49012000E-08	 3.00000000E+00
	 1.00000000E+00	-1.49012000E-08	 2.50000000E+00
	 1.00000000E+00	 2.50000000E-01	 3.00000000E+00
	 7.50000000E-01	-1.49012000E-08	 3.00000000E+00
	 5.00000000E-01	-1.49012000E-08	 2.50000000E+00
	 5.00000000E-01	 2.50000000E-01	 3.00000000E+00
	-7.45058000E-09	 5.00000000E-01	 3.00000000E+00
	-7.45058000E-09	 1.00000000E+00	 3.00000000E+00
	 2.50000000E-01	 5.00000000E-01	 3.00000000E+00
	 2.50000000E-01	 1.00000000E+00	 3.00000000E+00
	-7.45058000E-09	 5.00000000E-01	 2.50000000E+00
	-7.45058000E-09	 7.50000000E-01	 3.00000000E+00
	-7.45058000E-09	 1.00000000E+00	 2.50000000E+00
	-7.45058000E-09	-1.49012000E-08	 3.00000000E+00
	 2.50000000E-01	-1.49012000E-08	 3.00000000E+00
	-7.45058000E-09	-1.49012000E-08	 2.50000000E+00
	-7.45058000E-09	 2.50000000E-01	 3.00000000E+00
	 1.00000000E+00	 5.00000000E-01	 4.00000000E+00
	 1.00000000E+00	 1.00000000E+00	 4.00000000E+00
	 5.00000000E-01	 5.00000000E-01	 4.00000000E+00
	 5.00000000E-01	 1.00000000E+00	 4.00000000E+00
	 1.00000000E+00	 5.00000000E-01	 3.50000000E+00
	 1.00000000E+00	 7.50000000E-01	 4.00000000E+00
	 1.00000000E+00	 1.00000000E+00	 3.50000000E+00
	 7.50000000E-01	 5.00000000E-01	 4.00000000E+00
	 7.50000000E-01	 1.00000000E+00	 4.00000000E+00
	 5.00000000E-01	 5.00000000E-01	 3.50000000E+00
	 5.00000000E-01	 7.50000000E-01	 4.00000000E+00
	 5.00000000E-01	 1.00000000E+00	 3.50000000E+00
	 1.00000000E+00	-1.49012000E-08	 4.00000000E+00
	 5.00000000E-01	-1.49012000E-08	 4.00000000E+00
	 1.00000000E+00	-1.49012000E-08	 3.50000000E+00
	 1.00000000E+00	 2.50000000E-01	 4.00000000E+00
	 7.50000000E-01	-1.49012000E-08	 4.00000000E+00
	 5.00000000E-01	-1.49012000E-08	 3.50000000E+00
	 5.00000000E-01	 2.50000000E-01	 4.00000000E+00
	-7.45058000E-09	 5.00000000E-01	 4.00000000E+00
	-7.45058000E-09	 1.00000000E+00	 4.00000000E+00
	 2.50000000E-01	 5.00000000E-01	 4.00000000E+00
	 2.50000000E-01	 1.00000000E+00	 4.00000000E+00
	-7.45058000E-09	 5.00000000E-01	 3.50000000E+00
	-7.45058000E-09	 7.50000000E-01	 4.00000000E+00
	-7.45058000E-09	 1.00000000E+00	 3.50000000E+00
	-7.45058000E-09	-1.49012000E-08	 4.00000000E+00
	 2.50000000E-01	-1.49012000E-08	 4.00000000E+00
	-7.45058000E-09	-1.49012000E-08	 3.50000000E+00
	-7.45058000E-09	 2.50000000E-01	 4.00000000E+00
	 1.00000000E+00	 5.00000000E-01	 5.00000000E+00
	 1.00000000E+00	 1.00000000E+00	 5.00000000E+00
	 5.00000000E-01	 5.00000000E-01	 5.00000000E+00
	 5.00000000E-01	 1.00000000E+00	 5.00000000E+00
	 1.00000000E+00	 5.00000000E-01	 4.50000000E+00
	 1.00000000E+00	 7.50000000E-01	 5.00000000E+00
	 1.00000000E+00	 1.00000000E+00	 4.50000000E+00
	 7.50000000E-01	 5.00000000E-01	 5.00000000E+00
	 7.50000000E-01	 1.00000000E+00	 5.00000000E+00
	 5.00000000E-01	 5.00000000E-01	 4.50000000E+00
	 5.00000000E-01	 7.50000000E-01	 5.00000000E+00
	 5.00000000E-01	 1.00000000E+00	 4.50000000E+00
	 1.00000000E+00	-1.49012000E-08	 5.00000000E+00
	 5.00000000E-01	-1.49012000E-08	 5.00000000E+00
	 1.00000000E+00	-1.49012000E-08	 4.50000000E+00
	 1.00000000E+00	 2.50000000E-01	 5.00000000E+00
	 7.50000000E-01	-1.49012000E-08	 5.00000000E+00
	 5.00000000E-01	-1.49012000E-08	 4.50000000E+00
	 5.00000000E-01	 2.50000000E-01	 5.00000000E+00
	-7.45058000E-09	 5.00000000E-01	 5.00000000E+00
	-7.45058000E-09	 1.00000000E+00	 5.00000000E+00
	 2.50000000E-01	 5.00000000E-01	 5.00000000E+00
	 2.50000000E-01	 1.00000000E+00	 5.00000000E+00
	-7.45058000E-09	 5.00000000E-01	 4.50000000E+00
	-7.45058000E-09	 7.50000000E-01	 5.00000000E+00
	-7.45058000E-09	 1.00000000E+00	 4.50000000E+00
	-7.45058000E-09	-1.49012000E-08	 5.00000000E+00
	 2.50000000E-01	-1.49012000E-08	 5.00000000E+00
	-7.45058000E-09	-1.49012000E-08	 4.50000000E+00
	-7.45058000E-09	 2.50000000E-01	 5.00000000E+00
	 1.00000000E+00	 5.00000000E-01	 6.00000000E+00
	 1.00000000E+00	 1.00000000E+00	 6.00000000E+00
	 5.00000000E-01	 5.00000000E-01	 6.00000000E+00
	 5.00000000E-01	 1.00000000E+00	 6.00000000E+00
	 1.00000000E+00	 5.00000000E-01	 5.50000000E+00
	 1.00000000E+00	 7.50000000E-01	 6.00000000E+00
	 1.00000000E+00	 1.00000000E+00	 5.50000000E+00
	 7.50000000E-01	 5.00000000E-01	 6.00000000E+00
	 7.50000000E-01	 1.00000000E+00	 6.00000000E+00
	 5.00000000E-01	 5.00000000E-01	 5.50000000E+00
	 5.00000000E-01	 7.50000000E-01	 6.00000000E+00
	 5.00000000E-01	 1.00000000E+00	 5.50000000E+00
	 1.00000000E+00	-1.49012000E-08	 6.00000000E+00
	 5.00000000E-01	-1.49012000E-08	 6.00000000E+00
	 1.00000000E+00	-1.49012000E-08	 5.50000000E+00
	 1.00000000E+00	 2.50000000E-01	 6.00000000E+00
	 7.50000000E-01	-1.49012000E-08	 6.00000000E+00
	 5.00000000E-01	-1.49012000E-08	 5.50000000E+00
	 5.00000000E-01	 2.50000000E-01	 6.00000000E+00
	-7.45058000E-09	 5.00000000E-01	 6.00000000E+00
	-7.45058000E-09	 1.00000000E+00	 6.00000000E+00
	 2.50000000E-01	 5.00000000E-01	 6.00000000E+00
	 2.50000000E-01	 1.00000000E+00	 6.00000000E+00
	-7.45058000E-09	 5.00000000E-01	 5.50000000E+00
	-7.45058000E-09	 7.50000000E-01	 6.00000000E+00
	-7.45058000E-09	 1.00000000E+00	 5.50000000E+00
	-7.45058000E-09	-1.49012000E-08	 6.00000000E+00
	 2.50000000E-01	-1.49012000E-08	 6.00000000E+00
	-7.45058000E-09	-1.49012000E-08	 5.50000000E+00
	-7.45058000E-09	 2.50000000E-01	 6.00000000E+00
	 1.00000000E+00	 5.00000000E-01	 7.00000000E+00
[...]
POINT_DATA 522
FIELD U 1
	U 3 522 double
		 0.00000000E+00	 0.00000000E+00	 0.00000000E+00
		 0.00000000E+00	 0.00000000E+00	 0.00000000E+00
		-1.46995000E-05	 2.57196000E-03	 3.80632000E-05
		-4.43606000E-04	 2.59279000E-03	-1.29730000E-03
		 0.00000000E+00	 0.00000000E+00	 0.00000000E+00
		 0.00000000E+00	 0.00000000E+00	 0.00000000E+00
		-7.53314000E-06	 2.08833000E-03	 3.65881000E-05
		-5.40708000E-04	 2.12139000E-03	-1.33122000E-03
		 0.00000000E+00	 0.00000000E+00	 0.00000000E+00
		-1.08021000E-05	 8.65321000E-04	 1.98455000E-05
		-2.31568000E-04	 2.55810000E-03	-5.16088000E-04
		-5.26242000E-05	 9.52541000E-04	-7.58888000E-04
		 0.00000000E+00	 0.00000000E+00	 0.00000000E+00
		 0.00000000E+00	 0.00000000E+00	 0.00000000E+00
		-1.12132000E-05	 2.35137000E-03	 3.71194000E-05
		-4.92993000E-04	 2.38130000E-03	-1.37486000E-03
		 0.00000000E+00	 0.00000000E+00	 0.00000000E+00
		-3.94351000E-06	 6.93217000E-04	 1.65476000E-05
		-2.73470000E-04	 2.07928000E-03	-5.91089000E-04
		-2.61168000E-04	 7.96930000E-04	-7.52081000E-04
		 0.00000000E+00	 0.00000000E+00	 0.00000000E+00
		 4.14941000E-04	 2.60724000E-03	 1.37234000E-03
		 0.00000000E+00	 0.00000000E+00	 0.00000000E+00
		 5.24782000E-04	 2.13627000E-03	 1.40283000E-03
		 0.00000000E+00	 0.00000000E+00	 0.00000000E+00
		 3.13246000E-05	 9.66217000E-04	 7.99306000E-04
		 2.02328000E-04	 2.56437000E-03	 5.91618000E-04
		 0.00000000E+00	 0.00000000E+00	 0.00000000E+00
		 4.70676000E-04	 2.39602000E-03	 1.44788000E-03
		 0.00000000E+00	 0.00000000E+00	 0.00000000E+00
		 2.52560000E-04	 8.10024000E-04	 7.86224000E-04
		 2.58036000E-04	 2.08609000E-03	 6.63599000E-04
		 0.00000000E+00	 0.00000000E+00	 0.00000000E+00
		 0.00000000E+00	 0.00000000E+00	 0.00000000E+00
		-4.29169000E-07	 1.50700000E-03	 3.54016000E-05
		-6.28453000E-04	 1.53621000E-03	-1.30060000E-03
		 0.00000000E+00	 0.00000000E+00	 0.00000000E+00
		 0.00000000E+00	 0.00000000E+00	 0.00000000E+00
		-3.73565000E-06	 1.82053000E-03	 3.57801000E-05
		-5.82910000E-04	 1.85083000E-03	-1.27551000E-03
		 0.00000000E+00	 0.00000000E+00	 0.00000000E+00
		 2.21634000E-06	 3.51677000E-04	 1.62863000E-05
		-3.14676000E-04	 1.49758000E-03	-6.20186000E-04
		-4.48921000E-04	 4.60155000E-04	-7.62612000E-04
		 0.00000000E+00	 0.00000000E+00	 0.00000000E+00
		 6.25419000E-04	 1.55277000E-03	 1.36961000E-03
		 0.00000000E+00	 0.00000000E+00	 0.00000000E+00
		 5.73623000E-04	 1.86605000E-03	 1.34528000E-03
		 0.00000000E+00	 0.00000000E+00	 0.00000000E+00
		 4.51909000E-04	 4.74528000E-04	 7.96327000E-04
		 3.13072000E-04	 1.50598000E-03	 6.90317000E-04
		-2.61779000E-05	 6.74270000E-03	 7.35256000E-05
		-1.25231000E-03	 6.70401000E-03	-1.36287000E-03
		-1.77517000E-05	 5.55537000E-03	 7.03696000E-05
		-1.17686000E-03	 5.51356000E-03	-1.37630000E-03
		-1.86655000E-05	 4.64976000E-03	 5.49736000E-05
		-6.36159000E-04	 6.73764000E-03	-5.68265000E-04
		-8.41935000E-04	 4.65901000E-03	-1.46773000E-03
		-2.20285000E-05	 6.13799000E-03	 7.16109000E-05
		-1.21391000E-03	 6.09460000E-03	-1.42197000E-03
		-1.07783000E-05	 3.82295000E-03	 5.33021000E-05
		-5.97755000E-04	 5.54991000E-03	-6.27525000E-04
		-8.47095000E-04	 3.82935000E-03	-1.48946000E-03
		 1.20279000E-03	 6.72559000E-03	 1.51091000E-03
		 1.14343000E-03	 5.53140000E-03	 1.51842000E-03
		 8.06558000E-04	 4.67791000E-03	 1.57845000E-03
		 5.84534000E-04	 6.74801000E-03	 7.15749000E-04
		 1.17251000E-03	 6.11436000E-03	 1.56627000E-03
		 8.26479000E-04	 3.84553000E-03	 1.59595000E-03
		 5.62884000E-04	 5.55830000E-03	 7.68663000E-04
		-9.69023000E-06	 4.42219000E-03	 6.64958000E-05
		-1.10071000E-03	 4.38771000E-03	-1.36952000E-03
		-1.35390000E-05	 4.97719000E-03	 6.89398000E-05
		-1.13957000E-03	 4.93749000E-03	-1.33544000E-03
		-3.29371000E-06	 2.97655000E-03	 5.15762000E-05
		-5.57873000E-04	 4.41899000E-03	-6.64313000E-04
		-8.54703000E-04	 2.98543000E-03	-1.47197000E-03
		 1.08251000E-03	 4.40309000E-03	 1.50407000E-03
		 1.11405000E-03	 4.95382000E-03	 1.47483000E-03
		 8.48155000E-04	 3.00095000E-03	 1.57415000E-03
		 5.38771000E-04	 4.42614000E-03	 7.97701000E-04
		-4.28313000E-05	 9.64381000E-03	 1.07560000E-04
		-1.92506000E-03	 9.62037000E-03	-8.04778000E-04
		-3.42639000E-05	 7.78162000E-03	 1.10511000E-04
		-1.88774000E-03	 7.75438000E-03	-7.82573000E-04
		-3.64940000E-05	 8.43272000E-03	 9.15154000E-05
		-9.82606000E-04	 9.63772000E-03	-3.44851000E-04
		-1.60864000E-03	 8.40060000E-03	-1.05571000E-03
		-3.85882000E-05	 8.70760000E-03	 1.08946000E-04
		-1.90621000E-03	 8.68202000E-03	-8.37523000E-04
		-2.80979000E-05	 6.90784000E-03	 8.94017000E-05
		-9.59945000E-04	 7.77455000E-03	-3.78528000E-04
		-1.51840000E-03	 6.86897000E-03	-1.05403000E-03
		 1.83525000E-03	 9.63861000E-03	 1.02109000E-03
		 1.81666000E-03	 7.77839000E-03	 1.00518000E-03
		 1.53530000E-03	 8.42010000E-03	 1.23945000E-03
		 8.95814000E-04	 9.64679000E-03	 5.60549000E-04
		 1.82541000E-03	 8.70372000E-03	 1.05644000E-03
		 1.46220000E-03	 6.88909000E-03	 1.23480000E-03
		 8.90655000E-04	 7.78717000E-03	 6.00040000E-04
		-2.43129000E-05	 5.93913000E-03	 1.12036000E-04
		-1.83898000E-03	 5.92112000E-03	-7.99707000E-04
		-2.96259000E-05	 6.85645000E-03	 1.11641000E-04
		-1.86319000E-03	 6.82994000E-03	-7.21893000E-04
		-1.91776000E-05	 5.45186000E-03	 8.61439000E-05
		-9.34804000E-04	 5.93606000E-03	-4.52631000E-04
		-1.42274000E-03	 5.42414000E-03	-1.05979000E-03
		 1.78927000E-03	 5.94796000E-03	 1.02566000E-03
		 1.80238000E-03	 6.85546000E-03	 9.46964000E-04
		 1.38458000E-03	 5.44433000E-03	 1.23524000E-03
		 8.85904000E-04	 5.95028000E-03	 6.77334000E-04
		-3.79386000E-05	 1.20924000E-02	 1.41645000E-04
		-2.69683000E-03	 1.21764000E-02	-1.40649000E-03
		-2.62059000E-05	 9.31543000E-03	 1.50348000E-04
		-2.90673000E-03	 9.40539000E-03	-1.38125000E-03
		-4.04898000E-05	 1.06471000E-02	 1.23758000E-04
		-1.36998000E-03	 1.21036000E-02	-5.87805000E-04
		-2.24946000E-03	 1.06743000E-02	-9.14966000E-04
		-3.16106000E-05	 1.07326000E-02	 1.45990000E-04
		-2.80141000E-03	 1.08220000E-02	-1.47418000E-03
		-3.08909000E-05	 8.38406000E-03	 1.31683000E-04
		-1.46587000E-03	 9.32796000E-03	-6.53532000E-04
		-2.34236000E-03	 8.41660000E-03	-8.78028000E-04
		 2.61547000E-03	 1.22080000E-02	 1.68930000E-03
		 2.85177000E-03	 9.44277000E-03	 1.68109000E-03
		 2.16306000E-03	 1.06968000E-02	 1.16392000E-03
		 1.29252000E-03	 1.21194000E-02	 8.71030000E-04
		 2.73360000E-03	 1.08579000E-02	 1.76538000E-03
		 2.27765000E-03	 8.44559000E-03	 1.14213000E-03
		 1.41258000E-03	 9.34789000E-03	 9.54055000E-04
		-1.44524000E-05	 6.33302000E-03	 1.58795000E-04
		-3.11346000E-03	 6.41659000E-03	-1.39004000E-03
		-2.07711000E-05	 7.85307000E-03	 1.54676000E-04
		-3.01034000E-03	 7.94173000E-03	-1.28216000E-03
		-2.06651000E-05	 6.02619000E-03	 1.38261000E-04
		-1.56156000E-03	 6.34348000E-03	-7.54496000E-04
		-2.41822000E-03	 6.06536000E-03	-9.01021000E-04
		 3.08578000E-03	 6.45406000E-03	 1.70637000E-03
		 2.96833000E-03	 7.97910000E-03	 1.59063000E-03
		 2.37674000E-03	 6.09588000E-03	 1.17741000E-03
		 1.53316000E-03	 6.36367000E-03	 1.07171000E-03
		-6.31971000E-05	 1.80203000E-02	 1.58614000E-04
		-3.88756000E-03	 1.80895000E-02	-3.00172000E-03
		-4.44139000E-05	 1.41024000E-02	 1.70743000E-04
		-4.05686000E-03	 1.41657000E-02	-3.00794000E-03
		-4.58792000E-05	 1.45447000E-02	 1.55413000E-04
		-1.97520000E-03	 1.80296000E-02	-1.30171000E-03
		-3.28416000E-03	 1.46272000E-02	-2.21827000E-03
		-5.38788000E-05	 1.60874000E-02	 1.64186000E-04
		-3.97309000E-03	 1.61520000E-02	-3.08751000E-03
		-3.12770000E-05	 1.11808000E-02	 1.63764000E-04
		-2.05122000E-03	 1.41068000E-02	-1.37823000E-03
		-3.51425000E-03	 1.12640000E-02	-2.21348000E-03
		 3.75533000E-03	 1.81461000E-02	 3.31627000E-03
		 3.96489000E-03	 1.42303000E-02	 3.34649000E-03
		 3.18692000E-03	 1.46702000E-02	 2.52639000E-03
		 1.84712000E-03	 1.80562000E-02	 1.61854000E-03
		 3.86046000E-03	 1.62144000E-02	 3.41291000E-03
		 3.44883000E-03	 1.13140000E-02	 2.53853000E-03
		 1.96154000E-03	 1.41393000E-02	 1.71900000E-03
		-2.38238000E-05	 9.99888000E-03	 1.84807000E-04
		-4.23827000E-03	 1.00486000E-02	-2.97615000E-03
		-3.45664000E-05	 1.20751000E-02	 1.77705000E-04
		-4.14822000E-03	 1.21360000E-02	-2.93526000E-03
		-1.56122000E-05	 7.58137000E-03	 1.73701000E-04
		-2.12721000E-03	 9.99634000E-03	-1.41508000E-03
		-3.75282000E-03	 7.64941000E-03	-2.20025000E-03
		 4.19047000E-03	 1.01163000E-02	 3.34286000E-03
		 4.07769000E-03	 1.22019000E-02	 3.28782000E-03
		 3.72207000E-03	 7.70148000E-03	 2.54571000E-03
		 2.07973000E-03	 1.00309000E-02	 1.78381000E-03
		-9.67754000E-05	 2.63994000E-02	 1.45172000E-04
		-4.76413000E-03	 2.63716000E-02	-3.62180000E-03
		-7.32414000E-05	 2.17431000E-02	 1.68707000E-04
		-4.73335000E-03	 2.17049000E-02	-3.61189000E-03
		-8.16466000E-05	 2.21516000E-02	 1.53138000E-04
		-2.42750000E-03	 2.63879000E-02	-1.67864000E-03
		-4.41142000E-03	 2.21751000E-02	-3.45623000E-03
		-8.48966000E-05	 2.40708000E-02	 1.57712000E-04
		-4.74936000E-03	 2.40341000E-02	-3.64896000E-03
		-5.94026000E-05	 1.77909000E-02	 1.71970000E-04
		-2.40423000E-03	 2.17263000E-02	-1.69346000E-03
		-4.46581000E-03	 1.78010000E-02	-3.46007000E-03
		 4.56868000E-03	 2.64506000E-02	 3.91153000E-03
		 4.58778000E-03	 2.17856000E-02	 3.94867000E-03
		 4.24392000E-03	 2.22450000E-02	 3.76131000E-03
		 2.23341000E-03	 2.64267000E-02	 1.96858000E-03
		 4.57869000E-03	 2.41150000E-02	 3.96400000E-03
		 4.34586000E-03	 1.78764000E-02	 3.80208000E-03
		 2.25803000E-03	 2.17667000E-02	 2.03067000E-03
		-4.91570000E-05	 1.70802000E-02	 1.89680000E-04
		-4.71431000E-03	 1.70414000E-02	-3.57719000E-03
		-6.14860000E-05	 1.94106000E-02	 1.79061000E-04
		-4.72387000E-03	 1.93718000E-02	-3.57744000E-03
		-3.59487000E-05	 1.33406000E-02	 1.90562000E-04
		-2.38306000E-03	 1.70626000E-02	-1.68405000E-03
		-4.53918000E-03	 1.33419000E-02	-3.41997000E-03
		 4.61924000E-03	 1.71188000E-02	 3.95588000E-03
		 4.60358000E-03	 1.94512000E-02	 3.93470000E-03
		 4.46889000E-03	 1.34171000E-02	 3.79851000E-03
		 2.28555000E-03	 1.71008000E-02	 2.06346000E-03
		-1.19263000E-04	 3.42147000E-02	 1.31209000E-04
		-5.09387000E-03	 3.41558000E-02	-3.39539000E-03
		-9.52442000E-05	 2.92747000E-02	 1.53025000E-04
		-5.01126000E-03	 2.92097000E-02	-3.36799000E-03
		-1.08027000E-04	 3.04419000E-02	 1.37990000E-04
		-2.60591000E-03	 3.41924000E-02	-1.62113000E-03
		-4.96506000E-03	 3.03945000E-02	-3.55129000E-03
		-1.06455000E-04	 3.17369000E-02	 1.42449000E-04
		-5.05261000E-03	 3.16739000E-02	-3.39402000E-03
		-8.46636000E-05	 2.56133000E-02	 1.62040000E-04
		-2.55435000E-03	 2.92493000E-02	-1.60763000E-03
		-4.89637000E-03	 2.55593000E-02	-3.53199000E-03
		 4.85280000E-03	 3.42329000E-02	 3.65572000E-03
		 4.81917000E-03	 2.92884000E-02	 3.67286000E-03
		 4.74731000E-03	 3.04746000E-02	 3.82620000E-03
		 2.36645000E-03	 3.42308000E-02	 1.88288000E-03
		 4.83735000E-03	 3.17523000E-02	 3.67692000E-03
		 4.72748000E-03	 2.56403000E-02	 3.85571000E-03
		 2.36305000E-03	 2.92893000E-02	 1.91324000E-03
		-7.27780000E-05	 2.43875000E-02	 1.75812000E-04
		-4.93484000E-03	 2.43218000E-02	-3.34019000E-03
		-8.43435000E-05	 2.68248000E-02	 1.64166000E-04
		-4.97348000E-03	 2.67589000E-02	-3.33913000E-03
		-6.18827000E-05	 2.08223000E-02	 1.83664000E-04
		-2.50488000E-03	 2.43616000E-02	-1.59527000E-03
		-4.83332000E-03	 2.07708000E-02	-3.50269000E-03
		 4.78945000E-03	 2.43994000E-02	 3.69151000E-03
		 4.80404000E-03	 2.68369000E-02	 3.66750000E-03
		 4.71247000E-03	 2.08479000E-02	 3.87027000E-03
		 2.35921000E-03	 2.44015000E-02	 1.94627000E-03
		-1.47195000E-04	 4.10484000E-02	 1.14740000E-04
		-5.18463000E-03	 4.10167000E-02	-3.23091000E-03
		-1.16251000E-04	 3.59949000E-02	 1.35003000E-04
		-5.14363000E-03	 3.59555000E-02	-3.18517000E-03
		-1.32528000E-04	 3.77030000E-02	 1.24400000E-04
		-2.66176000E-03	 4.10336000E-02	-1.56354000E-03
		-5.16450000E-03	 3.76589000E-02	-3.27511000E-03
		-1.32264000E-04	 3.85249000E-02	 1.24091000E-04
		-5.16583000E-03	 3.84873000E-02	-3.21130000E-03
		-1.06043000E-04	 3.26877000E-02	 1.44074000E-04
		-2.62539000E-03	 3.59756000E-02	-1.53112000E-03
		-5.10574000E-03	 3.26383000E-02	-3.23682000E-03
		 4.88873000E-03	 4.10818000E-02	 3.45568000E-03
		 4.90546000E-03	 3.60211000E-02	 3.44935000E-03
		 4.89724000E-03	 3.77315000E-02	 3.51932000E-03
		 2.36660000E-03	 4.10648000E-02	 1.79175000E-03
		 4.89797000E-03	 3.85522000E-02	 3.45441000E-03
		 4.88939000E-03	 3.27125000E-02	 3.52103000E-03
		 2.39077000E-03	 3.60077000E-02	 1.79956000E-03
		-8.67977000E-05	 3.09642000E-02	 1.61896000E-04
		-5.10921000E-03	 3.09097000E-02	-3.14826000E-03
		-1.00574000E-04	 3.34745000E-02	 1.47796000E-04
		-5.12461000E-03	 3.34287000E-02	-3.15741000E-03
		-8.11036000E-05	 2.77082000E-02	 1.69216000E-04
		-2.59583000E-03	 3.09370000E-02	-1.50546000E-03
		-5.04527000E-03	 2.76538000E-02	-3.20452000E-03
		 4.92703000E-03	 3.09852000E-02	 3.46575000E-03
		 4.91541000E-03	 3.34976000E-02	 3.44714000E-03
		 4.87768000E-03	 2.77335000E-02	 3.53982000E-03
		 2.42007000E-03	 3.09758000E-02	 1.82716000E-03
		 0.00000000E+00	 0.00000000E+00	 0.00000000E+00
		 0.00000000E+00	 0.00000000E+00	 0.00000000E+00
		-2.27793000E-05	-5.44913000E-03	 6.52359000E-06
		-1.52591000E-03	-5.65526000E-03	 4.78040000E-03
		 0.00000000E+00	 0.00000000E+00	 0.00000000E+00
		 0.00000000E+00	 0.00000000E+00	 0.00000000E+00
		-1.85217000E-05	-6.72763000E-03	-2.81561000E-05
		-1.07673000E-03	-6.95415000E-03	 4.84192000E-03
		 0.00000000E+00	 0.00000000E+00	 0.00000000E+00
		-4.86249000E-06	-1.28108000E-03	 9.53658000E-06
		-7.74674000E-04	-5.45671000E-03	 2.32695000E-03
		-1.22555000E-03	-1.70127000E-03	 2.66626000E-03
		 0.00000000E+00	 0.00000000E+00	 0.00000000E+00
		 0.00000000E+00	 0.00000000E+00	 0.00000000E+00
		-1.98067000E-05	-6.17774000E-03	-1.14055000E-05
		-1.29568000E-03	-6.39321000E-03	 4.73664000E-03
		 0.00000000E+00	 0.00000000E+00	 0.00000000E+00
		-2.74355000E-06	-2.10362000E-03	-7.12688000E-06
		-5.48177000E-04	-6.73974000E-03	 2.25760000E-03
		-5.14822000E-04	-2.51423000E-03	 2.60322000E-03
		 0.00000000E+00	 0.00000000E+00	 0.00000000E+00
		 1.48065000E-03	-5.59775000E-03	-4.77779000E-03
		 0.00000000E+00	 0.00000000E+00	 0.00000000E+00
		 1.04163000E-03	-6.89964000E-03	-4.90894000E-03
		 0.00000000E+00	 0.00000000E+00	 0.00000000E+00
		 1.21748000E-03	-1.67118000E-03	-2.65348000E-03
		 7.28647000E-04	-5.42925000E-03	-2.31684000E-03
		 0.00000000E+00	 0.00000000E+00	 0.00000000E+00
		 1.25712000E-03	-6.33697000E-03	-4.76978000E-03
		 0.00000000E+00	 0.00000000E+00	 0.00000000E+00
		 5.11773000E-04	-2.49280000E-03	-2.62268000E-03
		 5.09747000E-04	-6.71450000E-03	-2.31737000E-03
		 0.00000000E+00	 0.00000000E+00	 0.00000000E+00
		 0.00000000E+00	 0.00000000E+00	 0.00000000E+00
		-1.90609000E-05	-7.56637000E-03	-5.83993000E-05
		-6.22071000E-04	-7.75998000E-03	 4.71790000E-03
		 0.00000000E+00	 0.00000000E+00	 0.00000000E+00
		 0.00000000E+00	 0.00000000E+00	 0.00000000E+00
		-1.75508000E-05	-7.23512000E-03	-4.46203000E-05
		-8.52408000E-04	-7.44400000E-03	 4.89918000E-03
		 0.00000000E+00	 0.00000000E+00	 0.00000000E+00
		-6.15171000E-06	-2.30682000E-03	-1.85889000E-05
		-3.23118000E-04	-7.56625000E-03	 2.06752000E-03
		 2.29358000E-04	-2.68150000E-03	 2.63912000E-03
		 0.00000000E+00	 0.00000000E+00	 0.00000000E+00
		 5.84063000E-04	-7.70904000E-03	-4.84292000E-03
		 0.00000000E+00	 0.00000000E+00	 0.00000000E+00
		 8.17098000E-04	-7.39531000E-03	-4.99844000E-03
		 0.00000000E+00	 0.00000000E+00	 0.00000000E+00
		-2.41125000E-04	-2.66380000E-03	-2.68205000E-03
		 2.85499000E-04	-7.54439000E-03	-2.18637000E-03
		-8.79556000E-05	-1.77440000E-02	-6.69230000E-05
		-2.18203000E-03	-1.77639000E-02	 6.17425000E-03
		-8.62489000E-05	-1.98636000E-02	-1.30952000E-04
		-2.22206000E-03	-1.98758000E-02	 6.15810000E-03
		-4.98549000E-05	-1.12253000E-02	-1.95178000E-05
		-1.13889000E-03	-1.77702000E-02	 3.00292000E-03
		-1.87607000E-03	-1.13885000E-02	 5.90105000E-03
		-8.76462000E-05	-1.87900000E-02	-1.00916000E-04
		-2.20288000E-03	-1.88011000E-02	 6.12129000E-03
		-4.77108000E-05	-1.29462000E-02	-7.09219000E-05
		-1.14887000E-03	-1.98857000E-02	 2.91751000E-03
		-1.65609000E-03	-1.31045000E-02	 5.90837000E-03
		 2.01075000E-03	-1.76815000E-02	-6.31116000E-03
		 2.04582000E-03	-1.98028000E-02	-6.42079000E-03
		 1.77847000E-03	-1.13114000E-02	-5.94897000E-03
		 9.63904000E-04	-1.77298000E-02	-3.13793000E-03
		 2.03034000E-03	-1.87293000E-02	-6.32330000E-03
		 1.56229000E-03	-1.30342000E-02	-6.05924000E-03
		 9.80185000E-04	-1.98523000E-02	-3.17711000E-03
		-8.96140000E-05	-2.20109000E-02	-1.98402000E-04
		-2.24623000E-03	-2.20117000E-02	 6.04160000E-03
		-8.79595000E-05	-2.09210000E-02	-1.61261000E-04
		-2.23248000E-03	-2.09577000E-02	 6.20104000E-03
		-4.87617000E-05	-1.44452000E-02	-1.22070000E-04
		-1.17123000E-03	-2.20223000E-02	 2.73247000E-03
		-1.44022000E-03	-1.46014000E-02	 5.79816000E-03
		 2.09080000E-03	-2.19582000E-02	-6.43966000E-03
		 2.06743000E-03	-2.08642000E-02	-6.52688000E-03
		 1.35366000E-03	-1.45445000E-02	-6.04993000E-03
		 9.98339000E-04	-2.20008000E-02	-3.12601000E-03
		-1.60167000E-04	-2.91348000E-02	-1.99542000E-04
		-3.00079000E-03	-2.89474000E-02	 4.59369000E-03
		-1.61321000E-04	-3.20968000E-02	-2.40883000E-04
		-3.29555000E-03	-3.20242000E-02	 4.56105000E-03
		-1.27443000E-04	-2.39333000E-02	-1.29378000E-04
		-1.57598000E-03	-2.90825000E-02	 2.23922000E-03
		-2.56231000E-03	-2.38708000E-02	 5.61508000E-03
		-1.59899000E-04	-3.05779000E-02	-2.16525000E-04
		-3.15194000E-03	-3.04608000E-02	 4.50725000E-03
		-1.29062000E-04	-2.64760000E-02	-1.91964000E-04
		-1.75212000E-03	-3.21090000E-02	 2.12129000E-03
		-2.77870000E-03	-2.64190000E-02	 5.58895000E-03
		 2.63131000E-03	-2.89606000E-02	-4.97259000E-03
		 2.96111000E-03	-3.19267000E-02	-5.05540000E-03
		 2.29687000E-03	-2.38166000E-02	-5.87138000E-03
		 1.23991000E-03	-2.90909000E-02	-2.62504000E-03
		 2.79431000E-03	-3.03978000E-02	-4.94911000E-03
		 2.51881000E-03	-2.63425000E-02	-5.96958000E-03
		 1.40298000E-03	-3.20611000E-02	-2.62163000E-03
		-1.63064000E-04	-3.53752000E-02	-2.89421000E-04
		-3.69577000E-03	-3.54430000E-02	 4.50196000E-03
		-1.62841000E-04	-3.37092000E-02	-2.66312000E-04
		-3.49934000E-03	-3.35724000E-02	 4.61758000E-03
		-1.21437000E-04	-2.92237000E-02	-2.60364000E-04
		-1.89305000E-03	-3.54619000E-02	 1.97612000E-03
		-3.02460000E-03	-2.92075000E-02	 5.48838000E-03
		 3.31963000E-03	-3.52399000E-02	-5.11900000E-03
		 3.13951000E-03	-3.35329000E-02	-5.16213000E-03
		 2.74003000E-03	-2.90953000E-02	-6.00689000E-03
		 1.56712000E-03	-3.53640000E-02	-2.59847000E-03
		-1.18285000E-04	-3.59028000E-02	-3.25121000E-04
		-3.54122000E-03	-3.56383000E-02	 2.20841000E-03
		-1.20621000E-04	-3.95175000E-02	-2.89534000E-04
		-3.96918000E-03	-3.97275000E-02	 2.23263000E-03
		-1.90583000E-04	-3.30489000E-02	-2.65112000E-04
		-1.82599000E-03	-3.58076000E-02	 9.68178000E-04
		-3.38696000E-03	-3.29065000E-02	 3.37052000E-03
		-1.18685000E-04	-3.76364000E-02	-3.07485000E-04
		-3.74671000E-03	-3.75587000E-02	 2.22036000E-03
		-1.97166000E-04	-3.64415000E-02	-3.16392000E-04
		-1.92139000E-03	-3.96459000E-02	 9.99861000E-04
		-3.77309000E-03	-3.62601000E-02	 3.39044000E-03
		 3.12464000E-03	-3.57491000E-02	-2.85598000E-03
		 3.42278000E-03	-3.92078000E-02	-2.80829000E-03
		 2.96773000E-03	-3.28756000E-02	-3.89384000E-03
		 1.50120000E-03	-3.58695000E-02	-1.61754000E-03
		 3.27683000E-03	-3.74367000E-02	-2.83255000E-03
		 3.30171000E-03	-3.62248000E-02	-3.91485000E-03
		 1.64065000E-03	-3.93774000E-02	-1.57827000E-03
		-2.55925000E-04	-4.34795000E-02	-2.53907000E-04
		-4.26481000E-03	-4.40559000E-02	 2.28113000E-03
		-1.87659000E-04	-4.14219000E-02	-2.71844000E-04
		-4.11697000E-03	-4.23370000E-02	 2.23832000E-03
		-2.22225000E-04	-4.01778000E-02	-3.96308000E-04
		-2.37827000E-03	-4.37774000E-02	 1.05793000E-03
		-4.01924000E-03	-3.99019000E-02	 3.37163000E-03
		 3.75030000E-03	-4.30063000E-02	-2.78430000E-03