<?xml version="1.0"?>
<VTKFile type="UnstructuredGrid" version="0.1" byte_order="LittleEndian">
	<UnstructuredGrid>
		<Piece NumberOfPoints="522" NumberOfCells="64">
			<Points>
				<DataArray type="Float64" NumberOfComponents="3" format="ascii">
					 1.00000000E+00	 1.00000000E+00	-5.96046000E-08
					 1.00000000E+00	 5.00000000E-01	-5.96046000E-08
					 1.00000000E+00	 5.00000000E-01	 1.00000000E+00
					 1.00000000E+00	 1.00000000E+00	 1.00000000E+00
					 5.00000000E-01	 1.00000000E+00	-5.96046000E-08
					 5.00000000E-01	 5.00000000E-01	-5.96046000E-08
					 5.00000000E-01	 5.00000000E-01	 1.00000000E+00
					 5.00000000E-01	 1.00000000E+00	 1.00000000E+00
					 1.00000000E+00	 7.50000000E-01	-5.96046000E-08
					 1.00000000E+00	 5.00000000E-01	 5.00000000E-01
					 1.00000000E+00	 7.50000000E-01	 1.00000000E+00
					 1.00000000E+00	 1.00000000E+00	 5.00000000E-01
					 7.50000000E-01	 1.00000000E+00	-5.96046000E-08
					 7.50000000E-01	 5.00000000E-01	-5.96046000E-08
					 7.50000000E-01	 5.00000000E-01	 1.00000000E+00
					 7.50000000E-01	 1.00000000E+00	 1.00000000E+00
					 5.00000000E-01	 7.50000000E-01	-5.96046000E-08
					 5.00000000E-01	 5.00000000E-01	 5.00000000E-01
					 5.00000000E-01	 7.50000000E-01	 1.00000000E+00
					 5.00000000E-01	 1.00000000E+00	 5.00000000E-01
					 1.00000000E+00	-1.49012000E-08	-5.96046000E-08
					 1.00000000E+00	-1.49012000E-08	 1.00000000E+00
					 5.00000000E-01	-1.49012000E-08	-5.96046000E-08
					 5.00000000E-01	-1.49012000E-08	 1.00000000E+00
					 1.00000000E+00	 2.50000000E-01	-5.96046000E-08
					 1.00000000E+00	-1.49012000E-08	 5.00000000E-01
					 1.00000000E+00	 2.50000000E-01	 1.00000000E+00
					 7.50000000E-01	-1.49012000E-08	-5.96046000E-08
					 7.50000000E-01	-1.49012000E-08	 1.00000000E+00
					 5.00000000E-01	 2.50000000E-01	-5.96046000E-08
					 5.00000000E-01	-1.49012000E-08	 5.00000000E-01
					 5.00000000E-01	 2.50000000E-01	 1.00000000E+00
					-7.45058000E-09	 1.00000000E+00	-5.96046000E-08
					-7.45058000E-09	 5.00000000E-01	-5.96046000E-08
					-7.45058000E-09	 5.00000000E-01	 1.00000000E+00
					-7.45058000E-09	 1.00000000E+00	 1.00000000E+00
					 2.50000000E-01	 1.00000000E+00	-5.96046000E-08
					 2.50000000E-01	 5.00000000E-01	-5.96046000E-08
					 2.50000000E-01	 5.00000000E-01	 1.00000000E+00
					 2.50000000E-01	 1.00000000E+00	 1.00000000E+00
					-7.45058000E-09	 7.50000000E-01	-5.96046000E-08
					-7.45058000E-09	 5.00000000E-01	 5.00000000E-01
					-7.45058000E-09	 7.50000000E-01	 1.00000000E+00
					-7.45058000E-09	 1.00000000E+00	 5.00000000E-01
					-7.45058000E-09	-1.49012000E-08	-5.96046000E-08
					-7.45058000E-09	-1.49012000E-08	 1.00000000E+00
					 2.50000000E-01	-1.49012000E-08	-5.96046000E-08
					 2.50000000E-01	-1.49012000E-08	 1.00000000E+00
					-7.45058000E-09	 2.50000000E-01	-5.96046000E-08
					-7.45058000E-09	-1.49012000E-08	 5.00000000E-01
					-7.45058000E-09	 2.50000000E-01	 1.00000000E+00
					 1.00000000E+00	 5.00000000E-01	 2.00000000E+00
					 1.00000000E+00	 1.00000000E+00	 2.00000000E+00
					 5.00000000E-01	 5.00000000E-01	 2.00000000E+00
					 5.00000000E-01	 1.00000000E+00	 2.00000000E+00
					 1.00000000E+00	 5.00000000E-01	 1.50000000E+00
					 1.00000000E+00	 7.50000000E-01	 2.00000000E+00
					 1.00000000E+00	 1.00000000E+00	 1.50000000E+00
					 7.50000000E-01	 5.00000000E-01	 2.00000000E+00
					 7.50000000E-01	 1.00000000E+00	 2.00000000E+00
					 5.00000000E-01	 5.00000000E-01	 1.50000000E+00
					 5.00000000E-01	 7.50000000E-01	 2.00000000E+00
					 5.00000000E-01	 1.00000000E+00	 1.50000000E+00
					 1.00000000E+00	-1.49012000E-08	 2.00000000E+00
					 5.00000000E-01	-1.49012000E-08	 2.00000000E+00
					 1.00000000E+00	-1.49012000E-08	 1.50000000E+00
					 1.00000000E+00	 2.50000000E-01	 2.00000000E+00
					 7.50000000E-01	-1.49012000E-08	 2.00000000E+00
					 5.00000000E-01	-1.49012000E-08	 1.50000000E+00
					 5.00000000E-01	 2.50000000E-01	 2.00000000E+00
					-7.45058000E-09	 5.00000000E-01	 2.00000000E+00
					-7.45058000E-09	 1.00000000E+00	 2.00000000E+00
					 2.50000000E-01	 5.00000000E-01	 2.00000000E+00
					 2.50000000E-01	 1.00000000E+00	 2.00000000E+00
					-7.45058000E-09	 5.00000000E-01	 1.50000000E+00
					-7.45058000E-09	 7.50000000E-01	 2.00000000E+00
					-7.45058000E-09	 1.00000000E+00	 1.50000000E+00
					-7.45058000E-09	-1.49012000E-08	 2.00000000E+00
					 2.50000000E-01	-1.49012000E-08	 2.00000000E+00
					-7.45058000E-09	-1.49012000E-08	 1.50000000E+00
					-7.45058000E-09	 2.50000000E-01	 2.00000000E+00
					 1.00000000E+00	 5.00000000E-01	 3.00000000E+00
					 1.00000000E+00	 1.00000000E+00	 3.00000000E+00
					 5.00000000E-01	 5.00000000E-01	 3.00000000E+00
					 5.00000000E-01	 1.00000000E+00	 3.00000000E+00
					 1.00000000E+00	 5.00000000E-01	 2.50000000E+00
					 1.00000000E+00	 7.50000000E-01	 3.00000000E+00
					 1.00000000E+00	 1.00000000E+00	 2.50000000E+00
					 7.50000000E-01	 5.00000000E-01	 3.00000000E+00
					 7.50000000E-01	 1.00000000E+00	 3.00000000E+00
					 5.00000000E-01	 5.00000000E-01	 2.50000000E+00
					 5.00000000E-01	 7.50000000E-01	 3.00000000E+00
					 5.00000000E-01	 1.00000000E+00	 2.50000000E+00
					 1.00000000E+00	-1.49012000E-08	 3.00000000E+00
					 5.00000000E-01	-1.49012000E-08	 3.00000000E+00
					 1.00000000E+00	-1.49012000E-08	 2.50000000E+00
					 1.00000000E+00	 2.50000000E-01	 3.00000000E+00
					 7.50000000E-01	-1.49012000E-08	 3.00000000E+00
					 5.00000000E-01	-1.49012000E-08	 2.50000000E+00
					 5.00000000E-01	 2.50000000E-01	 3.00000000E+00
					-7.45058000E-09	 5.00000000E-01	 3.00000000E+00
					-7.45058000E-09	 1.00000000E+00	 3.00000000E+00
					 2.50000000E-01	 5.00000000E-01	 3.00000000E+00
					 2.50000000E-01	 1.00000000E+00	 3.00000000E+00
					-7.45058000E-09	 5.00000000E-01	 2.50000000E+00
					-7.45058000E-09	 7.50000000E-01	 3.00000000E+00
					-7.45058000E-09	 1.00000000E+00	 2.50000000E+00
					-7.45058000E-09	-1.49012000E-08	 3.00000000E+00
					 2.50000000E-01	-1.49012000E-08	 3.00000000E+00
					-7.45058000E-09	-1.49012000E-08	 2.50000000E+00
					-7.45058000E-09	 2.50000000E-01	 3.00000000E+00
					 1.00000000E+00	 5.00000000E-01	 4.00000000E+00
					 1.00000000E+00	 1.00000000E+00	 4.00000000E+00
					 5.00000000E-01	 5.00000000E-01	 4.00000000E+00
					 5.00000000E-01	 1.00000000E+00	 4.00000000E+00
					 1.00000000E+00	 5.00000000E-01	 3.50000000E+00
					 1.00000000E+00	 7.50000000E-01	 4.00000000E+00
					 1.00000000E+00	 1.00000000E+00	 3.50000000E+00
					 7.50000000E-01	 5.00000000E-01	 4.00000000E+00
					 7.50000000E-01	 1.00000000E+00	 4.00000000E+00
					 5.00000000E-01	 5.00000000E-01	 3.50000000E+00
					 5.00000000E-01	 7.50000000E-01	 4.00000000E+00
					 5.00000000E-01	 1.00000000E+00	 3.50000000E+00
					 1.00000000E+00	-1.49012000E-08	 4.00000000E+00
					 5.00000000E-01	-1.49012000E-08	 4.00000000E+00
					 1.00000000E+00	-1.49012000E-08	 3.50000000E+00
					 1.00000000E+00	 2.50000000E-01	 4.00000000E+00
					 7.50000000E-01	-1.49012000E-08	 4.00000000E+00
					 5.00000000E-01	-1.49012000E-08	 3.50000000E+00
					 5.00000000E-01	 2.50000000E-01	 4.00000000E+00
					-7.45058000E-09	 5.00000000E-01	 4.00000000E+00
					-7.45058000E-09	 1.00000000E+00	 4.00000000E+00
					 2.50000000E-01	 5.00000000E-01	 4.00000000E+00
					 2.50000000E-01	 1.00000000E+00	 4.00000000E+00
					-7.45058000E-09	 5.00000000E-01	 3.50000000E+00
					-7.45058000E-09	 7.50000000E-01	 4.00000000E+00
					-7.45058000E-09	 1.00000000E+00	 3.50000000E+00
					-7.45058000E-09	-1.49012000E-08	 4.00000000E+00
					 2.50000000E-01	-1.49012000E-08	 4.00000000E+00
					-7.45058000E-09	-1.49012000E-08	 3.50000000E+00
					-7.45058000E-09	 2.50000000E-01	 4.00000000E+00
					 1.00000000E+00	 5.00000000E-01	 5.00000000E+00
					 1.00000000E+00	 1.00000000E+00	 5.00000000E+00
					 5.00000000E-01	 5.00000000E-01	 5.00000000E+00
					 5.00000000E-01	 1.00000000E+00	 5.00000000E+00
					 1.00000000E+00	 5.00000000E-01	 4.50000000E+00
					 1.00000000E+00	 7.50000000E-01	 5.00000000E+00
					 1.00000000E+00	 1.00000000E+00	 4.50000000E+00
					 7.50000000E-01	 5.00000000E-01	 5.00000000E+00
					 7.50000000E-01	 1.00000000E+00	 5.00000000E+00
					 5.00000000E-01	 5.00000000E-01	 4.50000000E+00
					 5.00000000E-01	 7.50000000E-01	 5.00000000E+00
					 5.00000000E-01	 1.00000000E+00	 4.50000000E+00
					 1.00000000E+00	-1.49012000E-08	 5.00000000E+00
					 5.00000000E-01	-1.49012000E-08	 5.00000000E+00
					 1.00000000E+00	-1.49012000E-08	 4.50000000E+00
					 1.00000000E+00	 2.50000000E-01	 5.00000000E+00
					 7.50000000E-01	-1.49012000E-08	 5.00000000E+00
					 5.00000000E-01	-1.49012000E-08	 4.50000000E+00
					 5.00000000E-01	 2.50000000E-01	 5.00000000E+00
					-7.45058000E-09	 5.00000000E-01	 5.00000000E+00
					-7.45058000E-09	 1.00000000E+00	 5.00000000E+00
					 2.50000000E-01	 5.00000000E-01	 5.00000000E+00
					 2.50000000E-01	 1.00000000E+00	 5.00000000E+00
					-7.45058000E-09	 5.00000000E-01	 4.50000000E+00
					-7.45058000E-09	 7.50000000E-01	 5.00000000E+00
					-7.45058000E-09	 1.00000000E+00	 4.50000000E+00
					-7.45058000E-09	-1.49012000E-08	 5.00000000E+00
					 2.50000000E-01	-1.49012000E-08	 5.00000000E+00
					-7.45058000E-09	-1.49012000E-08	 4.50000000E+00
					-7.45058000E-09	 2.50000000E-01	 5.00000000E+00
					 1.00000000E+00	 5.00000000E-01	 6.00000000E+00
					 1.00000000E+00	 1.00000000E+00	 6.00000000E+00
					 5.00000000E-01	 5.00000000E-01	 6.00000000E+00
					 5.00000000E-01	 1.00000000E+00	 6.00000000E+00
					 1.00000000E+00	 5.00000000E-01	 5.50000000E+00
					 1.00000000E+00	 7.50000000E-01	 6.00000000E+00
					 1.00000000E+00	 1.00000000E+00	 5.50000000E+00
					 7.50000000E-01	 5.00000000E-01	 6.00000000E+00
					 7.50000000E-01	 1.00000000E+00	 6.00000000E+00
					 5.00000000E-01	 5.00000000E-01	 5.50000000E+00
					 5.00000000E-01	 7.50000000E-01	 6.00000000E+00
					 5.00000000E-01	 1.00000000E+00	 5.50000000E+00
					 1.00000000E+00	-1.49012000E-08	 6.00000000E+00
[...]
			<PointData>
				<DataArray type="Float32" Name="U" NumberOfComponents="3" ComponentName0="D1" ComponentName1="D2" ComponentName2="D3" format="ascii">
					 0.00000000E+00	 0.00000000E+00	 0.00000000E+00
					 0.00000000E+00	 0.00000000E+00	 0.00000000E+00
					-2.25527000E-05	-1.51388000E-03	-1.06145000E-05
					 3.96272000E-04	-1.72200000E-03	 1.96476000E-03
					 0.00000000E+00	 0.00000000E+00	 0.00000000E+00
					 0.00000000E+00	 0.00000000E+00	 0.00000000E+00
					-2.63656000E-05	-8.64800000E-04	-1.87997000E-05
					 8.31302000E-04	-1.08761000E-03	 1.94501000E-03
					 0.00000000E+00	 0.00000000E+00	 0.00000000E+00
					-9.22919000E-06	-1.33606000E-04	-3.26730000E-06
					 1.87738000E-04	-1.55588000E-03	 9.62227000E-04
					 7.06816000E-05	-2.96592000E-04	 7.59235000E-04
					 0.00000000E+00	 0.00000000E+00	 0.00000000E+00
					 0.00000000E+00	 0.00000000E+00	 0.00000000E+00
					-2.49209000E-05	-1.24880000E-03	-1.58623000E-05
					 6.14671000E-04	-1.46718000E-03	 2.02090000E-03
					 0.00000000E+00	 0.00000000E+00	 0.00000000E+00
					-1.35140000E-05	 1.11852000E-04	-8.92429000E-06
					 4.01178000E-04	-9.12547000E-04	 1.01866000E-03
					 3.78824000E-04	-6.09843000E-05	 7.04410000E-04
					 0.00000000E+00	 0.00000000E+00	 0.00000000E+00
					-4.37592000E-04	-1.70777000E-03	-1.98836000E-03
					 0.00000000E+00	 0.00000000E+00	 0.00000000E+00
					-8.78312000E-04	-1.07832000E-03	-1.98358000E-03
					 0.00000000E+00	 0.00000000E+00	 0.00000000E+00
					-8.44791000E-05	-2.90338000E-04	-7.63241000E-04
					-2.32094000E-04	-1.54660000E-03	-9.83808000E-04
					 0.00000000E+00	 0.00000000E+00	 0.00000000E+00
					-6.58840000E-04	-1.45551000E-03	-2.05524000E-03
					 0.00000000E+00	 0.00000000E+00	 0.00000000E+00
					-3.99729000E-04	-6.20941000E-05	-7.21127000E-04
					-4.51729000E-04	-9.06895000E-04	-1.05667000E-03
					 0.00000000E+00	 0.00000000E+00	 0.00000000E+00
					 0.00000000E+00	 0.00000000E+00	 0.00000000E+00
					-2.61656000E-05	 1.95048000E-04	-2.31427000E-05
					 1.25780000E-03	-2.08850000E-05	 1.95153000E-03
					 0.00000000E+00	 0.00000000E+00	 0.00000000E+00
					 0.00000000E+00	 0.00000000E+00	 0.00000000E+00
					-2.66849000E-05	-3.97048000E-04	-2.04633000E-05
					 1.04211000E-03	-6.12950000E-04	 1.84306000E-03
					 0.00000000E+00	 0.00000000E+00	 0.00000000E+00
					-1.67589000E-05	 6.43054000E-04	-1.43579000E-05
					 6.18128000E-04	 1.48924000E-04	 1.12164000E-03
					 6.50236000E-04	 4.50112000E-04	 7.45694000E-04
					 0.00000000E+00	 0.00000000E+00	 0.00000000E+00
					-1.30385000E-03	-1.53115000E-05	-1.99777000E-03
					 0.00000000E+00	 0.00000000E+00	 0.00000000E+00
					-1.08938000E-03	-6.05190000E-04	-1.88323000E-03
					 0.00000000E+00	 0.00000000E+00	 0.00000000E+00
					-6.77282000E-04	 4.42470000E-04	-7.75288000E-04
					-6.68504000E-04	 1.51741000E-04	-1.16869000E-03
					-4.46111000E-05	-9.54277000E-03	-7.33695000E-05
					 1.31292000E-03	-9.79512000E-03	 5.14967000E-03
					-4.54704000E-05	-7.94446000E-03	-6.05797000E-05
					 1.77582000E-03	-8.20518000E-03	 5.17354000E-03
					-3.54753000E-05	-4.60425000E-03	-3.16958000E-05
					 6.37267000E-04	-9.60752000E-03	 2.43879000E-03
					 8.41149000E-04	-4.84124000E-03	 3.54639000E-03
					-4.58260000E-05	-8.80261000E-03	-6.75521000E-05
					 1.54465000E-03	-9.06064000E-03	 5.23154000E-03
					-3.74478000E-05	-3.47831000E-03	-3.27663000E-05
					 8.67351000E-04	-8.01307000E-03	 2.52485000E-03
					 1.32648000E-03	-3.72104000E-03	 3.54373000E-03
					-1.40956000E-03	-9.74695000E-03	-5.30180000E-03
					-1.87330000E-03	-8.14580000E-03	-5.29969000E-03
					-9.14187000E-04	-4.81736000E-03	-3.61634000E-03
					-7.28460000E-04	-9.58603000E-03	-2.58583000E-03
					-1.64293000E-03	-9.00498000E-03	-5.37320000E-03
					-1.40189000E-03	-3.69318000E-03	-3.61308000E-03
					-9.59910000E-04	-7.98387000E-03	-2.64695000E-03
					-4.24469000E-05	-5.89570000E-03	-4.52632000E-05
					 2.25683000E-03	-6.14587000E-03	 5.17510000E-03
					-4.42748000E-05	-6.97741000E-03	-5.31892000E-05
					 2.01605000E-03	-7.23865000E-03	 5.12513000E-03
					-3.56097000E-05	-1.87671000E-03	-3.00290000E-05
					 1.10227000E-03	-5.96034000E-03	 2.58352000E-03
					 1.82599000E-03	-2.10750000E-03	 3.54869000E-03
					-2.34692000E-03	-6.07425000E-03	-5.26928000E-03
					-2.11114000E-03	-7.17457000E-03	-5.23486000E-03
					-1.89692000E-03	-2.07509000E-03	-3.60946000E-03
					-1.18786000E-03	-5.92302000E-03	-2.67509000E-03
					-4.86495000E-05	-2.39048000E-02	-2.11990000E-04
					 2.10823000E-03	-2.40992000E-02	 7.43509000E-03
					-4.92587000E-05	-2.16296000E-02	-1.71916000E-04
					 2.34907000E-03	-2.18199000E-02	 7.49454000E-03
					-4.86265000E-05	-1.61505000E-02	-1.35384000E-04
					 1.02736000E-03	-2.39718000E-02	 3.53526000E-03
					 1.76876000E-03	-1.63796000E-02	 6.46719000E-03
					-4.87890000E-05	-2.27987000E-02	-1.92302000E-04
					 2.22896000E-03	-2.29884000E-02	 7.49911000E-03
					-4.99812000E-05	-1.41534000E-02	-1.07720000E-04
					 1.15052000E-03	-2.16954000E-02	 3.61648000E-03
					 2.12352000E-03	-1.43821000E-02	 6.51687000E-03
					-2.21275000E-03	-2.39795000E-02	-7.86210000E-03
					-2.45061000E-03	-2.16891000E-02	-7.84239000E-03
					-1.87485000E-03	-1.62961000E-02	-6.74177000E-03
					-1.12663000E-03	-2.39140000E-02	-3.96062000E-03
					-2.33225000E-03	-2.28612000E-02	-7.88626000E-03
					-2.22982000E-03	-1.42857000E-02	-6.73697000E-03
					-1.24972000E-03	-2.16304000E-02	-3.96151000E-03
					-4.58431000E-05	-1.91025000E-02	-1.27364000E-04
					 2.60675000E-03	-1.92913000E-02	 7.51626000E-03
					-4.86229000E-05	-2.03956000E-02	-1.50427000E-04
					 2.47715000E-03	-2.05857000E-02	 7.49525000E-03
					-4.75543000E-05	-1.17972000E-02	-7.73700000E-05
					 1.28086000E-03	-1.91666000E-02	 3.66122000E-03
					 2.49993000E-03	-1.20198000E-02	 6.51972000E-03
					-2.69767000E-03	-1.91576000E-02	-7.77625000E-03
					-2.57485000E-03	-2.04528000E-02	-7.80197000E-03
					-2.59926000E-03	-1.19136000E-02	-6.67968000E-03
					-1.37225000E-03	-1.91005000E-02	-3.91660000E-03
					-3.80406000E-05	-4.09333000E-02	-3.71334000E-04
					 2.32773000E-03	-4.11013000E-02	 8.44996000E-03
					-3.47008000E-05	-3.85015000E-02	-3.24108000E-04
					 2.47752000E-03	-3.86611000E-02	 8.49767000E-03
					-4.24530000E-05	-3.22587000E-02	-2.91686000E-04
					 1.14222000E-03	-4.10016000E-02	 4.04677000E-03
					 2.28798000E-03	-3.24403000E-02	 8.01930000E-03
					-3.65481000E-05	-3.97356000E-02	-3.48565000E-04
					 2.40248000E-03	-3.98969000E-02	 8.46819000E-03
					-4.09844000E-05	-2.98512000E-02	-2.45158000E-04
					 1.22112000E-03	-3.85657000E-02	 4.09059000E-03
					 2.45657000E-03	-3.00235000E-02	 8.07640000E-03
					-2.40116000E-03	-4.09313000E-02	-9.19780000E-03
					-2.54268000E-03	-3.84936000E-02	-9.15075000E-03
					-2.37474000E-03	-3.22913000E-02	-8.60596000E-03
					-1.21739000E-03	-4.09153000E-02	-4.79125000E-03
					-2.47200000E-03	-3.97285000E-02	-9.17006000E-03
					-2.53678000E-03	-2.98712000E-02	-8.57127000E-03
					-1.28875000E-03	-3.84815000E-02	-4.74028000E-03
					-2.86570000E-05	-3.59126000E-02	-2.71382000E-04
					 2.63395000E-03	-3.60722000E-02	 8.55200000E-03
					-3.22322000E-05	-3.72242000E-02	-2.97995000E-04
					 2.55567000E-03	-3.73833000E-02	 8.52648000E-03
					-3.64243000E-05	-2.72636000E-02	-1.93589000E-04
					 1.30349000E-03	-3.59753000E-02	 4.14211000E-03
					 2.63866000E-03	-2.74343000E-02	 8.11680000E-03
					-2.68662000E-03	-3.59086000E-02	-9.09947000E-03
					-2.61510000E-03	-3.72170000E-02	-9.12666000E-03
					-2.70650000E-03	-2.72860000E-02	-8.51016000E-03
					-1.35942000E-03	-3.58945000E-02	-4.68689000E-03
					-3.05718000E-05	-5.95519000E-02	-5.57560000E-04
					 2.26396000E-03	-5.97573000E-02	 9.44400000E-03
					-2.22177000E-05	-5.71526000E-02	-5.04076000E-04
					 2.47840000E-03	-5.73587000E-02	 9.49514000E-03
					-3.61171000E-05	-4.99521000E-02	-4.58477000E-04
					 1.11718000E-03	-5.96272000E-02	 4.45757000E-03
					 2.29093000E-03	-5.01359000E-02	 8.91014000E-03
					-2.76879000E-05	-5.83791000E-02	-5.31564000E-04
					 2.37084000E-03	-5.85851000E-02	 9.46421000E-03
					-3.09522000E-05	-4.75382000E-02	-4.09336000E-04
					 1.22788000E-03	-5.72271000E-02	 4.50671000E-03
					 2.47180000E-03	-4.77201000E-02	 8.95439000E-03
					-2.31895000E-03	-5.95481000E-02	-1.05662000E-02
					-2.52298000E-03	-5.71539000E-02	-1.05103000E-02
					-2.35900000E-03	-4.99494000E-02	-9.83426000E-03
					-1.17665000E-03	-5.95220000E-02	-5.57483000E-03
					-2.42168000E-03	-5.83801000E-02	-1.05342000E-02
					-2.53185000E-03	-4.75364000E-02	-9.77910000E-03
					-1.27202000E-03	-5.71258000E-02	-5.51669000E-03
					-1.13492000E-05	-5.45509000E-02	-4.42790000E-04
					 2.69374000E-03	-5.47595000E-02	 9.56116000E-03
					-1.62119000E-05	-5.58783000E-02	-4.74561000E-04
					 2.58569000E-03	-5.60857000E-02	 9.52392000E-03
					-2.27117000E-05	-4.49481000E-02	-3.52983000E-04
					 1.34100000E-03	-5.46276000E-02	 4.57324000E-03
					 2.65335000E-03	-4.51335000E-02	 9.01896000E-03
					-2.72347000E-03	-5.45448000E-02	-1.04538000E-02
					-2.62293000E-03	-5.58774000E-02	-1.04797000E-02
					-2.70059000E-03	-4.49455000E-02	-9.72990000E-03
					-1.36541000E-03	-5.45202000E-02	-5.46088000E-03
					-1.98243000E-05	-8.11047000E-02	-8.02301000E-04
					 2.30455000E-03	-8.13206000E-02	 1.05928000E-02
					-1.02738000E-05	-7.86936000E-02	-7.40493000E-04
					 2.48943000E-03	-7.89103000E-02	 1.06692000E-02
					-2.48860000E-05	-6.99107000E-02	-6.69913000E-04
					 1.14319000E-03	-8.11881000E-02	 4.85824000E-03
					 2.26160000E-03	-7.01223000E-02	 1.00535000E-02
					-1.66548000E-05	-7.99217000E-02	-7.71368000E-04
					 2.39557000E-03	-8.01387000E-02	 1.06416000E-02
					-1.46596000E-05	-6.75180000E-02	-6.12906000E-04
					 1.24002000E-03	-7.87762000E-02	 4.93647000E-03
					 2.48267000E-03	-6.77312000E-02	 1.01143000E-02
					-2.33597000E-03	-8.10550000E-02	-1.22000000E-02
					-2.51096000E-03	-7.86502000E-02	-1.21526000E-02
					-2.30268000E-03	-6.98844000E-02	-1.13993000E-02
					-1.18022000E-03	-8.10579000E-02	-6.46285000E-03
					-2.42337000E-03	-7.98774000E-02	-1.21874000E-02
					-2.51187000E-03	-6.75000000E-02	-1.13463000E-02
					-1.26058000E-03	-7.86504000E-02	-6.41777000E-03
					 1.55662000E-06	-7.61084000E-02	-6.77516000E-04
					 2.67538000E-03	-7.63281000E-02	 1.07199000E-02
					-3.35577000E-06	-7.74241000E-02	-7.09427000E-04
					 2.58320000E-03	-7.76424000E-02	 1.07008000E-02
					-2.24891000E-06	-6.49172000E-02	-5.50561000E-04
					 1.33852000E-03	-7.61937000E-02	 4.98878000E-03
					 2.70453000E-03	-6.51318000E-02	 1.01756000E-02
					-2.68283000E-03	-7.60559000E-02	-1.20767000E-02
					-2.59753000E-03	-7.73780000E-02	-1.21215000E-02
					-2.71731000E-03	-6.48905000E-02	-1.12828000E-02
					-1.33814000E-03	-7.60603000E-02	-6.34408000E-03
					 1.40777000E-06	-1.05269000E-01	-1.10114000E-03
					 2.56386000E-03	-1.05429000E-01	 1.08894000E-02
					 9.56303000E-06	-1.02720000E-01	-1.03624000E-03
					 2.56908000E-03	-1.02869000E-01	 1.09582000E-02
					-9.06558000E-06	-9.30403000E-02	-9.52458000E-04
					 1.28181000E-03	-1.05349000E-01	 4.85833000E-03
					 2.43223000E-03	-9.32288000E-02	 1.08731000E-02
					 5.31853000E-06	-1.03992000E-01	-1.06782000E-03
					 2.56811000E-03	-1.04146000E-01	 1.09385000E-02
					-1.00043000E-06	-9.05628000E-02	-8.85448000E-04
					 1.29111000E-03	-1.02795000E-01	 4.93428000E-03
					 2.52662000E-03	-9.07487000E-02	 1.09601000E-02
					-2.55016000E-03	-1.05119000E-01	-1.30909000E-02
					-2.54810000E-03	-1.02571000E-01	-1.30310000E-02
					-2.44412000E-03	-9.29393000E-02	-1.27755000E-02
					-1.27602000E-03	-1.05195000E-01	-7.06195000E-03
					-2.54900000E-03	-1.03844000E-01	-1.30728000E-02
					-2.53036000E-03	-9.04640000E-02	-1.27288000E-02
					-1.27149000E-03	-1.02648000E-01	-7.00757000E-03
					 1.58799000E-05	-1.00161000E-01	-9.69654000E-04
					 2.57127000E-03	-1.00315000E-01	 1.10026000E-02
					 1.33444000E-05	-1.01442000E-01	-1.00378000E-03
					 2.57022000E-03	-1.01591000E-01	 1.09819000E-02
					 7.39055000E-06	-8.79930000E-02	-8.19566000E-04
					 1.29637000E-03	-1.00240000E-01	 4.98538000E-03
					 2.61952000E-03	-8.81846000E-02	 1.10034000E-02
					-2.54692000E-03	-1.00013000E-01	-1.29438000E-02
					-2.54840000E-03	-1.01293000E-01	-1.29913000E-02
					-2.61569000E-03	-8.78889000E-02	-1.26408000E-02
					-1.26650000E-03	-1.00089000E-01	-6.92545000E-03
					-1.75338000E-05	-1.29238000E-01	-1.36967000E-03
					 2.54233000E-03	-1.29380000E-01	 1.05245000E-02
					 1.35847000E-06	-1.26654000E-01	-1.32367000E-03
					 2.54381000E-03	-1.26779000E-01	 1.05327000E-02
					-7.02153000E-07	-1.17331000E-01	-1.23545000E-03
					 1.24980000E-03	-1.29313000E-01	 4.59901000E-03
					 2.59396000E-03	-1.17497000E-01	 1.07137000E-02
					-9.65076000E-06	-1.27951000E-01	-1.34906000E-03
					 2.54427000E-03	-1.28075000E-01	 1.05211000E-02
					 9.67290000E-06	-1.14760000E-01	-1.18184000E-03
					 1.26481000E-03	-1.26718000E-01	 4.61674000E-03
					 2.57408000E-03	-1.14904000E-01	 1.07449000E-02
					-2.55565000E-03	-1.29090000E-01	-1.32838000E-02
					-2.53312000E-03	-1.26511000E-01	-1.31957000E-02
					-2.57680000E-03	-1.17185000E-01	-1.31965000E-02
					-1.27916000E-03	-1.29167000E-01	-7.34417000E-03
					-2.54687000E-03	-1.27802000E-01	-1.32371000E-02
					-2.54872000E-03	-1.14614000E-01	-1.31198000E-02
					-1.25905000E-03	-1.26587000E-01	-7.26844000E-03
					 1.94358000E-05	-1.24096000E-01	-1.26638000E-03
					 2.53151000E-03	-1.24221000E-01	 1.05626000E-02
					 1.19296000E-05	-1.25364000E-01	-1.29542000E-03
					 2.53727000E-03	-1.25489000E-01	 1.05434000E-02
					 1.98038000E-05	-1.12212000E-01	-1.11980000E-03
					 1.27460000E-03	-1.24160000E-01	 4.65713000E-03
					 2.54955000E-03	-1.12355000E-01	 1.07824000E-02
					-2.49798000E-03	-1.23948000E-01	-1.31072000E-02
					-2.51327000E-03	-1.25220000E-01	-1.31474000E-02
					-2.51537000E-03	-1.12064000E-01	-1.30330000E-02
					-1.23729000E-03	-1.24027000E-01	-7.19331000E-03
					 0.00000000E+00	 0.00000000E+00	 0.00000000E+00
					 0.00000000E+00	 0.00000000E+00	 0.00000000E+00
					 5.25659000E-05	-8.54079000E-03	 3.00496000E-05
					-1.78401000E-03	-8.97131000E-03	 7.62137000E-03
					 0.00000000E+00	 0.00000000E+00	 0.00000000E+00
					 0.00000000E+00	 0.00000000E+00	 0.00000000E+00
					 7.28324000E-05	-9.97565000E-03	 5.15592000E-05
					-9.57100000E-04	-1.04363000E-02	 7.76480000E-03
					 0.00000000E+00	 0.00000000E+00	 0.00000000E+00
					 1.54087000E-05	-2.05837000E-03	 1.74865000E-05
					-8.68519000E-04	-8.59971000E-03	 3.74304000E-03
					-1.58974000E-03	-2.74872000E-03	 4.12247000E-03
					 0.00000000E+00	 0.00000000E+00	 0.00000000E+00
					 0.00000000E+00	 0.00000000E+00	 0.00000000E+00
					 6.22870000E-05	-9.40871000E-03	 3.94376000E-05
					-1.36319000E-03	-9.85033000E-03	 7.61026000E-03
					 0.00000000E+00	 0.00000000E+00	 0.00000000E+00
					 2.36589000E-05	-3.02686000E-03	 2.96432000E-05
					-4.42044000E-04	-1.00405000E-02	 3.73341000E-03
					-4.45279000E-04	-3.71335000E-03	 4.05070000E-03
					 0.00000000E+00	 0.00000000E+00	 0.00000000E+00
					 1.88628000E-03	-8.79410000E-03	-7.57987000E-03
					 0.00000000E+00	 0.00000000E+00	 0.00000000E+00
					 1.10762000E-03	-1.02546000E-02	-7.68248000E-03
					 0.00000000E+00	 0.00000000E+00	 0.00000000E+00
					 1.61638000E-03	-2.66339000E-03	-4.09080000E-03
					 9.73498000E-04	-8.51028000E-03	-3.68984000E-03
					 0.00000000E+00	 0.00000000E+00	 0.00000000E+00
					 1.49023000E-03	-9.67110000E-03	-7.55052000E-03
					 0.00000000E+00	 0.00000000E+00	 0.00000000E+00
					 4.94151000E-04	-3.62498000E-03	-3.99220000E-03
					 5.89192000E-04	-9.95262000E-03	-3.63821000E-03
					 0.00000000E+00	 0.00000000E+00	 0.00000000E+00
					 0.00000000E+00	 0.00000000E+00	 0.00000000E+00
					 9.63535000E-05	-1.06048000E-02	 9.40104000E-05
					-1.15940000E-04	-1.10232000E-02	 7.68864000E-03
					 0.00000000E+00	 0.00000000E+00	 0.00000000E+00
					 0.00000000E+00	 0.00000000E+00	 0.00000000E+00
					 8.35168000E-05	-1.04384000E-02	 6.69812000E-05
					-5.43891000E-04	-1.08772000E-02	 7.84771000E-03
					 0.00000000E+00	 0.00000000E+00	 0.00000000E+00
					 3.95275000E-05	-2.99583000E-03	 6.18081000E-05
					-1.03343000E-05	-1.06525000E-02	 3.59999000E-03
					 7.47754000E-04	-3.65022000E-03	 4.16754000E-03
					 0.00000000E+00	 0.00000000E+00	 0.00000000E+00
					 3.14534000E-04	-1.08465000E-02	-7.51768000E-03
					 0.00000000E+00	 0.00000000E+00	 0.00000000E+00
					 7.15065000E-04	-1.06986000E-02	-7.73399000E-03
					 0.00000000E+00	 0.00000000E+00	 0.00000000E+00
					-6.66853000E-04	-3.55159000E-03	-4.04678000E-03
					 2.06267000E-04	-1.05724000E-02	-3.41714000E-03
					 1.71300000E-04	-2.86279000E-02	-1.70754000E-05
					-2.52784000E-03	-2.90026000E-02	 1.16820000E-02
					 2.08886000E-04	-3.11171000E-02	-7.53167000E-07
					-2.06942000E-03	-3.14916000E-02	 1.17310000E-02
					 1.06873000E-04	-1.76405000E-02	 1.98909000E-05
					-1.18158000E-03	-2.87789000E-02	 5.84430000E-03
					-2.16262000E-03	-1.81166000E-02	 1.00210000E-02
					 1.89381000E-04	-2.99121000E-02	-1.15726000E-05
					-2.29997000E-03	-3.02814000E-02	 1.16366000E-02
					 1.34182000E-04	-1.96153000E-02	 3.82432000E-05
					-9.25170000E-04	-3.12684000E-02	 5.81177000E-03
					-1.52936000E-03	-2.00831000E-02	 1.00925000E-02
					 2.87076000E-03	-2.86554000E-02	-1.17257000E-02
					 2.47876000E-03	-3.11478000E-02	-1.17399000E-02
					 2.37194000E-03	-1.78540000E-02	-1.00023000E-02
					 1.52355000E-03	-2.86057000E-02	-5.88125000E-03
					 2.67697000E-03	-2.99438000E-02	-1.16662000E-02
					 1.79809000E-03	-1.98191000E-02	-1.00344000E-02
					 1.34501000E-03	-3.11001000E-02	-5.81247000E-03
					 2.41552000E-04	-3.31772000E-02	 2.79016000E-05
					-1.59810000E-03	-3.35431000E-02	 1.17294000E-02
					 2.25707000E-04	-3.21846000E-02	 1.37116000E-05
					-1.83194000E-03	-3.25849000E-02	 1.18274000E-02
					 1.63666000E-04	-2.09710000E-02	 7.53596000E-05
					-6.80279000E-04	-3.33180000E-02	 5.73010000E-03
					-8.93271000E-04	-2.14440000E-02	 1.00814000E-02
					 2.10045000E-03	-3.32115000E-02	-1.16815000E-02
					 2.28898000E-03	-3.22151000E-02	-1.18096000E-02
					 1.23526000E-03	-2.11906000E-02	-9.94460000E-03
					 1.16855000E-03	-3.31588000E-02	-5.67264000E-03
					 3.64083000E-04	-5.41777000E-02	-1.65050000E-04
					-3.16295000E-03	-5.44659000E-02	 1.36319000E-02
					 4.05343000E-04	-5.75453000E-02	-1.26477000E-04
					-2.86287000E-03	-5.79564000E-02	 1.36917000E-02
					 2.57001000E-04	-4.08604000E-02	-7.58010000E-05
					-1.39070000E-03	-5.42884000E-02	 6.73494000E-03
					-2.89027000E-03	-4.12163000E-02	 1.28338000E-02
					 3.85968000E-04	-5.58952000E-02	-1.42884000E-04
					-3.01638000E-03	-5.62608000E-02	 1.36078000E-02
					 2.95441000E-04	-4.38361000E-02	-5.56328000E-05
					-1.25240000E-03	-5.77215000E-02	 6.71996000E-03
					-2.52129000E-03	-4.42095000E-02	 1.28804000E-02
					 3.84534000E-03	-5.40508000E-02	-1.39521000E-02
					 3.66766000E-03	-5.74353000E-02	-1.39703000E-02
					 3.39191000E-03	-4.08115000E-02	-1.29893000E-02
					 2.10412000E-03	-5.40822000E-02	-7.05519000E-03
					 3.75487000E-03	-5.57731000E-02	-1.39125000E-02
					 3.10927000E-03	-4.37821000E-02	-1.29967000E-02
					 2.03853000E-03	-5.74632000E-02	-6.99443000E-03
					 4.43912000E-04	-6.07017000E-02	-8.52476000E-05
					-2.67019000E-03	-6.12341000E-02	 1.37086000E-02
					 4.24253000E-04	-5.91689000E-02	-1.08716000E-04
					-2.76945000E-03	-5.95124000E-02	 1.37817000E-02
					 3.41313000E-04	-4.64891000E-02	-2.79452000E-05
					-1.08224000E-03	-6.09427000E-02	 6.66297000E-03
					-2.19323000E-03	-4.69010000E-02	 1.28882000E-02
					 3.51414000E-03	-6.06188000E-02	-1.39325000E-02
					 3.59049000E-03	-5.90511000E-02	-1.40279000E-02
					 2.83293000E-03	-4.64376000E-02	-1.29523000E-02
					 1.97140000E-03	-6.06440000E-02	-6.87860000E-03
					 7.31197000E-04	-8.30372000E-02	-4.36440000E-04
					-3.09182000E-03	-8.31218000E-02	 1.38420000E-02