<?xml version="1.0"?>
<VTKFile type="UnstructuredGrid" version="0.1" byte_order="LittleEndian">
	<UnstructuredGrid>
		<Piece NumberOfPoints="522" NumberOfCells="64">
			<Points>
				<DataArray type="Float64" NumberOfComponents="3" format="ascii">
					 1.00000000E+00	 1.00000000E+00	-5.96046000E-08
					 1.00000000E+00	 5.00000000E-01	-5.96046000E-08
					 1.00000000E+00	 5.00000000E-01	 1.00000000E+00
					 1.00000000E+00	 1.00000000E+00	 1.00000000E+00
					 5.00000000E-01	 1.00000000E+00	-5.96046000E-08
					 5.00000000E-01	 5.00000000E-01	-5.96046000E-08
					 5.00000000E-01	 5.00000000E-01	 1.00000000E+00
					 5.00000000E-01	 1.00000000E+00	 1.00000000E+00
					 1.00000000E+00	 7.50000000E-01	-5.96046000E-08
					 1.00000000E+00	 5.00000000E-01	 5.00000000E-01
					 1.00000000E+00	 7.50000000E-01	 1.00000000E+00
					 1.00000000E+00	 1.00000000E+00	 5.00000000E-01
					 7.50000000E-01	 1.00000000E+00	-5.96046000E-08
					 7.50000000E-01	 5.00000000E-01	-5.96046000E-08
					 7.50000000E-01	 5.00000000E-01	 1.00000000E+00
					 7.50000000E-01	 1.00000000E+00	 1.00000000E+00
					 5.00000000E-01	 7.50000000E-01	-5.96046000E-08
					 5.00000000E-01	 5.00000000E-01	 5.00000000E-01
					 5.00000000E-01	 7.50000000E-01	 1.00000000E+00
					 5.00000000E-01	 1.00000000E+00	 5.00000000E-01
					 1.00000000E+00	-1.49012000E-08	-5.96046000E-08
					 1.00000000E+00	-1.49012000E-08	 1.00000000E+00
					 5.00000000E-01	-1.49012000E-08	-5.96046000E-08
					 5.00000000E-01	-1.49012000E-08	 1.00000000E+00
					 1.00000000E+00	 2.50000000E-01	-5.96046000E-08
					 1.00000000E+00	-1.49012000E-08	 5.00000000E-01
					 1.00000000E+00	 2.50000000E-01	 1.00000000E+00
					 7.50000000E-01	-1.49012000E-08	-5.96046000E-08
					 7.50000000E-01	-1.49012000E-08	 1.00000000E+00
					 5.00000000E-01	 2.50000000E-01	-5.96046000E-08
					 5.00000000E-01	-1.49012000E-08	 5.00000000E-01
					 5.00000000E-01	 2.50000000E-01	 1.00000000E+00
					-7.45058000E-09	 1.00000000E+00	-5.96046000E-08
					-7.45058000E-09	 5.00000000E-01	-5.96046000E-08
					-7.45058000E-09	 5.00000000E-01	 1.00000000E+00
					-7.45058000E-09	 1.00000000E+00	 1.00000000E+00
					 2.50000000E-01	 1.00000000E+00	-5.96046000E-08
					 2.50000000E-01	 5.00000000E-01	-5.96046000E-08
					 2.50000000E-01	 5.00000000E-01	 1.00000000E+00
					 2.50000000E-01	 1.00000000E+00	 1.00000000E+00
					-7.45058000E-09	 7.50000000E-01	-5.96046000E-08
					-7.45058000E-09	 5.00000000E-01	 5.00000000E-01
					-7.45058000E-09	 7.50000000E-01	 1.00000000E+00
					-7.45058000E-09	 1.00000000E+00	 5.00000000E-01
					-7.45058000E-09	-1.49012000E-08	-5.96046000E-08
					-7.45058000E-09	-1.49012000E-08	 1.00000000E+00
					 2.50000000E-01	-1.49012000E-08	-5.96046000E-08
					 2.50000000E-01	-1.49012000E-08	 1.00000000E+00
					-7.45058000E-09	 2.50000000E-01	-5.96046000E-08
					-7.45058000E-09	-1.49012000E-08	 5.00000000E-01
					-7.45058000E-09	 2.50000000E-01	 1.00000000E+00
					 1.00000000E+00	 5.00000000E-01	 2.00000000E+00
					 1.00000000E+00	 1.00000000E+00	 2.00000000E+00
					 5.00000000E-01	 5.00000000E-01	 2.00000000E+00
					 5.00000000E-01	 1.00000000E+00	 2.00000000E+00
					 1.00000000E+00	 5.00000000E-01	 1.50000000E+00
					 1.00000000E+00	 7.50000000E-01	 2.00000000E+00
					 1.00000000E+00	 1.00000000E+00	 1.50000000E+00
					 7.50000000E-01	 5.00000000E-01	 2.00000000E+00
					 7.50000000E-01	 1.00000000E+00	 2.00000000E+00
					 5.00000000E-01	 5.00000000E-01	 1.50000000E+00
					 5.00000000E-01	 7.50000000E-01	 2.00000000E+00
					 5.00000000E-01	 1.00000000E+00	 1.50000000E+00
					 1.00000000E+00	-1.49012000E-08	 2.00000000E+00
					 5.00000000E-01	-1.49012000E-08	 2.00000000E+00
					 1.00000000E+00	-1.49012000E-08	 1.50000000E+00
					 1.00000000E+00	 2.50000000E-01	 2.00000000E+00
					 7.50000000E-01	-1.49012000E-08	 2.00000000E+00
					 5.00000000E-01	-1.49012000E-08	 1.50000000E+00
					 5.00000000E-01	 2.50000000E-01	 2.00000000E+00
					-7.45058000E-09	 5.00000000E-01	 2.00000000E+00
					-7.45058000E-09	 1.00000000E+00	 2.00000000E+00
					 2.50000000E-01	 5.00000000E-01	 2.00000000E+00
					 2.50000000E-01	 1.00000000E+00	 2.00000000E+00
					-7.45058000E-09	 5.00000000E-01	 1.50000000E+00
					-7.45058000E-09	 7.50000000E-01	 2.00000000E+00
					-7.45058000E-09	 1.00000000E+00	 1.50000000E+00
					-7.45058000E-09	-1.49012000E-08	 2.00000000E+00
					 2.50000000E-01	-1.49012000E-08	 2.00000000E+00
					-7.45058000E-09	-1.49012000E-08	 1.50000000E+00
					-7.45058000E-09	 2.50000000E-01	 2.00000000E+00
					 1.00000000E+00	 5.00000000E-01	 3.00000000E+00
					 1.00000000E+00	 1.00000000E+00	 3.00000000E+00
					 5.00000000E-01	 5.00000000E-01	 3.00000000E+00
					 5.00000000E-01	 1.00000000E+00	 3.00000000E+00
					 1.00000000E+00	 5.00000000E-01	 2.50000000E+00
					 1.00000000E+00	 7.50000000E-01	 3.00000000E+00
					 1.00000000E+00	 1.00000000E+00	 2.50000000E+00
					 7.50000000E-01	 5.00000000E-01	 3.00000000E+00
					 7.50000000E-01	 1.00000000E+00	 3.00000000E+00
					 5.00000000E-01	 5.00000000E-01	 2.50000000E+00
					 5.00000000E-01	 7.50000000E-01	 3.00000000E+00
					 5.00000000E-01	 1.00000000E+00	 2.50000000E+00
					 1.00000000E+00	-1.49012000E-08	 3.00000000E+00
					 5.00000000E-01	-1.49012000E-08	 3.00000000E+00
					 1.00000000E+00	-1.49012000E-08	 2.50000000E+00
					 1.00000000E+00	 2.50000000E-01	 3.00000000E+00
					 7.50000000E-01	-1.49012000E-08	 3.00000000E+00
					 5.00000000E-01	-1.49012000E-08	 2.50000000E+00
					 5.00000000E-01	 2.50000000E-01	 3.00000000E+00
					-7.45058000E-09	 5.00000000E-01	 3.00000000E+00
					-7.45058000E-09	 1.00000000E+00	 3.00000000E+00
					 2.50000000E-01	 5.00000000E-01	 3.00000000E+00
					 2.50000000E-01	 1.00000000E+00	 3.00000000E+00
					-7.45058000E-09	 5.00000000E-01	 2.50000000E+00
					-7.45058000E-09	 7.50000000E-01	 3.00000000E+00
					-7.45058000E-09	 1.00000000E+00	 2.50000000E+00
					-7.45058000E-09	-1.49012000E-08	 3.00000000E+00
					 2.50000000E-01	-1.49012000E-08	 3.00000000E+00
					-7.45058000E-09	-1.49012000E-08	 2.50000000E+00
					-7.45058000E-09	 2.50000000E-01	 3.00000000E+00
					 1.00000000E+00	 5.00000000E-01	 4.00000000E+00
					 1.00000000E+00	 1.00000000E+00	 4.00000000E+00
					 5.00000000E-01	 5.00000000E-01	 4.00000000E+00
					 5.00000000E-01	 1.00000000E+00	 4.00000000E+00
					 1.00000000E+00	 5.00000000E-01	 3.50000000E+00
					 1.00000000E+00	 7.50000000E-01	 4.00000000E+00
					 1.00000000E+00	 1.00000000E+00	 3.50000000E+00
					 7.50000000E-01	 5.00000000E-01	 4.00000000E+00
					 7.50000000E-01	 1.00000000E+00	 4.00000000E+00
					 5.00000000E-01	 5.00000000E-01	 3.50000000E+00
					 5.00000000E-01	 7.50000000E-01	 4.00000000E+00
					 5.00000000E-01	 1.00000000E+00	 3.50000000E+00
					 1.00000000E+00	-1.49012000E-08	 4.00000000E+00
					 5.00000000E-01	-1.49012000E-08	 4.00000000E+00
					 1.00000000E+00	-1.49012000E-08	 3.50000000E+00
					 1.00000000E+00	 2.50000000E-01	 4.00000000E+00
					 7.50000000E-01	-1.49012000E-08	 4.00000000E+00
					 5.00000000E-01	-1.49012000E-08	 3.50000000E+00
					 5.00000000E-01	 2.50000000E-01	 4.00000000E+00
					-7.45058000E-09	 5.00000000E-01	 4.00000000E+00
					-7.45058000E-09	 1.00000000E+00	 4.00000000E+00
					 2.50000000E-01	 5.00000000E-01	 4.00000000E+00
					 2.50000000E-01	 1.00000000E+00	 4.00000000E+00
					-7.45058000E-09	 5.00000000E-01	 3.50000000E+00
					-7.45058000E-09	 7.50000000E-01	 4.00000000E+00
					-7.45058000E-09	 1.00000000E+00	 3.50000000E+00
					-7.45058000E-09	-1.49012000E-08	 4.00000000E+00
					 2.50000000E-01	-1.49012000E-08	 4.00000000E+00
					-7.45058000E-09	-1.49012000E-08	 3.50000000E+00
					-7.45058000E-09	 2.50000000E-01	 4.00000000E+00
					 1.00000000E+00	 5.00000000E-01	 5.00000000E+00
					 1.00000000E+00	 1.00000000E+00	 5.00000000E+00
					 5.00000000E-01	 5.00000000E-01	 5.00000000E+00
					 5.00000000E-01	 1.00000000E+00	 5.00000000E+00
					 1.00000000E+00	 5.00000000E-01	 4.50000000E+00
					 1.00000000E+00	 7.50000000E-01	 5.00000000E+00
					 1.00000000E+00	 1.00000000E+00	 4.50000000E+00
					 7.50000000E-01	 5.00000000E-01	 5.00000000E+00
					 7.50000000E-01	 1.00000000E+00	 5.00000000E+00
					 5.00000000E-01	 5.00000000E-01	 4.50000000E+00
					 5.00000000E-01	 7.50000000E-01	 5.00000000E+00
					 5.00000000E-01	 1.00000000E+00	 4.50000000E+00
					 1.00000000E+00	-1.49012000E-08	 5.00000000E+00
					 5.00000000E-01	-1.49012000E-08	 5.00000000E+00
					 1.00000000E+00	-1.49012000E-08	 4.50000000E+00
					 1.00000000E+00	 2.50000000E-01	 5.00000000E+00
					 7.50000000E-01	-1.49012000E-08	 5.00000000E+00
					 5.00000000E-01	-1.49012000E-08	 4.50000000E+00
					 5.00000000E-01	 2.50000000E-01	 5.00000000E+00
					-7.45058000E-09	 5.00000000E-01	 5.00000000E+00
					-7.45058000E-09	 1.00000000E+00	 5.00000000E+00
					 2.50000000E-01	 5.00000000E-01	 5.00000000E+00
					 2.50000000E-01	 1.00000000E+00	 5.00000000E+00
					-7.45058000E-09	 5.00000000E-01	 4.50000000E+00
					-7.45058000E-09	 7.50000000E-01	 5.00000000E+00
					-7.45058000E-09	 1.00000000E+00	 4.50000000E+00
					-7.45058000E-09	-1.49012000E-08	 5.00000000E+00
					 2.50000000E-01	-1.49012000E-08	 5.00000000E+00
					-7.45058000E-09	-1.49012000E-08	 4.50000000E+00
					-7.45058000E-09	 2.50000000E-01	 5.00000000E+00
					 1.00000000E+00	 5.00000000E-01	 6.00000000E+00
					 1.00000000E+00	 1.00000000E+00	 6.00000000E+00
					 5.00000000E-01	 5.00000000E-01	 6.00000000E+00
					 5.00000000E-01	 1.00000000E+00	 6.00000000E+00
					 1.00000000E+00	 5.00000000E-01	 5.50000000E+00
					 1.00000000E+00	 7.50000000E-01	 6.00000000E+00
					 1.00000000E+00	 1.00000000E+00	 5.50000000E+00
					 7.50000000E-01	 5.00000000E-01	 6.00000000E+00
					 7.50000000E-01	 1.00000000E+00	 6.00000000E+00
					 5.00000000E-01	 5.00000000E-01	 5.50000000E+00
					 5.00000000E-01	 7.50000000E-01	 6.00000000E+00
					 5.00000000E-01	 1.00000000E+00	 5.50000000E+00
					 1.00000000E+00	-1.49012000E-08	 6.00000000E+00
[...]
			<PointData>
				<DataArray type="Float32" Name="U" NumberOfComponents="3" ComponentName0="D1" ComponentName1="D2" ComponentName2="D3" format="ascii">
					 0.00000000E+00	 0.00000000E+00	 0.00000000E+00
					 0.00000000E+00	 0.00000000E+00	 0.00000000E+00
					-4.80325000E-07	-1.95987000E-03	-8.33180000E-06
					-3.36237000E-04	-2.06494000E-03	 1.82608000E-03
					 0.00000000E+00	 0.00000000E+00	 0.00000000E+00
					 0.00000000E+00	 0.00000000E+00	 0.00000000E+00
					-1.88768000E-06	-2.18494000E-03	-1.48054000E-05
					-1.06477000E-04	-2.29327000E-03	 1.83303000E-03
					 0.00000000E+00	 0.00000000E+00	 0.00000000E+00
					 2.97008000E-06	-4.43889000E-04	-4.89872000E-06
					-1.71252000E-04	-1.97433000E-03	 9.00971000E-04
					-3.55192000E-04	-6.04798000E-04	 9.49545000E-04
					 0.00000000E+00	 0.00000000E+00	 0.00000000E+00
					 0.00000000E+00	 0.00000000E+00	 0.00000000E+00
					-1.14555000E-06	-2.11043000E-03	-1.17921000E-05
					-2.19994000E-04	-2.21583000E-03	 1.82431000E-03
					 0.00000000E+00	 0.00000000E+00	 0.00000000E+00
					 8.07914000E-07	-6.49892000E-04	-5.99795000E-06
					-5.55619000E-05	-2.20013000E-03	 8.94106000E-04
					-8.07301000E-05	-8.07650000E-04	 9.23639000E-04
					 0.00000000E+00	 0.00000000E+00	 0.00000000E+00
					 3.39685000E-04	-2.05357000E-03	-1.84474000E-03
					 0.00000000E+00	 0.00000000E+00	 0.00000000E+00
					 1.08336000E-04	-2.28911000E-03	-1.86397000E-03
					 0.00000000E+00	 0.00000000E+00	 0.00000000E+00
					 3.64423000E-04	-6.01034000E-04	-9.59343000E-04
					 1.71428000E-04	-1.96783000E-03	-9.18117000E-04
					 0.00000000E+00	 0.00000000E+00	 0.00000000E+00
					 2.22895000E-04	-2.20828000E-03	-1.84988000E-03
					 0.00000000E+00	 0.00000000E+00	 0.00000000E+00
					 8.63933000E-05	-8.08608000E-04	-9.36870000E-04
					 5.36346000E-05	-2.19813000E-03	-9.24086000E-04
					 0.00000000E+00	 0.00000000E+00	 0.00000000E+00
					 0.00000000E+00	 0.00000000E+00	 0.00000000E+00
					-3.61508000E-06	-2.17284000E-03	-1.95912000E-05
					 1.11118000E-04	-2.28100000E-03	 1.81403000E-03
					 0.00000000E+00	 0.00000000E+00	 0.00000000E+00
					 0.00000000E+00	 0.00000000E+00	 0.00000000E+00
					-2.77990000E-06	-2.21691000E-03	-1.73632000E-05
					 7.12001000E-07	-2.32211000E-03	 1.82574000E-03
					 0.00000000E+00	 0.00000000E+00	 0.00000000E+00
					-1.16119000E-06	-6.10190000E-04	-6.82476000E-06
					 5.64492000E-05	-2.18813000E-03	 8.81083000E-04
					 1.94117000E-04	-7.64423000E-04	 9.44469000E-04
					 0.00000000E+00	 0.00000000E+00	 0.00000000E+00
					-1.12081000E-04	-2.28493000E-03	-1.85368000E-03
					 0.00000000E+00	 0.00000000E+00	 0.00000000E+00
					 5.08390000E-08	-2.32130000E-03	-1.86121000E-03
					 0.00000000E+00	 0.00000000E+00	 0.00000000E+00
					-1.92688000E-04	-7.69815000E-04	-9.60811000E-04
					-6.19750000E-05	-2.19147000E-03	-9.20253000E-04
					-1.79411000E-05	-7.22776000E-03	-3.45899000E-05
					-1.92766000E-04	-7.42466000E-03	 3.74265000E-03
					-2.02275000E-05	-7.18399000E-03	-4.07009000E-05
					 2.24655000E-04	-7.39699000E-03	 3.71000000E-03
					-8.96870000E-06	-4.13876000E-03	-1.57476000E-05
					-1.02353000E-04	-7.27809000E-03	 1.87591000E-03
					-3.22129000E-04	-4.29978000E-03	 2.66552000E-03
					-1.90205000E-05	-7.25270000E-03	-3.82281000E-05
					 1.41852000E-05	-7.46210000E-03	 3.76117000E-03
					-1.05139000E-05	-4.30364000E-03	-2.52968000E-05
					 1.01081000E-04	-7.24479000E-03	 1.89657000E-03
					-2.72623000E-05	-4.46933000E-03	 2.63813000E-03
					 1.50317000E-04	-7.40578000E-03	-3.81252000E-03
					-2.69477000E-04	-7.37126000E-03	-3.79174000E-03
					 3.03409000E-04	-4.28906000E-03	-2.70073000E-03
					 6.45472000E-05	-7.26942000E-03	-1.94461000E-03
					-5.80932000E-05	-7.43875000E-03	-3.83892000E-03
					 7.27823000E-06	-4.45886000E-03	-2.68967000E-03
					-1.42924000E-04	-7.23080000E-03	-1.97795000E-03
					-2.25031000E-05	-6.73242000E-03	-4.66452000E-05
					 6.19182000E-04	-6.95897000E-03	 3.73279000E-03
					-2.13120000E-05	-7.00783000E-03	-4.30290000E-05
					 4.21979000E-04	-7.22288000E-03	 3.64990000E-03
					-1.19814000E-05	-4.17073000E-03	-3.35752000E-05
					 3.01760000E-04	-6.80070000E-03	 1.97286000E-03
					 2.42191000E-04	-4.35612000E-03	 2.65023000E-03
					-6.65693000E-04	-6.92840000E-03	-3.82638000E-03
					-4.67558000E-04	-7.19539000E-03	-3.73538000E-03
					-2.63019000E-04	-4.34820000E-03	-2.71585000E-03
					-3.46890000E-04	-6.78283000E-03	-2.06676000E-03
					-3.58879000E-05	-1.86550000E-02	-1.34373000E-04
					 7.62432000E-04	-1.89774000E-02	 7.09127000E-03
					-4.32804000E-05	-1.75539000E-02	-1.21818000E-04
					 1.33951000E-03	-1.78928000E-02	 7.10640000E-03
					-2.53377000E-05	-1.18678000E-02	-7.11371000E-05
					 3.68572000E-04	-1.87388000E-02	 3.36961000E-03
					 1.56392000E-04	-1.21223000E-02	 5.30335000E-03
					-3.97252000E-05	-1.81779000E-02	-1.29983000E-04
					 1.05060000E-03	-1.85148000E-02	 7.20638000E-03
					-3.16944000E-05	-1.14024000E-02	-6.99010000E-05
					 6.48615000E-04	-1.76462000E-02	 3.49298000E-03
					 6.93346000E-04	-1.16792000E-02	 5.28535000E-03
					-8.40398000E-04	-1.88744000E-02	-7.36682000E-03
					-1.42582000E-03	-1.77831000E-02	-7.35778000E-03
					-2.14303000E-04	-1.20720000E-02	-5.44504000E-03
					-4.42377000E-04	-1.86883000E-02	-3.63949000E-03
					-1.13299000E-03	-1.84044000E-02	-7.47422000E-03
					-7.59884000E-04	-1.16217000E-02	-5.42705000E-03
					-7.34747000E-04	-1.75896000E-02	-3.73838000E-03
					-4.56806000E-05	-1.58929000E-02	-1.01377000E-04
					 1.91470000E-03	-1.62264000E-02	 7.12474000E-03
					-4.57205000E-05	-1.67986000E-02	-1.11802000E-04
					 1.62620000E-03	-1.71361000E-02	 7.00867000E-03
					-3.56647000E-05	-1.04169000E-02	-6.59103000E-05
					 9.31217000E-04	-1.59845000E-02	 3.61980000E-03
					 1.20839000E-03	-1.07017000E-02	 5.30850000E-03
					-2.00077000E-03	-1.61166000E-02	-7.33566000E-03
					-1.71436000E-03	-1.70283000E-02	-7.24013000E-03
					-1.27952000E-03	-1.06398000E-02	-5.44479000E-03
					-1.02060000E-03	-1.59268000E-02	-3.82445000E-03
					-4.52361000E-05	-3.85585000E-02	-3.74090000E-04
					 2.28189000E-03	-3.88803000E-02	 1.02873000E-02
					-4.43588000E-05	-3.60150000E-02	-3.19573000E-04
					 2.70075000E-03	-3.63472000E-02	 1.03682000E-02
					-4.23704000E-05	-2.76907000E-02	-2.35711000E-04
					 1.12001000E-03	-3.86626000E-02	 4.80935000E-03
					 1.53740000E-03	-2.80202000E-02	 8.82336000E-03
					-4.49264000E-05	-3.73392000E-02	-3.47533000E-04
					 2.49197000E-03	-3.76683000E-02	 1.04270000E-02
					-4.63788000E-05	-2.58487000E-02	-2.04429000E-04
					 1.33028000E-03	-3.61265000E-02	 4.97531000E-03
					 2.04908000E-03	-2.61860000E-02	 8.87457000E-03
					-2.38644000E-03	-3.86549000E-02	-1.10457000E-02
					-2.79871000E-03	-3.61022000E-02	-1.10161000E-02
					-1.63046000E-03	-2.78575000E-02	-9.30692000E-03
					-1.21452000E-03	-3.85571000E-02	-5.55856000E-03
					-2.59431000E-03	-3.74273000E-02	-1.11337000E-02
					-2.14429000E-03	-2.60117000E-02	-9.29389000E-03
					-1.42176000E-03	-3.60052000E-02	-5.61628000E-03
					-3.97380000E-05	-3.30625000E-02	-2.56284000E-04
					 3.13274000E-03	-3.33923000E-02	 1.04087000E-02
					-4.29552000E-05	-3.45911000E-02	-2.89867000E-04
					 2.91542000E-03	-3.49233000E-02	 1.03153000E-02
					-4.59032000E-05	-2.34999000E-02	-1.63094000E-04
					 1.54524000E-03	-3.31745000E-02	 5.10172000E-03
					 2.57653000E-03	-2.38274000E-02	 8.89906000E-03
					-3.21520000E-03	-3.31379000E-02	-1.09279000E-02
					-3.00720000E-03	-3.46759000E-02	-1.09006000E-02
					-2.66416000E-03	-2.36512000E-02	-9.23327000E-03
					-1.62526000E-03	-3.30453000E-02	-5.61666000E-03
					-4.84056000E-05	-6.40567000E-02	-7.37897000E-04
					 3.61380000E-03	-6.43052000E-02	 1.18636000E-02
					-3.97768000E-05	-6.03147000E-02	-6.29678000E-04
					 3.77698000E-03	-6.05711000E-02	 1.19986000E-02
					-4.90173000E-05	-5.08392000E-02	-5.44254000E-04
					 1.78367000E-03	-6.41580000E-02	 5.42489000E-03
					 2.96879000E-03	-5.11276000E-02	 1.12913000E-02
					-4.37748000E-05	-6.22047000E-02	-6.84597000E-04
					 3.69532000E-03	-6.24595000E-02	 1.20163000E-02
					-4.49605000E-05	-4.76726000E-02	-4.63832000E-04
					 1.86993000E-03	-6.04233000E-02	 5.63052000E-03
					 3.25949000E-03	-4.79713000E-02	 1.14021000E-02
					-3.72602000E-03	-6.39744000E-02	-1.33421000E-02
					-3.86825000E-03	-6.02179000E-02	-1.32623000E-02
					-3.08503000E-03	-5.08464000E-02	-1.23866000E-02
					-1.88451000E-03	-6.40006000E-02	-6.90222000E-03
					-3.79756000E-03	-6.21114000E-02	-1.33879000E-02
					-3.36286000E-03	-4.76647000E-02	-1.23358000E-02
					-1.95317000E-03	-6.02480000E-02	-6.89121000E-03
					-2.85106000E-05	-5.64154000E-02	-5.17604000E-04
					 3.94784000E-03	-5.66777000E-02	 1.20844000E-02
					-3.50289000E-05	-5.83845000E-02	-5.73526000E-04
					 3.86141000E-03	-5.86419000E-02	 1.19858000E-02
					-3.70572000E-05	-4.42214000E-02	-3.77171000E-04
					 1.96150000E-03	-5.65290000E-02	 5.78918000E-03
					 3.56245000E-03	-4.45230000E-02	 1.14610000E-02
					-4.01091000E-03	-5.63135000E-02	-1.31257000E-02
					-3.94022000E-03	-5.82855000E-02	-1.31390000E-02
					-3.64439000E-03	-4.42024000E-02	-1.22204000E-02
					-2.02001000E-03	-5.63441000E-02	-6.82566000E-03
					-3.01544000E-05	-9.14358000E-02	-1.12349000E-03
					 4.82908000E-03	-9.16193000E-02	 1.17865000E-02
					-7.80391000E-06	-8.66140000E-02	-9.86548000E-04
					 4.80618000E-03	-8.67841000E-02	 1.19359000E-02
					-3.87234000E-05	-7.77323000E-02	-9.35864000E-04
					 2.39630000E-03	-9.15330000E-02	 5.23313000E-03
					 4.23951000E-03	-7.79482000E-02	 1.19734000E-02
					-1.85505000E-05	-8.90188000E-02	-1.05560000E-03
					 4.81875000E-03	-8.91949000E-02	 1.19377000E-02
					-2.44600000E-05	-7.34360000E-02	-8.06874000E-04
					 2.39966000E-03	-8.67062000E-02	 5.45262000E-03
					 4.29682000E-03	-7.36518000E-02	 1.21245000E-02
					-4.88287000E-03	-9.12332000E-02	-1.40409000E-02
					-4.81946000E-03	-8.64070000E-02	-1.39167000E-02
					-4.32160000E-03	-7.75803000E-02	-1.38466000E-02
					-2.45580000E-03	-9.13432000E-02	-7.48395000E-03
					-4.85016000E-03	-8.88106000E-02	-1.40549000E-02
					-4.35003000E-03	-7.32770000E-02	-1.37432000E-02
					-2.41510000E-03	-8.65189000E-02	-7.42835000E-03
					 1.26849000E-05	-8.18197000E-02	-8.40517000E-04
					 4.78863000E-03	-8.19909000E-02	 1.20715000E-02
					 2.47831000E-06	-8.42116000E-02	-9.14490000E-04
					 4.79726000E-03	-8.43788000E-02	 1.19381000E-02
					-1.03399000E-05	-6.90906000E-02	-6.74308000E-04
					 2.40256000E-03	-8.19135000E-02	 5.65961000E-03
					 4.35484000E-03	-6.93121000E-02	 1.22353000E-02
					-4.76540000E-03	-8.16149000E-02	-1.37610000E-02
					-4.79330000E-03	-8.40070000E-02	-1.37749000E-02
					-4.37854000E-03	-6.89343000E-02	-1.35928000E-02
					-2.37787000E-03	-8.17230000E-02	-7.34389000E-03
					-2.19175000E-05	-1.17737000E-01	-1.47058000E-03
					 5.60899000E-03	-1.17904000E-01	 1.10883000E-02
					 2.37121000E-05	-1.12144000E-01	-1.31794000E-03
					 5.60076000E-03	-1.12299000E-01	 1.12306000E-02
					-2.71564000E-05	-1.04792000E-01	-1.29824000E-03
					 2.79233000E-03	-1.17823000E-01	 4.78502000E-03
					 5.29225000E-03	-1.04969000E-01	 1.14350000E-02
					-1.71647000E-06	-1.14934000E-01	-1.39401000E-03
					 5.60292000E-03	-1.15093000E-01	 1.11946000E-02
					 8.52440000E-06	-9.95244000E-02	-1.15782000E-03
					 2.81523000E-03	-1.12225000E-01	 4.96550000E-03
					 5.25829000E-03	-9.96830000E-02	 1.15758000E-02
					-5.65070000E-03	-1.17548000E-01	-1.40284000E-02
					-5.55961000E-03	-1.11947000E-01	-1.38632000E-02
					-5.33569000E-03	-1.04592000E-01	-1.40436000E-02
					-2.83586000E-03	-1.17652000E-01	-7.72317000E-03
					-5.60821000E-03	-1.14739000E-01	-1.39828000E-02
					-5.24065000E-03	-9.93200000E-02	-1.39006000E-02
					-2.77033000E-03	-1.12054000E-01	-7.59956000E-03
					 6.61886000E-05	-1.06589000E-01	-1.16819000E-03
					 5.60546000E-03	-1.06744000E-01	 1.13786000E-02
					 4.84220000E-05	-1.09362000E-01	-1.24393000E-03
					 5.60727000E-03	-1.09516000E-01	 1.12600000E-02
					 4.14137000E-05	-9.43067000E-02	-1.00548000E-03
					 2.83717000E-03	-1.06672000E-01	 5.15433000E-03
					 5.23641000E-03	-9.44655000E-02	 1.17283000E-02
					-5.48505000E-03	-1.06379000E-01	-1.37098000E-02
					-5.52065000E-03	-1.09162000E-01	-1.37432000E-02
					-5.16128000E-03	-9.40965000E-02	-1.37457000E-02
					-2.70850000E-03	-1.06490000E-01	-7.48824000E-03
					 4.08027000E-05	-1.42873000E-01	-1.81224000E-03
					 5.85867000E-03	-1.43084000E-01	 1.06803000E-02
					 5.12637000E-05	-1.37022000E-01	-1.62724000E-03
					 5.87124000E-03	-1.37234000E-01	 1.08336000E-02
					-2.04934000E-06	-1.30376000E-01	-1.64572000E-03
					 2.94931000E-03	-1.42977000E-01	 4.42986000E-03
					 5.78463000E-03	-1.30552000E-01	 1.08525000E-02
					 4.83009000E-05	-1.39954000E-01	-1.71485000E-03
					 5.86706000E-03	-1.40166000E-01	 1.07652000E-02
					 3.68948000E-05	-1.24597000E-01	-1.47222000E-03
					 2.95678000E-03	-1.37128000E-01	 4.59807000E-03
					 5.80787000E-03	-1.24771000E-01	 1.10025000E-02
					-5.80305000E-03	-1.42684000E-01	-1.42579000E-02
					-5.77839000E-03	-1.36812000E-01	-1.40463000E-02
					-5.80519000E-03	-1.30200000E-01	-1.41144000E-02
					-2.87383000E-03	-1.42777000E-01	-8.04072000E-03
					-5.78984000E-03	-1.39749000E-01	-1.41497000E-02
					-5.74318000E-03	-1.24403000E-01	-1.39185000E-02
					-2.85820000E-03	-1.36914000E-01	-7.84093000E-03
					 6.10565000E-05	-1.31176000E-01	-1.48871000E-03
					 5.89383000E-03	-1.31367000E-01	 1.09443000E-02
					 5.43195000E-05	-1.34093000E-01	-1.55263000E-03
					 5.88115000E-03	-1.34300000E-01	 1.08889000E-02
					 7.37123000E-05	-1.18833000E-01	-1.33118000E-03
					 2.97012000E-03	-1.31272000E-01	 4.72367000E-03
					 5.83875000E-03	-1.18996000E-01	 1.11283000E-02
					-5.76453000E-03	-1.30957000E-01	-1.38856000E-02
					-5.77309000E-03	-1.33882000E-01	-1.39577000E-02
					-5.69346000E-03	-1.18625000E-01	-1.37635000E-02
					-2.84698000E-03	-1.31063000E-01	-7.68999000E-03
					 0.00000000E+00	 0.00000000E+00	 0.00000000E+00
					 0.00000000E+00	 0.00000000E+00	 0.00000000E+00
					 9.74254000E-05	-7.30951000E-03	-1.72256000E-04
					-1.13699000E-03	-7.82332000E-03	 7.35412000E-03
					 0.00000000E+00	 0.00000000E+00	 0.00000000E+00
					 0.00000000E+00	 0.00000000E+00	 0.00000000E+00
					 8.02231000E-05	-8.00131000E-03	-1.09486000E-04
					-1.08485000E-04	-8.56185000E-03	 7.49699000E-03
					 0.00000000E+00	 0.00000000E+00	 0.00000000E+00
					 4.17501000E-05	-1.43121000E-03	-7.25667000E-05
					-5.17783000E-04	-7.38582000E-03	 3.54787000E-03
					-1.15753000E-03	-2.07284000E-03	 3.65773000E-03
					 0.00000000E+00	 0.00000000E+00	 0.00000000E+00
					 0.00000000E+00	 0.00000000E+00	 0.00000000E+00
					 8.75567000E-05	-7.82824000E-03	-1.42196000E-04
					-6.17013000E-04	-8.36646000E-03	 7.39800000E-03
					 0.00000000E+00	 0.00000000E+00	 0.00000000E+00
					 1.97118000E-05	-1.99964000E-03	-3.89234000E-05
					-1.28333000E-05	-8.09330000E-03	 3.62107000E-03
					-4.19632000E-05	-2.65492000E-03	 3.58012000E-03
					 0.00000000E+00	 0.00000000E+00	 0.00000000E+00
					 1.31356000E-03	-7.72185000E-03	-7.71593000E-03
					 0.00000000E+00	 0.00000000E+00	 0.00000000E+00
					 2.64618000E-04	-8.44017000E-03	-7.73664000E-03
					 0.00000000E+00	 0.00000000E+00	 0.00000000E+00
					 1.22546000E-03	-2.06544000E-03	-3.81020000E-03
					 7.07690000E-04	-7.33285000E-03	-3.89673000E-03
					 0.00000000E+00	 0.00000000E+00	 0.00000000E+00
					 7.81948000E-04	-8.25248000E-03	-7.70197000E-03
					 0.00000000E+00	 0.00000000E+00	 0.00000000E+00
					 7.51842000E-05	-2.62814000E-03	-3.66193000E-03
					 1.72375000E-04	-8.03076000E-03	-3.84683000E-03
					 0.00000000E+00	 0.00000000E+00	 0.00000000E+00
					 0.00000000E+00	 0.00000000E+00	 0.00000000E+00
					 7.32501000E-05	-7.68635000E-03	-2.74948000E-05
					 9.40280000E-04	-8.20700000E-03	 7.49970000E-03
					 0.00000000E+00	 0.00000000E+00	 0.00000000E+00
					 0.00000000E+00	 0.00000000E+00	 0.00000000E+00
					 7.42503000E-05	-8.01723000E-03	-7.24373000E-05
					 4.07203000E-04	-8.55539000E-03	 7.51588000E-03
					 0.00000000E+00	 0.00000000E+00	 0.00000000E+00
					 1.12371000E-05	-1.54991000E-03	 3.49878000E-07
					 5.07052000E-04	-7.76456000E-03	 3.64555000E-03
					 1.09472000E-03	-2.20432000E-03	 3.73340000E-03
					 0.00000000E+00	 0.00000000E+00	 0.00000000E+00
					-7.90867000E-04	-8.07203000E-03	-7.57316000E-03
					 0.00000000E+00	 0.00000000E+00	 0.00000000E+00
					-2.60497000E-04	-8.42988000E-03	-7.67982000E-03
					 0.00000000E+00	 0.00000000E+00	 0.00000000E+00
					-1.07363000E-03	-2.15648000E-03	-3.73825000E-03
					-3.57308000E-04	-7.69837000E-03	-3.70655000E-03
					 3.14427000E-04	-2.97945000E-02	-5.24241000E-04
					-1.13172000E-03	-3.02692000E-02	 1.29339000E-02
					 3.11225000E-04	-3.09411000E-02	-4.23333000E-04
					-5.45002000E-04	-3.14171000E-02	 1.30959000E-02
					 1.91784000E-04	-1.69752000E-02	-3.18549000E-04
					-4.09822000E-04	-2.99638000E-02	 6.11052000E-03
					-1.12476000E-03	-1.75316000E-02	 1.05572000E-02
					 3.12251000E-04	-3.04350000E-02	-4.76315000E-04
					-8.37298000E-04	-3.09043000E-02	 1.29803000E-02
					 1.77850000E-04	-1.78481000E-02	-2.33795000E-04
					-1.08621000E-04	-3.11098000E-02	 6.20469000E-03
					-2.58012000E-04	-1.84079000E-02	 1.07000000E-02
					 1.74831000E-03	-2.99185000E-02	-1.40017000E-02
					 1.15196000E-03	-3.10524000E-02	-1.39614000E-02
					 1.49198000E-03	-1.73104000E-02	-1.12237000E-02
					 1.03441000E-03	-2.97948000E-02	-7.16453000E-03
					 1.44947000E-03	-3.05517000E-02	-1.39488000E-02
					 6.05392000E-04	-1.81676000E-02	-1.11951000E-02
					 7.31108000E-04	-3.09344000E-02	-7.05280000E-03
					 3.06503000E-04	-3.14991000E-02	-3.01433000E-04
					 9.11270000E-05	-3.19429000E-02	 1.31521000E-02
					 3.08378000E-04	-3.12809000E-02	-3.65349000E-04
					-2.25934000E-04	-3.17823000E-02	 1.32341000E-02
					 1.71086000E-04	-1.78475000E-02	-1.24693000E-04
					 1.88071000E-04	-3.16457000E-02	 6.18728000E-03
					 6.47706000E-04	-1.83852000E-02	 1.07523000E-02
					 5.39791000E-04	-3.15846000E-02	-1.37741000E-02
					 8.44593000E-04	-3.13869000E-02	-1.39881000E-02
					-2.96283000E-04	-1.81421000E-02	-1.10241000E-02
					 4.30281000E-04	-3.14776000E-02	-6.78920000E-03
					 6.25275000E-04	-5.96946000E-02	-9.93985000E-04
					-1.79576000E-03	-5.99614000E-02	 1.45666000E-02
					 6.33770000E-04	-6.20496000E-02	-8.97012000E-04
					-1.68027000E-03	-6.24122000E-02	 1.46942000E-02
					 4.65577000E-04	-4.44336000E-02	-7.58375000E-04
					-5.85182000E-04	-5.98199000E-02	 6.82872000E-03
					-1.32265000E-03	-4.48398000E-02	 1.41545000E-02
					 6.31210000E-04	-6.08874000E-02	-9.41684000E-04
					-1.74020000E-03	-6.12080000E-02	 1.45076000E-02
					 4.66425000E-04	-4.60771000E-02	-6.54584000E-04
					-5.47913000E-04	-6.22250000E-02	 6.80497000E-03
					-1.02272000E-03	-4.64795000E-02	 1.43162000E-02
					 3.00824000E-03	-5.95023000E-02	-1.65386000E-02
					 2.94865000E-03	-6.18592000E-02	-1.65072000E-02
					 2.23848000E-03	-4.44014000E-02	-1.56762000E-02
					 1.82297000E-03	-5.95891000E-02	-8.80700000E-03
					 2.97649000E-03	-6.06873000E-02	-1.64022000E-02
					 1.95259000E-03	-4.60142000E-02	-1.56337000E-02
					 1.79265000E-03	-6.19540000E-02	-8.61940000E-03
					 6.35805000E-04	-6.43145000E-02	-7.97503000E-04
					-1.65890000E-03	-6.47947000E-02	 1.47564000E-02
					 6.34981000E-04	-6.32053000E-02	-8.50692000E-04
					-1.67214000E-03	-6.34994000E-02	 1.48899000E-02
					 4.74583000E-04	-4.74089000E-02	-5.39233000E-04
					-4.78038000E-04	-6.45472000E-02	 6.71737000E-03
					-7.25359000E-04	-4.78308000E-02	 1.43704000E-02
					 2.89263000E-03	-6.41605000E-02	-1.63994000E-02
					 2.92115000E-03	-6.30066000E-02	-1.66141000E-02
					 1.63427000E-03	-4.73358000E-02	-1.54636000E-02
					 1.75229000E-03	-6.42493000E-02	-8.35630000E-03
					 1.01497000E-03	-8.97754000E-02	-1.42897000E-03
					-2.92420000E-03	-8.98595000E-02	 1.38120000E-02