<?xml version="1.0"?>
<VTKFile type="UnstructuredGrid" version="0.1" byte_order="LittleEndian">
	<UnstructuredGrid>
		<Piece NumberOfPoints="522" NumberOfCells="64">
			<Points>
				<DataArray type="Float64" NumberOfComponents="3" format="ascii">
					 1.00000000E+00	 1.00000000E+00	-5.96046000E-08
					 1.00000000E+00	 5.00000000E-01	-5.96046000E-08
					 1.00000000E+00	 5.00000000E-01	 1.00000000E+00
					 1.00000000E+00	 1.00000000E+00	 1.00000000E+00
					 5.00000000E-01	 1.00000000E+00	-5.96046000E-08
					 5.00000000E-01	 5.00000000E-01	-5.96046000E-08
					 5.00000000E-01	 5.00000000E-01	 1.00000000E+00
					 5.00000000E-01	 1.00000000E+00	 1.00000000E+00
					 1.00000000E+00	 7.50000000E-01	-5.96046000E-08
					 1.00000000E+00	 5.00000000E-01	 5.00000000E-01
					 1.00000000E+00	 7.50000000E-01	 1.00000000E+00
					 1.00000000E+00	 1.00000000E+00	 5.00000000E-01
					 7.50000000E-01	 1.00000000E+00	-5.96046000E-08
					 7.50000000E-01	 5.00000000E-01	-5.96046000E-08
					 7.50000000E-01	 5.00000000E-01	 1.00000000E+00
					 7.50000000E-01	 1.00000000E+00	 1.00000000E+00
					 5.00000000E-01	 7.50000000E-01	-5.96046000E-08
					 5.00000000E-01	 5.00000000E-01	 5.00000000E-01
					 5.00000000E-01	 7.50000000E-01	 1.00000000E+00
					 5.00000000E-01	 1.00000000E+00	 5.00000000E-01
					 1.00000000E+00	-1.49012000E-08	-5.96046000E-08
					 1.00000000E+00	-1.49012000E-08	 1.00000000E+00
					 5.00000000E-01	-1.49012000E-08	-5.96046000E-08
					 5.00000000E-01	-1.49012000E-08	 1.00000000E+00
					 1.00000000E+00	 2.50000000E-01	-5.96046000E-08
					 1.00000000E+00	-1.49012000E-08	 5.00000000E-01
					 1.00000000E+00	 2.50000000E-01	 1.00000000E+00
					 7.50000000E-01	-1.49012000E-08	-5.96046000E-08
					 7.50000000E-01	-1.49012000E-08	 1.00000000E+00
					 5.00000000E-01	 2.50000000E-01	-5.96046000E-08
					 5.00000000E-01	-1.49012000E-08	 5.00000000E-01
					 5.00000000E-01	 2.50000000E-01	 1.00000000E+00
					-7.45058000E-09	 1.00000000E+00	-5.96046000E-08
					-7.45058000E-09	 5.00000000E-01	-5.96046000E-08
					-7.45058000E-09	 5.00000000E-01	 1.00000000E+00
					-7.45058000E-09	 1.00000000E+00	 1.00000000E+00
					 2.50000000E-01	 1.00000000E+00	-5.96046000E-08
					 2.50000000E-01	 5.00000000E-01	-5.96046000E-08
					 2.50000000E-01	 5.00000000E-01	 1.00000000E+00
					 2.50000000E-01	 1.00000000E+00	 1.00000000E+00
					-7.45058000E-09	 7.50000000E-01	-5.96046000E-08
					-7.45058000E-09	 5.00000000E-01	 5.00000000E-01
					-7.45058000E-09	 7.50000000E-01	 1.00000000E+00
					-7.45058000E-09	 1.00000000E+00	 5.00000000E-01
					-7.45058000E-09	-1.49012000E-08	-5.96046000E-08
					-7.45058000E-09	-1.49012000E-08	 1.00000000E+00
					 2.50000000E-01	-1.49012000E-08	-5.96046000E-08
					 2.50000000E-01	-1.49012000E-08	 1.00000000E+00
					-7.45058000E-09	 2.50000000E-01	-5.96046000E-08
					-7.45058000E-09	-1.49012000E-08	 5.00000000E-01
					-7.45058000E-09	 2.50000000E-01	 1.00000000E+00
					 1.00000000E+00	 5.00000000E-01	 2.00000000E+00
					 1.00000000E+00	 1.00000000E+00	 2.00000000E+00
					 5.00000000E-01	 5.00000000E-01	 2.00000000E+00
					 5.00000000E-01	 1.00000000E+00	 2.00000000E+00
					 1.00000000E+00	 5.00000000E-01	 1.50000000E+00
					 1.00000000E+00	 7.50000000E-01	 2.00000000E+00
					 1.00000000E+00	 1.00000000E+00	 1.50000000E+00
					 7.50000000E-01	 5.00000000E-01	 2.00000000E+00
					 7.50000000E-01	 1.00000000E+00	 2.00000000E+00
					 5.00000000E-01	 5.00000000E-01	 1.50000000E+00
					 5.00000000E-01	 7.50000000E-01	 2.00000000E+00
					 5.00000000E-01	 1.00000000E+00	 1.50000000E+00
					 1.00000000E+00	-1.49012000E-08	 2.00000000E+00
					 5.00000000E-01	-1.49012000E-08	 2.00000000E+00
					 1.00000000E+00	-1.49012000E-08	 1.50000000E+00
					 1.00000000E+00	 2.50000000E-01	 2.00000000E+00
					 7.50000000E-01	-1.49012000E-08	 2.00000000E+00
					 5.00000000E-01	-1.49012000E-08	 1.50000000E+00
					 5.00000000E-01	 2.50000000E-01	 2.00000000E+00
					-7.45058000E-09	 5.00000000E-01	 2.00000000E+00
					-7.45058000E-09	 1.00000000E+00	 2.00000000E+00
					 2.50000000E-01	 5.00000000E-01	 2.00000000E+00
					 2.50000000E-01	 1.00000000E+00	 2.00000000E+00
					-7.45058000E-09	 5.00000000E-01	 1.50000000E+00
					-7.45058000E-09	 7.50000000E-01	 2.00000000E+00
					-7.45058000E-09	 1.00000000E+00	 1.50000000E+00
					-7.45058000E-09	-1.49012000E-08	 2.00000000E+00
					 2.50000000E-01	-1.49012000E-08	 2.00000000E+00
					-7.45058000E-09	-1.49012000E-08	 1.50000000E+00
					-7.45058000E-09	 2.50000000E-01	 2.00000000E+00
					 1.00000000E+00	 5.00000000E-01	 3.00000000E+00
					 1.00000000E+00	 1.00000000E+00	 3.00000000E+00
					 5.00000000E-01	 5.00000000E-01	 3.00000000E+00
					 5.00000000E-01	 1.00000000E+00	 3.00000000E+00
					 1.00000000E+00	 5.00000000E-01	 2.50000000E+00
					 1.00000000E+00	 7.50000000E-01	 3.00000000E+00
					 1.00000000E+00	 1.00000000E+00	 2.50000000E+00
					 7.50000000E-01	 5.00000000E-01	 3.00000000E+00
					 7.50000000E-01	 1.00000000E+00	 3.00000000E+00
					 5.00000000E-01	 5.00000000E-01	 2.50000000E+00
					 5.00000000E-01	 7.50000000E-01	 3.00000000E+00
					 5.00000000E-01	 1.00000000E+00	 2.50000000E+00
					 1.00000000E+00	-1.49012000E-08	 3.00000000E+00
					 5.00000000E-01	-1.49012000E-08	 3.00000000E+00
					 1.00000000E+00	-1.49012000E-08	 2.50000000E+00
					 1.00000000E+00	 2.50000000E-01	 3.00000000E+00
					 7.50000000E-01	-1.49012000E-08	 3.00000000E+00
					 5.00000000E-01	-1.49012000E-08	 2.50000000E+00
					 5.00000000E-01	 2.50000000E-01	 3.00000000E+00
					-7.45058000E-09	 5.00000000E-01	 3.00000000E+00
					-7.45058000E-09	 1.00000000E+00	 3.00000000E+00
					 2.50000000E-01	 5.00000000E-01	 3.00000000E+00
					 2.50000000E-01	 1.00000000E+00	 3.00000000E+00
					-7.45058000E-09	 5.00000000E-01	 2.50000000E+00
					-7.45058000E-09	 7.50000000E-01	 3.00000000E+00
					-7.45058000E-09	 1.00000000E+00	 2.50000000E+00
					-7.45058000E-09	-1.49012000E-08	 3.00000000E+00
					 2.50000000E-01	-1.49012000E-08	 3.00000000E+00
					-7.45058000E-09	-1.49012000E-08	 2.50000000E+00
					-7.45058000E-09	 2.50000000E-01	 3.00000000E+00
					 1.00000000E+00	 5.00000000E-01	 4.00000000E+00
					 1.00000000E+00	 1.00000000E+00	 4.00000000E+00
					 5.00000000E-01	 5.00000000E-01	 4.00000000E+00
					 5.00000000E-01	 1.00000000E+00	 4.00000000E+00
					 1.00000000E+00	 5.00000000E-01	 3.50000000E+00
					 1.00000000E+00	 7.50000000E-01	 4.00000000E+00
					 1.00000000E+00	 1.00000000E+00	 3.50000000E+00
					 7.50000000E-01	 5.00000000E-01	 4.00000000E+00
					 7.50000000E-01	 1.00000000E+00	 4.00000000E+00
					 5.00000000E-01	 5.00000000E-01	 3.50000000E+00
					 5.00000000E-01	 7.50000000E-01	 4.00000000E+00
					 5.00000000E-01	 1.00000000E+00	 3.50000000E+00
					 1.00000000E+00	-1.49012000E-08	 4.00000000E+00
					 5.00000000E-01	-1.49012000E-08	 4.00000000E+00
					 1.00000000E+00	-1.49012000E-08	 3.50000000E+00
					 1.00000000E+00	 2.50000000E-01	 4.00000000E+00
					 7.50000000E-01	-1.49012000E-08	 4.00000000E+00
					 5.00000000E-01	-1.49012000E-08	 3.50000000E+00
					 5.00000000E-01	 2.50000000E-01	 4.00000000E+00
					-7.45058000E-09	 5.00000000E-01	 4.00000000E+00
					-7.45058000E-09	 1.00000000E+00	 4.00000000E+00
					 2.50000000E-01	 5.00000000E-01	 4.00000000E+00
					 2.50000000E-01	 1.00000000E+00	 4.00000000E+00
					-7.45058000E-09	 5.00000000E-01	 3.50000000E+00
					-7.45058000E-09	 7.50000000E-01	 4.00000000E+00
					-7.45058000E-09	 1.00000000E+00	 3.50000000E+00
					-7.45058000E-09	-1.49012000E-08	 4.00000000E+00
					 2.50000000E-01	-1.49012000E-08	 4.00000000E+00
					-7.45058000E-09	-1.49012000E-08	 3.50000000E+00
					-7.45058000E-09	 2.50000000E-01	 4.00000000E+00
					 1.00000000E+00	 5.00000000E-01	 5.00000000E+00
					 1.00000000E+00	 1.00000000E+00	 5.00000000E+00
					 5.00000000E-01	 5.00000000E-01	 5.00000000E+00
					 5.00000000E-01	 1.00000000E+00	 5.00000000E+00
					 1.00000000E+00	 5.00000000E-01	 4.50000000E+00
					 1.00000000E+00	 7.50000000E-01	 5.00000000E+00
					 1.00000000E+00	 1.00000000E+00	 4.50000000E+00
					 7.50000000E-01	 5.00000000E-01	 5.00000000E+00
					 7.50000000E-01	 1.00000000E+00	 5.00000000E+00
					 5.00000000E-01	 5.00000000E-01	 4.50000000E+00
					 5.00000000E-01	 7.50000000E-01	 5.00000000E+00
					 5.00000000E-01	 1.00000000E+00	 4.50000000E+00
					 1.00000000E+00	-1.49012000E-08	 5.00000000E+00
					 5.00000000E-01	-1.49012000E-08	 5.00000000E+00
					 1.00000000E+00	-1.49012000E-08	 4.50000000E+00
					 1.00000000E+00	 2.50000000E-01	 5.00000000E+00
					 7.50000000E-01	-1.49012000E-08	 5.00000000E+00
					 5.00000000E-01	-1.49012000E-08	 4.50000000E+00
					 5.00000000E-01	 2.50000000E-01	 5.00000000E+00
					-7.45058000E-09	 5.00000000E-01	 5.00000000E+00
					-7.45058000E-09	 1.00000000E+00	 5.00000000E+00
					 2.50000000E-01	 5.00000000E-01	 5.00000000E+00
					 2.50000000E-01	 1.00000000E+00	 5.00000000E+00
					-7.45058000E-09	 5.00000000E-01	 4.50000000E+00
					-7.45058000E-09	 7.50000000E-01	 5.00000000E+00
					-7.45058000E-09	 1.00000000E+00	 4.50000000E+00
					-7.45058000E-09	-1.49012000E-08	 5.00000000E+00
					 2.50000000E-01	-1.49012000E-08	 5.00000000E+00
					-7.45058000E-09	-1.49012000E-08	 4.50000000E+00
					-7.45058000E-09	 2.50000000E-01	 5.00000000E+00
					 1.00000000E+00	 5.00000000E-01	 6.00000000E+00
					 1.00000000E+00	 1.00000000E+00	 6.00000000E+00
					 5.00000000E-01	 5.00000000E-01	 6.00000000E+00
					 5.00000000E-01	 1.00000000E+00	 6.00000000E+00
					 1.00000000E+00	 5.00000000E-01	 5.50000000E+00
					 1.00000000E+00	 7.50000000E-01	 6.00000000E+00
					 1.00000000E+00	 1.00000000E+00	 5.50000000E+00
					 7.50000000E-01	 5.00000000E-01	 6.00000000E+00
					 7.50000000E-01	 1.00000000E+00	 6.00000000E+00
					 5.00000000E-01	 5.00000000E-01	 5.50000000E+00
					 5.00000000E-01	 7.50000000E-01	 6.00000000E+00
					 5.00000000E-01	 1.00000000E+00	 5.50000000E+00
					 1.00000000E+00	-1.49012000E-08	 6.00000000E+00
[...]
			<PointData>
				<DataArray type="Float32" Name="U" NumberOfComponents="3" ComponentName0="D1" ComponentName1="D2" ComponentName2="D3" format="ascii">
					 0.00000000E+00	 0.00000000E+00	 0.00000000E+00
					 0.00000000E+00	 0.00000000E+00	 0.00000000E+00
					 1.72240000E-05	 3.91392000E-03	-5.94764000E-06
					 1.81022000E-04	 4.06660000E-03	-3.22285000E-03
					 0.00000000E+00	 0.00000000E+00	 0.00000000E+00
					 0.00000000E+00	 0.00000000E+00	 0.00000000E+00
					 1.93877000E-05	 3.88976000E-03	 2.05610000E-06
					-1.93811000E-04	 4.05353000E-03	-3.25755000E-03
					 0.00000000E+00	 0.00000000E+00	 0.00000000E+00
					 8.81498000E-06	 1.00349000E-03	-2.56831000E-06
					 1.00702000E-04	 3.92138000E-03	-1.53839000E-03
					 3.88385000E-04	 1.26248000E-03	-1.68430000E-03
					 0.00000000E+00	 0.00000000E+00	 0.00000000E+00
					 0.00000000E+00	 0.00000000E+00	 0.00000000E+00
					 1.81599000E-05	 3.96796000E-03	-2.09944000E-06
					-8.90630000E-06	 4.12518000E-03	-3.26461000E-03
					 0.00000000E+00	 0.00000000E+00	 0.00000000E+00
					 9.01228000E-06	 1.10643000E-03	 2.47134000E-06
					-8.70512000E-05	 3.90001000E-03	-1.57223000E-03
					-1.02769000E-04	 1.37295000E-03	-1.63862000E-03
					 0.00000000E+00	 0.00000000E+00	 0.00000000E+00
					-1.47848000E-04	 4.09396000E-03	 3.20793000E-03
					 0.00000000E+00	 0.00000000E+00	 0.00000000E+00
					 2.32375000E-04	 4.08183000E-03	 3.25750000E-03
					 0.00000000E+00	 0.00000000E+00	 0.00000000E+00
					-3.72501000E-04	 1.27264000E-03	 1.67838000E-03
					-6.65438000E-05	 3.93446000E-03	 1.52551000E-03
					 0.00000000E+00	 0.00000000E+00	 0.00000000E+00
					 4.48385000E-05	 4.15354000E-03	 3.25678000E-03
					 0.00000000E+00	 0.00000000E+00	 0.00000000E+00
					 1.19770000E-04	 1.38526000E-03	 1.64303000E-03
					 1.25948000E-04	 3.91378000E-03	 1.57489000E-03
					 0.00000000E+00	 0.00000000E+00	 0.00000000E+00
					 0.00000000E+00	 0.00000000E+00	 0.00000000E+00
					 2.16219000E-05	 3.48784000E-03	 1.35938000E-05
					-5.70538000E-04	 3.63819000E-03	-3.20375000E-03
					 0.00000000E+00	 0.00000000E+00	 0.00000000E+00
					 0.00000000E+00	 0.00000000E+00	 0.00000000E+00
					 2.03039000E-05	 3.75500000E-03	 6.88553000E-06
					-3.79920000E-04	 3.91104000E-03	-3.21891000E-03
					 0.00000000E+00	 0.00000000E+00	 0.00000000E+00
					 1.08736000E-05	 7.81066000E-04	 1.03460000E-05
					-2.75952000E-04	 3.49402000E-03	-1.55587000E-03
					-5.84575000E-04	 1.04504000E-03	-1.67144000E-03
					 0.00000000E+00	 0.00000000E+00	 0.00000000E+00
					 6.14482000E-04	 3.66640000E-03	 3.22672000E-03
					 0.00000000E+00	 0.00000000E+00	 0.00000000E+00
					 4.20480000E-04	 3.93941000E-03	 3.22845000E-03
					 0.00000000E+00	 0.00000000E+00	 0.00000000E+00
					 6.05842000E-04	 1.06072000E-03	 1.69104000E-03
					 3.19637000E-04	 3.50787000E-03	 1.58167000E-03
					 3.40536000E-05	 1.30147000E-02	-2.72350000E-05
					 8.32079000E-05	 1.31444000E-02	-5.50194000E-03
					 3.85511000E-05	 1.29136000E-02	-2.02340000E-05
					-2.24342000E-04	 1.30368000E-02	-5.48977000E-03
					 2.57585000E-05	 8.01998000E-03	-1.43592000E-05
					 6.22678000E-05	 1.30479000E-02	-2.78663000E-03
					 7.27106000E-05	 8.19385000E-03	-4.43070000E-03
					 3.63175000E-05	 1.29993000E-02	-2.37455000E-05
					-7.05335000E-05	 1.31219000E-02	-5.48306000E-03
					 2.86495000E-05	 7.91454000E-03	-5.84169000E-06
					-9.37421000E-05	 1.29450000E-02	-2.76595000E-03
					-2.46775000E-04	 8.07555000E-03	-4.43281000E-03
					-1.40872000E-05	 1.32149000E-02	 5.44514000E-03
					 3.02371000E-04	 1.31049000E-02	 5.44684000E-03
					-2.19374000E-05	 8.23974000E-03	 4.39824000E-03
					 5.99367000E-06	 1.30833000E-02	 2.73139000E-03
					 1.44288000E-04	 1.31909000E-02	 5.43351000E-03
					 3.04321000E-04	 8.12138000E-03	 4.41727000E-03
					 1.71069000E-04	 1.29788000E-02	 2.72488000E-03
					 4.24072000E-05	 1.24880000E-02	-8.94207000E-06
					-5.42955000E-04	 1.26089000E-02	-5.48388000E-03
					 4.06816000E-05	 1.27344000E-02	-1.55691000E-05
					-3.84246000E-04	 1.28567000E-02	-5.49419000E-03
					 3.16916000E-05	 7.46891000E-03	 6.80741000E-06
					-2.51332000E-04	 1.25162000E-02	-2.74926000E-03
					-5.78339000E-04	 7.63075000E-03	-4.40955000E-03
					 6.28558000E-04	 1.26760000E-02	 5.46318000E-03
					 4.66342000E-04	 1.29244000E-02	 5.46026000E-03
					 6.42868000E-04	 7.67629000E-03	 4.41913000E-03
					 3.36340000E-04	 1.25495000E-02	 2.73083000E-03
					 3.91218000E-05	 2.57247000E-02	-6.89279000E-05
					 4.91678000E-04	 2.58632000E-02	-8.01831000E-03
					 4.44274000E-05	 2.59567000E-02	-7.86293000E-05
					 6.63576000E-05	 2.61020000E-02	-8.02126000E-03
					 4.05615000E-05	 1.87962000E-02	-4.27150000E-05
					 2.63418000E-04	 2.57359000E-02	-4.09690000E-03
					 2.50417000E-04	 1.89387000E-02	-6.66923000E-03
					 4.20336000E-05	 2.58963000E-02	-7.43905000E-05
					 2.79349000E-04	 2.60402000E-02	-7.98283000E-03
					 4.55366000E-05	 1.88257000E-02	-4.23697000E-05
					 5.52310000E-05	 2.59710000E-02	-4.06689000E-03
					-1.10547000E-04	 1.89636000E-02	-6.65559000E-03
					-4.12771000E-04	 2.60059000E-02	 7.87478000E-03
					 2.44252000E-05	 2.62404000E-02	 7.85848000E-03
					-1.68177000E-04	 1.90399000E-02	 6.58090000E-03
					-1.85287000E-04	 2.58094000E-02	 3.95756000E-03
					-1.93773000E-04	 2.61798000E-02	 7.82855000E-03
					 2.03285000E-04	 1.90607000E-02	 6.56805000E-03
					 3.40693000E-05	 2.60413000E-02	 3.90828000E-03
					 4.75761000E-05	 2.57664000E-02	-8.22573000E-05
					-3.60840000E-04	 2.59091000E-02	-8.03150000E-03
					 4.63193000E-05	 2.59173000E-02	-8.13723000E-05
					-1.46918000E-04	 2.60619000E-02	-8.05266000E-03
					 4.89256000E-05	 1.84823000E-02	-3.70035000E-05
					-1.55496000E-04	 2.57808000E-02	-4.04735000E-03
					-4.82924000E-04	 1.86183000E-02	-6.66362000E-03
					 4.59374000E-04	 2.60436000E-02	 7.86181000E-03
					 2.41960000E-04	 2.61993000E-02	 7.88433000E-03
					 5.83183000E-04	 1.87126000E-02	 6.58671000E-03
					 2.51711000E-04	 2.58482000E-02	 3.88174000E-03
					 1.59085000E-05	 4.44052000E-02	-2.03593000E-04
					 7.26286000E-04	 4.44688000E-02	-1.10551000E-02
					 2.03028000E-05	 4.49076000E-02	-2.31365000E-04
					 3.30490000E-04	 4.49803000E-02	-1.10986000E-02
					 3.06428000E-05	 3.42141000E-02	-1.19517000E-04
					 3.67975000E-04	 4.43857000E-02	-5.59386000E-03
					 6.75886000E-04	 3.43149000E-02	-9.54817000E-03
					 1.84414000E-05	 4.47062000E-02	-2.18635000E-04
					 5.29019000E-04	 4.47774000E-02	-1.10796000E-02
					 3.49693000E-05	 3.46282000E-02	-1.39325000E-04
					 1.75654000E-04	 4.48923000E-02	-5.62908000E-03
					 2.35072000E-04	 3.47422000E-02	-9.57205000E-03
					-6.94181000E-04	 4.47189000E-02	 1.06382000E-02
					-2.88166000E-04	 4.52281000E-02	 1.06258000E-02
					-6.14136000E-04	 3.45084000E-02	 9.30112000E-03
					-3.36326000E-04	 4.45097000E-02	 5.18459000E-03
					-4.91012000E-04	 4.50266000E-02	 1.06322000E-02
					-1.63322000E-04	 3.49323000E-02	 9.28510000E-03
					-1.34644000E-04	 4.50152000E-02	 5.16407000E-03
					 2.30838000E-05	 4.50228000E-02	-2.50679000E-04
					-6.12259000E-05	 4.50954000E-02	-1.11022000E-02
					 2.18155000E-05	 4.50159000E-02	-2.42159000E-04
					 1.34932000E-04	 4.50886000E-02	-1.11196000E-02
					 3.74777000E-05	 3.46119000E-02	-1.51621000E-04
					-1.81077000E-05	 4.50087000E-02	-5.62440000E-03
					-1.96957000E-04	 3.47269000E-02	-9.58033000E-03
					 1.10575000E-04	 4.53386000E-02	 1.05911000E-02
					-8.89765000E-05	 4.53351000E-02	 1.06253000E-02
					 2.75132000E-04	 3.49130000E-02	 9.26903000E-03
					 6.52523000E-05	 4.51285000E-02	 5.12082000E-03
					-2.55105000E-05	 6.89104000E-02	-4.73056000E-04
					 5.25900000E-04	 6.88399000E-02	-1.32827000E-02
					-2.18444000E-05	 6.93751000E-02	-5.05687000E-04
					 3.49029000E-04	 6.92986000E-02	-1.33358000E-02
					-3.03286000E-06	 5.61403000E-02	-3.23522000E-04
					 2.52383000E-04	 6.88554000E-02	-6.82732000E-03
					 6.40889000E-04	 5.61343000E-02	-1.23177000E-02
					-2.37238000E-05	 6.91654000E-02	-4.90316000E-04
					 4.37318000E-04	 6.90894000E-02	-1.33190000E-02
					 9.23830000E-07	 5.66334000E-02	-3.55553000E-04
					 1.63403000E-04	 6.93172000E-02	-6.87661000E-03
					 3.48464000E-04	 5.66300000E-02	-1.23739000E-02
					-5.77300000E-04	 6.91755000E-02	 1.23299000E-02
					-3.92721000E-04	 6.96357000E-02	 1.23184000E-02
					-6.46766000E-04	 5.64331000E-02	 1.16614000E-02
					-3.03474000E-04	 6.90205000E-02	 5.87952000E-03
					-4.84958000E-04	 6.94263000E-02	 1.23320000E-02
					-3.45584000E-04	 5.69281000E-02	 1.16538000E-02
					-2.07040000E-04	 6.94835000E-02	 5.86360000E-03
					-1.79854000E-05	 6.96504000E-02	-5.33603000E-04
					 1.68749000E-04	 6.95759000E-02	-1.33427000E-02
					-1.99430000E-05	 6.95346000E-02	-5.19851000E-04
					 2.58661000E-04	 6.94583000E-02	-1.33556000E-02
					 4.04250000E-06	 5.68328000E-02	-3.80328000E-04
					 7.45725000E-05	 6.95932000E-02	-6.88043000E-03
					 5.74334000E-05	 5.68310000E-02	-1.23741000E-02
					-2.04425000E-04	 6.99119000E-02	 1.22698000E-02
					-2.98375000E-04	 6.97958000E-02	 1.23102000E-02
					-4.73596000E-05	 5.71255000E-02	 1.16049000E-02
					-1.10420000E-04	 6.97582000E-02	 5.81157000E-03
					-6.01284000E-05	 9.55231000E-02	-8.14069000E-04
					 6.06538000E-04	 9.53829000E-02	-1.43733000E-02
					-5.81339000E-05	 9.61533000E-02	-8.44324000E-04
					 5.28864000E-04	 9.60081000E-02	-1.44057000E-02
					-4.55513000E-05	 8.21428000E-02	-6.40131000E-04
					 2.74657000E-04	 9.54432000E-02	-7.61986000E-03
					 5.02813000E-04	 8.20381000E-02	-1.39044000E-02
					-5.92228000E-05	 9.58484000E-02	-8.29208000E-04
					 5.67540000E-04	 9.57049000E-02	-1.43625000E-02
					-4.27430000E-05	 8.26462000E-02	-6.70790000E-04
					 2.35304000E-04	 9.60719000E-02	-7.62481000E-03
					 4.03077000E-04	 8.25302000E-02	-1.39461000E-02
					-7.27734000E-04	 9.57548000E-02	 1.27426000E-02
					-6.45472000E-04	 9.63819000E-02	 1.27146000E-02
					-5.94981000E-04	 8.23943000E-02	 1.26195000E-02
					-3.95092000E-04	 9.56306000E-02	 5.99090000E-03
					-6.86684000E-04	 9.60764000E-02	 1.27018000E-02
					-4.89078000E-04	 8.28891000E-02	 1.26005000E-02
					-3.51556000E-04	 9.62588000E-02	 5.93548000E-03
					-5.51359000E-05	 9.66961000E-02	-8.73261000E-04
					 4.49639000E-04	 9.65520000E-02	-1.44326000E-02
					-5.68448000E-05	 9.64343000E-02	-8.59047000E-04
					 4.88941000E-04	 9.62887000E-02	-1.44446000E-02
					-3.91412000E-05	 8.30332000E-02	-6.99179000E-04
					 1.96806000E-04	 9.66155000E-02	-7.62700000E-03
					 2.93985000E-04	 8.29167000E-02	-1.39631000E-02
					-5.59859000E-04	 9.69265000E-02	 1.26835000E-02
					-6.02647000E-04	 9.66643000E-02	 1.27238000E-02
					-3.72531000E-04	 8.32762000E-02	 1.25609000E-02
					-3.06992000E-04	 9.68012000E-02	 5.87988000E-03
					-8.01449000E-05	 1.22958000E-01	-1.18374000E-03
					 8.86972000E-04	 1.22792000E-01	-1.53101000E-02
					-7.92102000E-05	 1.23885000E-01	-1.21725000E-03
					 8.09852000E-04	 1.23721000E-01	-1.53491000E-02
					-7.12320000E-05	 1.09066000E-01	-9.93176000E-04
					 4.02408000E-04	 1.22864000E-01	-8.25186000E-03
					 7.69379000E-04	 1.08910000E-01	-1.48428000E-02
					-7.96706000E-05	 1.23431000E-01	-1.20072000E-03
					 8.48820000E-04	 1.23267000E-01	-1.53158000E-02
					-6.98472000E-05	 1.09861000E-01	-1.02538000E-03
					 3.65616000E-04	 1.23792000E-01	-8.27313000E-03
					 6.81763000E-04	 1.09707000E-01	-1.48753000E-02
					-1.04813000E-03	 1.23194000E-01	 1.29397000E-02
					-9.68466000E-04	 1.24125000E-01	 1.29115000E-02
					-9.12554000E-04	 1.09298000E-01	 1.28540000E-02
					-5.62945000E-04	 1.23066000E-01	 5.88369000E-03
					-1.00871000E-03	 1.23670000E-01	 1.29113000E-02
					-8.21547000E-04	 1.10096000E-01	 1.28220000E-02
					-5.24015000E-04	 1.23994000E-01	 5.83785000E-03
					-7.72735000E-05	 1.24736000E-01	-1.24898000E-03
					 7.39344000E-04	 1.24574000E-01	-1.53745000E-02
					-7.84662000E-05	 1.24321000E-01	-1.23333000E-03
					 7.74311000E-04	 1.24156000E-01	-1.53819000E-02
					-6.75574000E-05	 1.10569000E-01	-1.05607000E-03
					 3.30676000E-04	 1.24646000E-01	-8.28221000E-03
					 5.98936000E-04	 1.10416000E-01	-1.49057000E-02
					-8.93643000E-04	 1.24978000E-01	 1.28733000E-02
					-9.31107000E-04	 1.24562000E-01	 1.29122000E-02
					-7.33613000E-04	 1.10805000E-01	 1.27909000E-02
					-4.85126000E-04	 1.24846000E-01	 5.78335000E-03
					-8.78802000E-05	 1.51595000E-01	-1.59370000E-03
					 9.31278000E-04	 1.51395000E-01	-1.59594000E-02
					-8.65333000E-05	 1.52613000E-01	-1.62628000E-03
					 9.24101000E-04	 1.52415000E-01	-1.60003000E-02
					-8.51384000E-05	 1.37209000E-01	-1.38640000E-03
					 4.20181000E-04	 1.51496000E-01	-8.76509000E-03
					 9.35600000E-04	 1.37016000E-01	-1.56900000E-02
					-8.73050000E-05	 1.52104000E-01	-1.60980000E-03
					 9.28774000E-04	 1.51906000E-01	-1.59829000E-02
					-8.40297000E-05	 1.38207000E-01	-1.41955000E-03
					 4.19500000E-04	 1.52515000E-01	-8.80349000E-03
					 8.93963000E-04	 1.38017000E-01	-1.57310000E-02
					-1.10648000E-03	 1.51809000E-01	 1.27700000E-02
					-1.09697000E-03	 1.52829000E-01	 1.27454000E-02
					-1.10613000E-03	 1.37428000E-01	 1.29150000E-02
					-5.95703000E-04	 1.51702000E-01	 5.57686000E-03
					-1.10298000E-03	 1.52320000E-01	 1.27612000E-02
					-1.06209000E-03	 1.38429000E-01	 1.28893000E-02
					-5.92473000E-04	 1.52721000E-01	 5.55013000E-03
					-8.45873000E-05	 1.53611000E-01	-1.65767000E-03
					 9.26936000E-04	 1.53419000E-01	-1.60195000E-02
					-8.55690000E-05	 1.53111000E-01	-1.64228000E-03
					 9.24564000E-04	 1.52917000E-01	-1.60163000E-02
					-8.23973000E-05	 1.39164000E-01	-1.45123000E-03
					 4.22575000E-04	 1.53516000E-01	-8.82351000E-03
					 8.59871000E-04	 1.38976000E-01	-1.57523000E-02
					-1.09645000E-03	 1.53832000E-01	 1.27012000E-02
					-1.09575000E-03	 1.53331000E-01	 1.27290000E-02
					-1.02491000E-03	 1.39389000E-01	 1.28468000E-02
					-5.91755000E-04	 1.53722000E-01	 5.50723000E-03
					 0.00000000E+00	 0.00000000E+00	 0.00000000E+00
					 0.00000000E+00	 0.00000000E+00	 0.00000000E+00
					-6.41097000E-05	-9.33822000E-03	-1.99954000E-04
					-1.79883000E-03	-9.80320000E-03	 8.21623000E-03
					 0.00000000E+00	 0.00000000E+00	 0.00000000E+00
					 0.00000000E+00	 0.00000000E+00	 0.00000000E+00
					-9.36746000E-05	-1.05978000E-02	-3.14400000E-04
					-8.83549000E-04	-1.10853000E-02	 8.23240000E-03
					 0.00000000E+00	 0.00000000E+00	 0.00000000E+00
					 1.24318000E-05	-2.15215000E-03	-7.72322000E-05
					-9.35755000E-04	-9.39062000E-03	 3.89889000E-03
					-1.62121000E-03	-2.87304000E-03	 4.38611000E-03
					 0.00000000E+00	 0.00000000E+00	 0.00000000E+00
					 0.00000000E+00	 0.00000000E+00	 0.00000000E+00
					-7.60287000E-05	-1.01392000E-02	-2.60498000E-04
					-1.33005000E-03	-1.06134000E-02	 8.16663000E-03
					 0.00000000E+00	 0.00000000E+00	 0.00000000E+00
					-2.19518000E-05	-3.08086000E-03	-1.25281000E-04
					-4.90859000E-04	-1.06531000E-02	 3.78423000E-03
					-3.88025000E-04	-3.78694000E-03	 4.23766000E-03
					 0.00000000E+00	 0.00000000E+00	 0.00000000E+00
					 1.67136000E-03	-9.68547000E-03	-8.64204000E-03
					 0.00000000E+00	 0.00000000E+00	 0.00000000E+00
					 7.08524000E-04	-1.09883000E-02	-8.88720000E-03
					 0.00000000E+00	 0.00000000E+00	 0.00000000E+00
					 1.65295000E-03	-2.85330000E-03	-4.56328000E-03
					 8.05177000E-04	-9.33368000E-03	-4.30520000E-03
					 0.00000000E+00	 0.00000000E+00	 0.00000000E+00
					 1.18570000E-03	-1.05041000E-02	-8.71333000E-03
					 0.00000000E+00	 0.00000000E+00	 0.00000000E+00
					 3.57268000E-04	-3.79912000E-03	-4.51028000E-03
					 3.04131000E-04	-1.06070000E-02	-4.41997000E-03
					 0.00000000E+00	 0.00000000E+00	 0.00000000E+00
					 0.00000000E+00	 0.00000000E+00	 0.00000000E+00
					-1.36532000E-04	-1.09256000E-02	-4.06230000E-04
					 3.39499000E-05	-1.13530000E-02	 8.01555000E-03
					 0.00000000E+00	 0.00000000E+00	 0.00000000E+00
					 0.00000000E+00	 0.00000000E+00	 0.00000000E+00
					-1.12644000E-04	-1.09311000E-02	-3.62225000E-04
					-4.30105000E-04	-1.13875000E-02	 8.21965000E-03
					 0.00000000E+00	 0.00000000E+00	 0.00000000E+00
					-7.32148000E-05	-2.89535000E-03	-1.72323000E-04
					-5.37141000E-05	-1.09569000E-02	 3.54196000E-03
					 8.58170000E-04	-3.55706000E-03	 4.29014000E-03
					 0.00000000E+00	 0.00000000E+00	 0.00000000E+00
					-2.85427000E-04	-1.12818000E-02	-8.84661000E-03
					 0.00000000E+00	 0.00000000E+00	 0.00000000E+00
					 2.19208000E-04	-1.13044000E-02	-8.96749000E-03
					 0.00000000E+00	 0.00000000E+00	 0.00000000E+00
					-9.87909000E-04	-3.59417000E-03	-4.66084000E-03
					-2.12583000E-04	-1.09271000E-02	-4.35740000E-03
					-3.23990000E-04	-3.22808000E-02	-6.33703000E-04
					-2.69342000E-03	-3.26711000E-02	 1.25896000E-02
					-3.49469000E-04	-3.44225000E-02	-8.35296000E-04
					-2.25710000E-03	-3.47951000E-02	 1.24308000E-02
					-1.78192000E-04	-1.97213000E-02	-3.86389000E-04
					-1.51473000E-03	-3.24339000E-02	 5.97174000E-03
					-2.17627000E-03	-2.02283000E-02	 1.08595000E-02
					-3.36451000E-04	-3.33979000E-02	-7.39323000E-04
					-2.47444000E-03	-3.37706000E-02	 1.24356000E-02
					-2.08017000E-04	-2.13789000E-02	-5.47901000E-04
					-1.29761000E-03	-3.45659000E-02	 5.72120000E-03
					-1.50429000E-03	-2.18617000E-02	 1.07618000E-02
					 2.05426000E-03	-3.23605000E-02	-1.38758000E-02
					 1.55948000E-03	-3.45052000E-02	-1.41169000E-02
					 1.82338000E-03	-2.00137000E-02	-1.16629000E-02
					 8.68623000E-04	-3.22795000E-02	-7.24448000E-03
					 1.80876000E-03	-3.34788000E-02	-1.39289000E-02
					 1.09766000E-03	-2.16653000E-02	-1.18857000E-02
					 6.03654000E-04	-3.44262000E-02	-7.39321000E-03
					-3.87034000E-04	-3.60885000E-02	-1.02140000E-03
					-1.79421000E-03	-3.64307000E-02	 1.22034000E-02
					-3.67581000E-04	-3.52973000E-02	-9.27161000E-04
					-2.02304000E-03	-3.56899000E-02	 1.24329000E-02
					-2.49555000E-04	-2.23188000E-02	-6.90632000E-04
					-1.09673000E-03	-3.62087000E-02	 5.40167000E-03
					-8.26258000E-04	-2.27845000E-02	 1.05587000E-02
					 1.05019000E-03	-3.61723000E-02	-1.42603000E-02
					 1.30444000E-03	-3.53821000E-02	-1.43044000E-02
					 3.52375000E-04	-2.26214000E-02	-1.19642000E-02
					 3.30920000E-04	-3.60900000E-02	-7.44440000E-03
					-6.28856000E-04	-6.07353000E-02	-1.25332000E-03
					-4.31135000E-03	-6.09925000E-02	 1.40795000E-02
					-6.45284000E-04	-6.42821000E-02	-1.48819000E-03
					-4.12430000E-03	-6.46515000E-02	 1.38742000E-02
					-4.78870000E-04	-4.60665000E-02	-9.25868000E-04
					-2.46429000E-03	-6.08382000E-02	 6.46606000E-03
					-3.43426000E-03	-4.64219000E-02	 1.35879000E-02
					-6.35841000E-04	-6.25374000E-02	-1.36906000E-03
					-4.22058000E-03	-6.28614000E-02	 1.38534000E-02
					-5.01988000E-04	-4.88612000E-02	-1.15319000E-03
					-2.40857000E-03	-6.44423000E-02	 6.11235000E-03
					-3.14280000E-03	-4.92138000E-02	 1.33972000E-02
					 3.01319000E-03	-6.06100000E-02	-1.65734000E-02
					 2.82896000E-03	-6.41700000E-02	-1.68712000E-02
					 2.47231000E-03	-4.60511000E-02	-1.54499000E-02
					 1.19323000E-03	-6.06465000E-02	-8.96181000E-03
					 2.91944000E-03	-6.24150000E-02	-1.66074000E-02
					 2.14260000E-03	-4.88323000E-02	-1.57118000E-02
					 1.09349000E-03	-6.42073000E-02	-9.10892000E-03
					-6.67288000E-04	-6.76628000E-02	-1.71741000E-03
					-4.03581000E-03	-6.81491000E-02	 1.36124000E-02
					-6.55911000E-04	-6.60108000E-02	-1.60519000E-03
					-4.08279000E-03	-6.63138000E-02	 1.39022000E-02
					-5.22386000E-04	-5.13355000E-02	-1.36887000E-03
					-2.32093000E-03	-6.78827000E-02	 5.70466000E-03
					-2.86943000E-03	-5.17073000E-02	 1.31502000E-02
					 2.65458000E-03	-6.75737000E-02	-1.70933000E-02
					 2.74163000E-03	-6.58879000E-02	-1.71337000E-02
					 1.78678000E-03	-5.13019000E-02	-1.58969000E-02
					 9.86741000E-04	-6.76120000E-02	-9.18341000E-03
					-8.09309000E-04	-9.13653000E-02	-1.94921000E-03
					-5.74730000E-03	-9.13990000E-02	 1.33873000E-02