# vtk DataFile Version 3.0

ASCII
DATASET UNSTRUCTURED_GRID

POINTS 522 double
	 1.00000000E+00	 1.00000000E+00	-5.96046000E-08
	 1.00000000E+00	 5.00000000E-01	-5.96046000E-08
	 1.00000000E+00	 5.00000000E-01	 1.00000000E+00
	 1.00000000E+00	 1.00000000E+00	 1.00000000E+00
	 5.00000000E-01	 1.00000000E+00	-5.96046000E-08
	 5.00000000E-01	 5.00000000E-01	-5.96046000E-08
	 5.00000000E-01	 5.00000000E-01	 1.00000000E+00
	 5.00000000E-01	 1.00000000E+00	 1.00000000E+00
	 1.00000000E+00	 7.50000000E-01	-5.96046000E-08
	 1.00000000E+00	 5.00000000E-01	 5.00000000E-01
	 1.00000000E+00	 7.50000000E-01	 1.00000000E+00
	 1.00000000E+00	 1.00000000E+00	 5.00000000E-01
	 7.50000000E-01	 1.00000000E+00	-5.96046000E-08
	 7.50000000E-01	 5.00000000E-01	-5.96046000E-08
	 7.50000000E-01	 5.00000000E-01	 1.00000000E+00
	 7.50000000E-01	 1.00000000E+00	 1.00000000E+00
	 5.00000000E-01	 7.50000000E-01	-5.96046000E-08
	 5.00000000E-01	 5.00000000E-01	 5.00000000E-01
	 5.00000000E-01	 7.50000000E-01	 1.00000000E+00
	 5.00000000E-01	 1.00000000E+00	 5.00000000E-01
	 1.00000000E+00	-1.49012000E-08	-5.96046000E-08
	 1.00000000E+00	-1.49012000E-08	 1.00000000E+00
	 5.00000000E-01	-1.49012000E-08	-5.96046000E-08
	 5.00000000E-01	-1.49012000E-08	 1.00000000E+00
	 1.00000000E+00	 2.50000000E-01	-5.96046000E-08
	 1.00000000E+00	-1.49012000E-08	 5.00000000E-01
	 1.00000000E+00	 2.50000000E-01	 1.00000000E+00
	 7.50000000E-01	-1.49012000E-08	-5.96046000E-08
	 7.50000000E-01	-1.49012000E-08	 1.00000000E+00
	 5.00000000E-01	 2.50000000E-01	-5.96046000E-08
	 5.00000000E-01	-1.49012000E-08	 5.00000000E-01
	 5.00000000E-01	 2.50000000E-01	 1.00000000E+00
	-7.45058000E-09	 1.00000000E+00	-5.96046000E-08
	-7.45058000E-09	 5.00000000E-01	-5.96046000E-08
	-7.45058000E-09	 5.00000000E-01	 1.00000000E+00
	-7.45058000E-09	 1.00000000E+00	 1.00000000E+00
	 2.50000000E-01	 1.00000000E+00	-5.96046000E-08
	 2.50000000E-01	 5.00000000E-01	-5.96046000E-08
	 2.50000000E-01	 5.00000000E-01	 1.00000000E+00
	 2.50000000E-01	 1.00000000E+00	 1.00000000E+00
	-7.45058000E-09	 7.50000000E-01	-5.96046000E-08
	-7.45058000E-09	 5.00000000E-01	 5.00000000E-01
	-7.45058000E-09	 7.50000000E-01	 1.00000000E+00
	-7.45058000E-09	 1.00000000E+00	 5.00000000E-01
	-7.45058000E-09	-1.49012000E-08	-5.96046000E-08
	-7.45058000E-09	-1.49012000E-08	 1.00000000E+00
	 2.50000000E-01	-1.49012000E-08	-5.96046000E-08
	 2.50000000E-01	-1.49012000E-08	 1.00000000E+00
	-7.45058000E-09	 2.50000000E-01	-5.96046000E-08
	-7.45058000E-09	-1.49012000E-08	 5.00000000E-01
	-7.45058000E-09	 2.50000000E-01	 1.00000000E+00
	 1.00000000E+00	 5.00000000E-01	 2.00000000E+00
	 1.00000000E+00	 1.00000000E+00	 2.00000000E+00
	 5.00000000E-01	 5.00000000E-01	 2.00000000E+00
	 5.00000000E-01	 1.00000000E+00	 2.00000000E+00
	 1.00000000E+00	 5.00000000E-01	 1.50000000E+00
	 1.00000000E+00	 7.50000000E-01	 2.00000000E+00
	 1.00000000E+00	 1.00000000E+00	 1.50000000E+00
	 7.50000000E-01	 5.00000000E-01	 2.00000000E+00
	 7.50000000E-01	 1.00000000E+00	 2.00000000E+00
	 5.00000000E-01	 5.00000000E-01	 1.50000000E+00
	 5.00000000E-01	 7.50000000E-01	 2.00000000E+00
	 5.00000000E-01	 1.00000000E+00	 1.50000000E+00
	 1.00000000E+00	-1.49012000E-08	 2.00000000E+00
	 5.00000000E-01	-1.49012000E-08	 2.00000000E+00
	 1.00000000E+00	-1.49012000E-08	 1.50000000E+00
	 1.00000000E+00	 2.50000000E-01	 2.00000000E+00
	 7.50000000E-01	-1.49012000E-08	 2.00000000E+00
	 5.00000000E-01	-1.49012000E-08	 1.50000000E+00
	 5.00000000E-01	 2.50000000E-01	 2.00000000E+00
	-7.45058000E-09	 5.00000000E-01	 2.00000000E+00
	-7.45058000E-09	 1.00000000E+00	 2.00000000E+00
	 2.50000000E-01	 5.00000000E-01	 2.00000000E+00
	 2.50000000E-01	 1.00000000E+00	 2.00000000E+00
	-7.45058000E-09	 5.00000000E-01	 1.50000000E+00
	-7.45058000E-09	 7.50000000E-01	 2.00000000E+00
	-7.45058000E-09	 1.00000000E+00	 1.50000000E+00
	-7.45058000E-09	-1.49012000E-08	 2.00000000E+00
	 2.50000000E-01	-1.49012000E-08	 2.00000000E+00
	-7.45058000E-09	-1.49012000E-08	 1.50000000E+00
	-7.45058000E-09	 2.50000000E-01	 2.00000000E+00
	 1.00000000E+00	 5.00000000E-01	 3.00000000E+00
	 1.00000000E+00	 1.00000000E+00	 3.00000000E+00
	 5.00000000E-01	 5.00000000E-01	 3.00000000E+00
	 5.00000000E-01	 1.00000000E+00	 3.00000000E+00
	 1.00000000E+00	 5.00000000E-01	 2.50000000E+00
	 1.00000000E+00	 7.50000000E-01	 3.00000000E+00
	 1.00000000E+00	 1.00000000E+00	 2.50000000E+00
	 7.50000000E-01	 5.00000000E-01	 3.00000000E+00
	 7.50000000E-01	 1.00000000E+00	 3.00000000E+00
	 5.00000000E-01	 5.00000000E-01	 2.50000000E+00
	 5.00000000E-01	 7.50000000E-01	 3.00000000E+00
	 5.00000000E-01	 1.00000000E+00	 2.50000000E+00
	 1.00000000E+00	-1.49012000E-08	 3.00000000E+00
	 5.00000000E-01	-1.49012000E-08	 3.00000000E+00
	 1.00000000E+00	-1.49012000E-08	 2.50000000E+00
	 1.00000000E+00	 2.50000000E-01	 3.00000000E+00
	 7.50000000E-01	-1.49012000E-08	 3.00000000E+00
	 5.00000000E-01	-1.49012000E-08	 2.50000000E+00
	 5.00000000E-01	 2.50000000E-01	 3.00000000E+00
	-7.45058000E-09	 5.00000000E-01	 3.00000000E+00
	-7.45058000E-09	 1.00000000E+00	 3.00000000E+00
	 2.50000000E-01	 5.00000000E-01	 3.00000000E+00
	 2.50000000E-01	 1.00000000E+00	 3.00000000E+00
	-7.45058000E-09	 5.00000000E-01	 2.50000000E+00
	-7.45058000E-09	 7.50000000E-01	 3.00000000E+00
	-7.45058000E-09	 1.00000000E+00	 2.50000000E+00
	-7.45058000E-09	-1.49012000E-08	 3.00000000E+00
	 2.50000000E-01	-1.49012000E-08	 3.00000000E+00
	-7.45058000E-09	-1.49012000E-08	 2.50000000E+00
	-7.45058000E-09	 2.50000000E-01	 3.00000000E+00
	 1.00000000E+00	 5.00000000E-01	 4.00000000E+00
	 1.00000000E+00	 1.00000000E+00	 4.00000000E+00
	 5.00000000E-01	 5.00000000E-01	 4.00000000E+00
	 5.00000000E-01	 1.00000000E+00	 4.00000000E+00
	 1.00000000E+00	 5.00000000E-01	 3.50000000E+00
	 1.00000000E+00	 7.50000000E-01	 4.00000000E+00
	 1.00000000E+00	 1.00000000E+00	 3.50000000E+00
	 7.50000000E-01	 5.00000000E-01	 4.00000000E+00
	 7.50000000E-01	 1.00000000E+00	 4.00000000E+00
	 5.00000000E-01	 5.00000000E-01	 3.50000000E+00
	 5.00000000E-01	 7.50000000E-01	 4.00000000E+00
	 5.00000000E-01	 1.00000000E+00	 3.50000000E+00
	 1.00000000E+00	-1.49012000E-08	 4.00000000E+00
	 5.00000000E-01	-1.49012000E-08	 4.00000000E+00
	 1.00000000E+00	-1.49012000E-08	 3.50000000E+00
	 1.00000000E+00	 2.50000000E-01	 4.00000000E+00
	 7.50000000E-01	-1.49012000E-08	 4.00000000E+00
	 5.00000000E-01	-1.49012000E-08	 3.50000000E+00
	 5.00000000E-01	 2.50000000E-01	 4.00000000E+00
	-7.45058000E-09	 5.00000000E-01	 4.00000000E+00
	-7.45058000E-09	 1.00000000E+00	 4.00000000E+00
	 2.50000000E-01	 5.00000000E-01	 4.00000000E+00
	 2.50000000E-01	 1.00000000E+00	 4.00000000E+00
	-7.45058000E-09	 5.00000000E-01	 3.50000000E+00
	-7.45058000E-09	 7.50000000E-01	 4.00000000E+00
	-7.45058000E-09	 1.00000000E+00	 3.50000000E+00
	-7.45058000E-09	-1.49012000E-08	 4.00000000E+00
	 2.50000000E-01	-1.49012000E-08	 4.00000000E+00
	-7.45058000E-09	-1.49012000E-08	 3.50000000E+00
	-7.45058000E-09	 2.50000000E-01	 4.00000000E+00
	 1.00000000E+00	 5.00000000E-01	 5.00000000E+00
	 1.00000000E+00	 1.00000000E+00	 5.00000000E+00
	 5.00000000E-01	 5.00000000E-01	 5.00000000E+00
	 5.00000000E-01	 1.00000000E+00	 5.00000000E+00
	 1.00000000E+00	 5.00000000E-01	 4.50000000E+00
	 1.00000000E+00	 7.50000000E-01	 5.00000000E+00
	 1.00000000E+00	 1.00000000E+00	 4.50000000E+00
	 7.50000000E-01	 5.00000000E-01	 5.00000000E+00
	 7.50000000E-01	 1.00000000E+00	 5.00000000E+00
	 5.00000000E-01	 5.00000000E-01	 4.50000000E+00
	 5.00000000E-01	 7.50000000E-01	 5.00000000E+00
	 5.00000000E-01	 1.00000000E+00	 4.50000000E+00
	 1.00000000E+00	-1.49012000E-08	 5.00000000E+00
	 5.00000000E-01	-1.49012000E-08	 5.00000000E+00
	 1.00000000E+00	-1.49012000E-08	 4.50000000E+00
	 1.00000000E+00	 2.50000000E-01	 5.00000000E+00
	 7.50000000E-01	-1.49012000E-08	 5.00000000E+00
	 5.00000000E-01	-1.49012000E-08	 4.50000000E+00
	 5.00000000E-01	 2.50000000E-01	 5.00000000E+00
	-7.45058000E-09	 5.00000000E-01	 5.00000000E+00
	-7.45058000E-09	 1.00000000E+00	 5.00000000E+00
	 2.50000000E-01	 5.00000000E-01	 5.00000000E+00
	 2.50000000E-01	 1.00000000E+00	 5.00000000E+00
	-7.45058000E-09	 5.00000000E-01	 4.50000000E+00
	-7.45058000E-09	 7.50000000E-01	 5.00000000E+00
	-7.45058000E-09	 1.00000000E+00	 4.50000000E+00
	-7.45058000E-09	-1.49012000E-08	 5.00000000E+00
	 2.50000000E-01	-1.49012000E-08	 5.00000000E+00
	-7.45058000E-09	-1.49012000E-08	 4.50000000E+00
	-7.45058000E-09	 2.50000000E-01	 5.00000000E+00
	 1.00000000E+00	 5.00000000E-01	 6.00000000E+00
	 1.00000000E+00	 1.00000000E+00	 6.00000000E+00
	 5.00000000E-01	 5.00000000E-01	 6.00000000E+00
	 5.00000000E-01	 1.00000000E+00	 6.00000000E+00
	 1.00000000E+00	 5.00000000E-01	 5.50000000E+00
	 1.00000000E+00	 7.50000000E-01	 6.00000000E+00
	 1.00000000E+00	 1.00000000E+00	 5.50000000E+00
	 7.50000000E-01	 5.00000000E-01	 6.00000000E+00
	 7.50000000E-01	 1.00000000E+00	 6.00000000E+00
	 5.00000000E-01	 5.00000000E-01	 5.50000000E+00
	 5.00000000E-01	 7.50000000E-01	 6.00000000E+00
	 5.00000000E-01	 1.00000000E+00	 5.50000000E+00
	 1.00000000E+00	-1.49012000E-08	 6.00000000E+00
	 5.00000000E-01	-1.49012000E-08	 6.00000000E+00
	 1.00000000E+00	-1.49012000E-08	 5.50000000E+00
	 1.00000000E+00	 2.50000000E-01	 6.00000000E+00
	 7.50000000E-01	-1.49012000E-08	 6.00000000E+00
	 5.00000000E-01	-1.49012000E-08	 5.50000000E+00
	 5.00000000E-01	 2.50000000E-01	 6.00000000E+00
	-7.45058000E-09	 5.00000000E-01	 6.00000000E+00
	-7.45058000E-09	 1.00000000E+00	 6.00000000E+00
	 2.50000000E-01	 5.00000000E-01	 6.00000000E+00
	 2.50000000E-01	 1.00000000E+00	 6.00000000E+00
	-7.45058000E-09	 5.00000000E-01	 5.50000000E+00
	-7.45058000E-09	 7.50000000E-01	 6.00000000E+00
	-7.45058000E-09	 1.00000000E+00	 5.50000000E+00
	-7.45058000E-09	-1.49012000E-08	 6.00000000E+00
	 2.50000000E-01	-1.49012000E-08	 6.00000000E+00
	-7.45058000E-09	-1.49012000E-08	 5.50000000E+00
	-7.45058000E-09	 2.50000000E-01	 6.00000000E+00
	 1.00000000E+00	 5.00000000E-01	 7.00000000E+00
[...]
POINT_DATA 522
FIELD U 1
	U 3 522 double
		 0.00000000E+00	 0.00000000E+00	 0.00000000E+00
		 0.00000000E+00	 0.00000000E+00	 0.00000000E+00
		 2.73735000E-05	-1.80845000E-03	-3.79931000E-05
		-1.69767000E-04	-1.81929000E-03	 1.38271000E-03
		 0.00000000E+00	 0.00000000E+00	 0.00000000E+00
		 0.00000000E+00	 0.00000000E+00	 0.00000000E+00
		 5.96660000E-06	-1.88046000E-03	-2.12966000E-05
		-1.95347000E-05	-1.95665000E-03	 1.43160000E-03
		 0.00000000E+00	 0.00000000E+00	 0.00000000E+00
		-1.70995000E-05	-4.36748000E-04	-2.29402000E-05
		-4.46179000E-05	-1.81221000E-03	 6.33978000E-04
		-2.15615000E-04	-5.48859000E-04	 7.51216000E-04
		 0.00000000E+00	 0.00000000E+00	 0.00000000E+00
		 0.00000000E+00	 0.00000000E+00	 0.00000000E+00
		-4.35392000E-06	-1.83745000E-03	-1.75544000E-05
		-7.56873000E-05	-1.92115000E-03	 1.42025000E-03
		 0.00000000E+00	 0.00000000E+00	 0.00000000E+00
		-3.35357000E-06	-5.68373000E-04	-1.20548000E-05
		-4.58478000E-06	-1.86699000E-03	 6.48531000E-04
		-1.97034000E-05	-6.35883000E-04	 7.41705000E-04
		 0.00000000E+00	 0.00000000E+00	 0.00000000E+00
		 1.48623000E-04	-1.86904000E-03	-1.46953000E-03
		 0.00000000E+00	 0.00000000E+00	 0.00000000E+00
		 8.39232000E-06	-1.94454000E-03	-1.47571000E-03
		 0.00000000E+00	 0.00000000E+00	 0.00000000E+00
		 2.38963000E-04	-6.19557000E-04	-7.96706000E-04
		 1.03434000E-04	-1.79506000E-03	-7.22624000E-04
		 0.00000000E+00	 0.00000000E+00	 0.00000000E+00
		 9.84788000E-05	-1.90936000E-03	-1.49623000E-03
		 0.00000000E+00	 0.00000000E+00	 0.00000000E+00
		 2.72540000E-05	-6.79923000E-04	-7.46484000E-04
		 3.05798000E-05	-1.89988000E-03	-7.24419000E-04
		 0.00000000E+00	 0.00000000E+00	 0.00000000E+00
		 0.00000000E+00	 0.00000000E+00	 0.00000000E+00
		-6.35598000E-06	-1.82036000E-03	-1.43276000E-05
		 1.64353000E-04	-1.84365000E-03	 1.43195000E-03
		 0.00000000E+00	 0.00000000E+00	 0.00000000E+00
		 0.00000000E+00	 0.00000000E+00	 0.00000000E+00
		 8.59708000E-06	-1.87688000E-03	 4.33224000E-06
		 6.30478000E-05	-1.94278000E-03	 1.42844000E-03
		 0.00000000E+00	 0.00000000E+00	 0.00000000E+00
		 8.56518000E-06	-4.90504000E-04	-2.32914000E-05
		 6.89718000E-05	-1.81836000E-03	 6.74648000E-04
		 2.09056000E-04	-6.13570000E-04	 7.89258000E-04
		 0.00000000E+00	 0.00000000E+00	 0.00000000E+00
		-1.30813000E-04	-1.88045000E-03	-1.44229000E-03
		 0.00000000E+00	 0.00000000E+00	 0.00000000E+00
		-8.52765000E-05	-1.94013000E-03	-1.44449000E-03
		 0.00000000E+00	 0.00000000E+00	 0.00000000E+00
		-1.86743000E-04	-6.00332000E-04	-8.00417000E-04
		-5.53055000E-05	-1.79946000E-03	-6.71115000E-04
		 2.51273000E-06	-5.93251000E-03	-7.36062000E-05
		-3.10313000E-05	-5.99137000E-03	 2.12087000E-03
		 6.96678000E-06	-5.91663000E-03	-2.00791000E-05
		 3.19166000E-05	-5.99561000E-03	 2.14124000E-03
		 6.22519000E-06	-3.69284000E-03	-4.56135000E-05
		-2.15476000E-05	-5.94785000E-03	 1.02238000E-03
		-6.22493000E-05	-3.78712000E-03	 1.85317000E-03
		-6.06073000E-07	-5.92536000E-03	-4.80584000E-05
		-5.45188000E-06	-5.96882000E-03	 2.12665000E-03
		 9.46461000E-06	-3.72887000E-03	-3.26976000E-05
		 2.50816000E-05	-5.95682000E-03	 1.05075000E-03
		 3.43936000E-05	-3.78491000E-03	 1.87770000E-03
		 3.36496000E-05	-5.94434000E-03	-2.20511000E-03
		-1.57825000E-05	-5.95967000E-03	-2.22388000E-03
		 6.61437000E-05	-3.72686000E-03	-1.92302000E-03
		 2.68332000E-05	-5.92985000E-03	-1.11091000E-03
		 7.50599000E-06	-5.96404000E-03	-2.21231000E-03
		-3.15912000E-05	-3.75959000E-03	-1.94592000E-03
		-9.84738000E-06	-5.93615000E-03	-1.09036000E-03
		 1.59877000E-05	-5.90296000E-03	-7.56093000E-07
		 9.23718000E-05	-5.91213000E-03	 2.17646000E-03
		 8.63717000E-06	-5.89509000E-03	-2.67662000E-05
		 6.20445000E-05	-5.93509000E-03	 2.17505000E-03
		 1.57822000E-05	-3.64187000E-03	-6.71059000E-06
		 7.42393000E-05	-5.89981000E-03	 1.04060000E-03
		 1.14827000E-04	-3.72099000E-03	 1.88827000E-03
		-6.58163000E-05	-5.88488000E-03	-2.16956000E-03
		-3.27391000E-05	-5.93002000E-03	-2.19237000E-03
		-1.38230000E-04	-3.71577000E-03	-1.90700000E-03
		-2.56553000E-05	-5.89036000E-03	-1.05635000E-03
		 3.70950000E-06	-1.06424000E-02	-2.11043000E-05
		-3.03044000E-05	-1.05950000E-02	 2.27387000E-03
		 7.25295000E-06	-1.06648000E-02	 8.92250000E-07
		-3.98015000E-05	-1.06632000E-02	 2.30398000E-03
		 5.91561000E-06	-8.23893000E-03	-3.62021000E-05
		 2.17328000E-05	-1.06280000E-02	 1.10843000E-03
		-4.62636000E-05	-8.26613000E-03	 2.25255000E-03
		 3.06630000E-06	-1.06455000E-02	-2.84890000E-05
		-3.03802000E-05	-1.06621000E-02	 2.31119000E-03
		 1.39064000E-05	-8.27466000E-03	-5.83703000E-06
		-2.69232000E-06	-1.06590000E-02	 1.13747000E-03
		-3.55226000E-05	-8.29453000E-03	 2.27907000E-03
		 3.22566000E-06	-1.06184000E-02	-2.30684000E-03
		 6.23800000E-05	-1.06645000E-02	-2.30713000E-03
		 4.91063000E-05	-8.22359000E-03	-2.34658000E-03
		 4.81095000E-06	-1.06360000E-02	-1.15075000E-03
		 3.56764000E-05	-1.06297000E-02	-2.32650000E-03
		 4.06707000E-05	-8.27182000E-03	-2.31437000E-03
		 3.08077000E-05	-1.06608000E-02	-1.12859000E-03
		 6.01212000E-06	-1.06673000E-02	 2.51767000E-05
		-3.29504000E-05	-1.07346000E-02	 2.33556000E-03
		 1.40693000E-05	-1.06917000E-02	 9.03492000E-06
		-4.11257000E-05	-1.07205000E-02	 2.28812000E-03
		-3.41803000E-06	-8.29701000E-03	 8.98147000E-06
		-6.76626000E-06	-1.07019000E-02	 1.14482000E-03
		-1.08384000E-05	-8.32266000E-03	 2.31217000E-03
		 5.61149000E-05	-1.07216000E-02	-2.26637000E-03
		 5.58661000E-05	-1.06708000E-02	-2.28243000E-03
		 6.35774000E-05	-8.29409000E-03	-2.28399000E-03
		 9.72497000E-06	-1.06989000E-02	-1.12482000E-03
		 4.45539000E-05	-1.52245000E-02	-3.04299000E-05
		 1.76291000E-04	-1.52378000E-02	 2.00776000E-03
		 9.43431000E-06	-1.51548000E-02	-7.06005000E-05
		 7.33243000E-05	-1.51189000E-02	 2.01926000E-03
		 2.67229000E-05	-1.30202000E-02	-2.83028000E-05
		 5.29792000E-05	-1.52349000E-02	 9.96076000E-04
		 1.18581000E-04	-1.29801000E-02	 2.15109000E-03
		 3.59066000E-05	-1.51694000E-02	-2.65979000E-05
		 1.22103000E-04	-1.51468000E-02	 1.99942000E-03
		 1.92365000E-05	-1.29856000E-02	-1.77532000E-05
		 3.27454000E-05	-1.51363000E-02	 9.86348000E-04
		 7.01449000E-05	-1.29578000E-02	 2.18897000E-03
		-1.14069000E-04	-1.52497000E-02	-2.13446000E-03
		-3.53992000E-05	-1.51451000E-02	-2.11140000E-03
		-6.46680000E-05	-1.30362000E-02	-2.19993000E-03
		-4.41896000E-05	-1.52349000E-02	-1.09235000E-03
		-6.71696000E-05	-1.51842000E-02	-2.11521000E-03
		 1.21929000E-05	-1.29899000E-02	-2.24384000E-03
		-4.82797000E-06	-1.51514000E-02	-1.12076000E-03
		-1.35408000E-05	-1.51229000E-02	-6.65983000E-05
		 1.46120000E-05	-1.50735000E-02	 1.97142000E-03
		-3.81543000E-06	-1.51104000E-02	-6.46401000E-05
		 3.61383000E-05	-1.50846000E-02	 1.98087000E-03
		 2.41070000E-05	-1.29666000E-02	-2.98509000E-05
		 3.52239000E-05	-1.51068000E-02	 9.88644000E-04
		 6.35419000E-06	-1.29285000E-02	 2.16916000E-03
		-1.57019000E-05	-1.50845000E-02	-2.18224000E-03
		-2.76904000E-05	-1.51008000E-02	-2.08995000E-03
		 1.43758000E-05	-1.29310000E-02	-2.25711000E-03
		-1.45089000E-05	-1.51139000E-02	-1.12378000E-03
		 2.44269000E-05	-1.88581000E-02	-6.46805000E-05
		 1.09702000E-05	-1.89270000E-02	 2.01285000E-03
		 4.88080000E-05	-1.88236000E-02	-5.84572000E-05
		 6.63976000E-05	-1.88897000E-02	 1.94775000E-03
		 2.88775000E-05	-1.71087000E-02	-3.01583000E-05
		 2.22751000E-05	-1.88728000E-02	 9.75790000E-04
		 1.34277000E-04	-1.71173000E-02	 1.92181000E-03
		 3.76452000E-05	-1.88610000E-02	-5.42197000E-05
		 3.80093000E-05	-1.89088000E-02	 1.96980000E-03
		 2.69779000E-05	-1.70161000E-02	-8.60536000E-05
		 5.83339000E-05	-1.88593000E-02	 9.93932000E-04
		 9.23933000E-05	-1.70272000E-02	 1.91652000E-03
		 1.77285000E-05	-1.89146000E-02	-2.05522000E-03
		-2.34276000E-05	-1.88544000E-02	-2.07448000E-03
		-5.11809000E-05	-1.71253000E-02	-2.00973000E-03
		 1.47807000E-05	-1.88754000E-02	-1.12563000E-03
		-1.06585000E-05	-1.88891000E-02	-2.06395000E-03
		-6.77360000E-05	-1.70124000E-02	-2.05021000E-03
		 9.45109000E-06	-1.88339000E-02	-1.10071000E-03
		 6.15030000E-05	-1.87719000E-02	-8.70499000E-05
		 1.50050000E-04	-1.88287000E-02	 1.96567000E-03
		 5.37442000E-05	-1.88130000E-02	-6.86781000E-05
		 1.15254000E-04	-1.88402000E-02	 1.94362000E-03
		-4.97845000E-06	-1.69586000E-02	-8.95895000E-05
		 1.03591000E-04	-1.87898000E-02	 1.00174000E-03
		 7.74445000E-05	-1.69894000E-02	 1.90965000E-03
		-1.05191000E-04	-1.87489000E-02	-2.10006000E-03
		-5.21033000E-05	-1.87904000E-02	-2.08837000E-03
		-2.67371000E-05	-1.69654000E-02	-2.05542000E-03
		-1.82827000E-05	-1.87485000E-02	-1.12892000E-03
		 1.98286000E-05	-2.33170000E-02	 1.18181000E-05
		-5.72197000E-07	-2.33664000E-02	 3.02123000E-03
		 3.66941000E-05	-2.32251000E-02	-2.69540000E-05
		 2.47559000E-04	-2.33493000E-02	 2.95946000E-03
		 3.58966000E-05	-2.08055000E-02	-1.08510000E-05
		 3.06761000E-05	-2.32982000E-02	 1.54852000E-03
		-1.50567000E-05	-2.09249000E-02	 2.40493000E-03
		 3.96143000E-05	-2.33223000E-02	-2.08863000E-05
		 1.13536000E-04	-2.34045000E-02	 3.01956000E-03
		 3.32880000E-05	-2.07622000E-02	-4.47702000E-05
		 1.59521000E-04	-2.32689000E-02	 1.50843000E-03
		 1.57085000E-04	-2.08620000E-02	 2.31653000E-03
		 4.26621000E-05	-2.34463000E-02	-3.12463000E-03
		-1.86889000E-04	-2.33096000E-02	-3.09560000E-03
		 2.73727000E-05	-2.09047000E-02	-2.46435000E-03
		 4.83976000E-05	-2.33784000E-02	-1.59311000E-03
		-8.50601000E-05	-2.34189000E-02	-3.11613000E-03
		-9.73157000E-05	-2.08435000E-02	-2.39961000E-03
		-7.63918000E-05	-2.32047000E-02	-1.59810000E-03
		 4.02457000E-05	-2.28739000E-02	-2.47926000E-05
		 5.09847000E-04	-2.29695000E-02	 3.03633000E-03
		 2.64621000E-05	-2.30671000E-02	-3.19264000E-05
		 3.89962000E-04	-2.32015000E-02	 2.98520000E-03
		 4.52983000E-05	-2.05544000E-02	-5.13447000E-05
		 2.62645000E-04	-2.28586000E-02	 1.54509000E-03
		 2.96006000E-04	-2.06732000E-02	 2.36024000E-03
		-4.55915000E-04	-2.29580000E-02	-3.11122000E-03
		-3.15404000E-04	-2.31519000E-02	-3.08534000E-03
		-2.23367000E-04	-2.06322000E-02	-2.47290000E-03
		-2.30492000E-04	-2.29100000E-02	-1.63151000E-03
		 1.73774000E-05	-3.18265000E-02	-1.74996000E-04
		 5.16508000E-04	-3.20277000E-02	 5.06469000E-03
		 8.01605000E-05	-3.11860000E-02	-7.62007000E-05
		 8.36101000E-04	-3.13513000E-02	 5.12977000E-03
		 2.22391000E-05	-2.70195000E-02	-1.21951000E-04
		 2.97274000E-04	-3.19098000E-02	 2.42089000E-03
		 1.97165000E-04	-2.71155000E-02	 3.99425000E-03
		 4.58300000E-05	-3.15833000E-02	-9.06880000E-05
		 6.77771000E-04	-3.17483000E-02	 5.12131000E-03
		 4.79664000E-05	-2.66441000E-02	-3.55411000E-05
		 4.70888000E-04	-3.11966000E-02	 2.46011000E-03
		 5.58010000E-04	-2.68225000E-02	 4.01744000E-03
		-3.99233000E-04	-3.18720000E-02	-5.16723000E-03
		-7.72164000E-04	-3.13063000E-02	-5.10641000E-03
		-1.73781000E-04	-2.71376000E-02	-4.09211000E-03
		-2.18323000E-04	-3.17952000E-02	-2.59501000E-03
		-5.82961000E-04	-3.16740000E-02	-5.19102000E-03
		-4.85243000E-04	-2.67991000E-02	-4.08959000E-03
		-3.58532000E-04	-3.12335000E-02	-2.59818000E-03
		 1.09210000E-04	-3.01521000E-02	-1.09676000E-04
		 1.25449000E-03	-3.03480000E-02	 5.07482000E-03
		 9.28577000E-05	-3.07387000E-02	-7.10225000E-05
		 1.01455000E-03	-3.09492000E-02	 5.01972000E-03
		 7.48424000E-05	-2.59778000E-02	-5.82905000E-05
		 6.26206000E-04	-3.02974000E-02	 2.46839000E-03
		 9.51095000E-04	-2.60262000E-02	 4.03571000E-03
		-1.17871000E-03	-3.01311000E-02	-5.16581000E-03
		-9.55679000E-04	-3.08341000E-02	-5.09906000E-03
		-7.62218000E-04	-2.60980000E-02	-4.08280000E-03
		-5.38164000E-04	-3.00911000E-02	-2.62068000E-03
		-1.11809000E-04	-4.47293000E-02	-4.04889000E-05
		 9.64605000E-04	-4.46234000E-02	 6.25697000E-03
		 9.79867000E-05	-4.34699000E-02	-5.42298000E-05
		 1.14730000E-03	-4.33299000E-02	 6.22699000E-03
		 4.43324000E-05	-3.80265000E-02	-3.82147000E-05
		 4.24646000E-04	-4.45816000E-02	 2.96478000E-03
		 9.11219000E-04	-3.80824000E-02	 5.85863000E-03
		 1.04298000E-05	-4.40290000E-02	-1.11412000E-04
		 1.01756000E-03	-4.40009000E-02	 6.18785000E-03
		 3.29463000E-05	-3.70577000E-02	-7.56172000E-05
		 6.71464000E-04	-4.34638000E-02	 3.03341000E-03
		 1.05452000E-03	-3.71703000E-02	 5.88219000E-03
		-1.13552000E-03	-4.50218000E-02	-6.70745000E-03
		-1.10028000E-03	-4.37233000E-02	-6.51958000E-03
		-9.16730000E-04	-3.80900000E-02	-6.09597000E-03
		-5.55390000E-04	-4.48820000E-02	-3.22605000E-03
		-1.12480000E-03	-4.42855000E-02	-6.59044000E-03
		-1.05459000E-03	-3.70575000E-02	-5.99714000E-03
		-4.49946000E-04	-4.35490000E-02	-3.14741000E-03
		 2.47306000E-04	-4.21267000E-02	 3.97313000E-05
		 1.06893000E-03	-4.36600000E-02	 6.52215000E-03
		 2.01812000E-04	-4.28544000E-02	-5.72736000E-05
		 1.20195000E-03	-4.34372000E-02	 6.33104000E-03
		 5.86458000E-05	-3.59972000E-02	-4.38168000E-05
		 7.21026000E-04	-4.26978000E-02	 3.15931000E-03
		 1.21622000E-03	-3.63386000E-02	 5.81461000E-03
		-1.18132000E-03	-4.18910000E-02	-5.98242000E-03
		-1.15469000E-03	-4.27825000E-02	-6.14276000E-03
		-1.21049000E-03	-3.58979000E-02	-5.87471000E-03
		-4.31081000E-04	-4.20316000E-02	-2.94696000E-03
		 0.00000000E+00	 0.00000000E+00	 0.00000000E+00
		 0.00000000E+00	 0.00000000E+00	 0.00000000E+00
		 7.59241000E-05	-1.72889000E-02	-3.66929000E-04
		-3.21401000E-03	-1.85728000E-02	 1.65969000E-02
		 0.00000000E+00	 0.00000000E+00	 0.00000000E+00
		 0.00000000E+00	 0.00000000E+00	 0.00000000E+00
		-1.47190000E-05	-1.92366000E-02	-4.61085000E-04
		-1.01537000E-03	-2.06971000E-02	 1.67175000E-02
		 0.00000000E+00	 0.00000000E+00	 0.00000000E+00
		 5.76628000E-06	-3.63107000E-03	-1.16546000E-04
		-1.58126000E-03	-1.75494000E-02	 8.00307000E-03
		-2.97695000E-03	-5.14208000E-03	 8.52048000E-03
		 0.00000000E+00	 0.00000000E+00	 0.00000000E+00
		 0.00000000E+00	 0.00000000E+00	 0.00000000E+00
		 2.54435000E-05	-1.86995000E-02	-4.23602000E-04
		-2.06884000E-03	-2.00150000E-02	 1.65403000E-02
		 0.00000000E+00	 0.00000000E+00	 0.00000000E+00
		-5.22206000E-05	-5.17641000E-03	-1.57373000E-04
		-4.93274000E-04	-1.95427000E-02	 7.92142000E-03
		-4.64041000E-04	-6.74921000E-03	 8.25934000E-03
		 0.00000000E+00	 0.00000000E+00	 0.00000000E+00
		 3.20102000E-03	-1.79868000E-02	-1.75183000E-02
		 0.00000000E+00	 0.00000000E+00	 0.00000000E+00
		 9.22928000E-04	-1.99603000E-02	-1.78108000E-02
		 0.00000000E+00	 0.00000000E+00	 0.00000000E+00
		 3.04386000E-03	-5.01883000E-03	-8.82685000E-03
		 1.66031000E-03	-1.72070000E-02	-8.83172000E-03
		 0.00000000E+00	 0.00000000E+00	 0.00000000E+00
		 2.07045000E-03	-1.93515000E-02	-1.75778000E-02
		 0.00000000E+00	 0.00000000E+00	 0.00000000E+00
		 4.28153000E-04	-6.57382000E-03	-8.60896000E-03
		 4.64237000E-04	-1.92076000E-02	-8.93047000E-03
		 0.00000000E+00	 0.00000000E+00	 0.00000000E+00
		 0.00000000E+00	 0.00000000E+00	 0.00000000E+00
		-1.09691000E-04	-1.90542000E-02	-4.67204000E-04
		 1.22451000E-03	-2.02979000E-02	 1.65622000E-02
		 0.00000000E+00	 0.00000000E+00	 0.00000000E+00
		 0.00000000E+00	 0.00000000E+00	 0.00000000E+00
		-5.63150000E-05	-1.95274000E-02	-4.69073000E-04
		 5.74412000E-05	-2.08602000E-02	 1.67519000E-02
		 0.00000000E+00	 0.00000000E+00	 0.00000000E+00
		-1.15239000E-04	-4.47426000E-03	-1.65174000E-04
		 5.82092000E-04	-1.92997000E-02	 7.77143000E-03
		 2.06345000E-03	-6.00608000E-03	 8.45122000E-03
		 0.00000000E+00	 0.00000000E+00	 0.00000000E+00
		-1.29572000E-03	-1.97828000E-02	-1.75931000E-02
		 0.00000000E+00	 0.00000000E+00	 0.00000000E+00
		-1.94273000E-04	-2.02540000E-02	-1.77975000E-02
		 0.00000000E+00	 0.00000000E+00	 0.00000000E+00
		-2.22263000E-03	-5.77627000E-03	-8.84118000E-03
		-6.74974000E-04	-1.90101000E-02	-8.72016000E-03
		-1.84065000E-04	-6.65910000E-02	-1.78717000E-03
		-3.70981000E-03	-6.83486000E-02	 2.83931000E-02
		-8.26819000E-05	-6.95491000E-02	-1.87966000E-03
		-2.25254000E-03	-7.11440000E-02	 2.82705000E-02
		-1.39178000E-05	-3.84884000E-02	-8.77166000E-04
		-1.94920000E-03	-6.73019000E-02	 1.31624000E-02
		-3.59721000E-03	-4.01464000E-02	 2.32852000E-02
		-1.54212000E-04	-6.82436000E-02	-1.83366000E-03
		-2.99777000E-03	-6.99226000E-02	 2.83151000E-02
		-5.72138000E-05	-4.11009000E-02	-1.04011000E-03
		-1.15205000E-03	-7.01575000E-02	 1.30500000E-02
		-1.64580000E-03	-4.27165000E-02	 2.31870000E-02
		 3.63430000E-03	-6.63962000E-02	-3.18748000E-02
		 2.04932000E-03	-6.94374000E-02	-3.21993000E-02
		 3.54357000E-03	-3.88766000E-02	-2.50910000E-02
		 1.71012000E-03	-6.63486000E-02	-1.66669000E-02
		 2.84333000E-03	-6.81117000E-02	-3.20572000E-02
		 1.58097000E-03	-4.15000000E-02	-2.54071000E-02
		 9.68610000E-04	-6.93354000E-02	-1.68421000E-02
		-1.71346000E-05	-7.08325000E-02	-2.02470000E-03
		-5.05090000E-04	-7.24951000E-02	 2.82164000E-02
		-3.69392000E-05	-7.03856000E-02	-1.96618000E-03
		-1.37363000E-03	-7.20889000E-02	 2.83439000E-02
		-8.69653000E-05	-4.17015000E-02	-1.05644000E-03
		-3.17298000E-04	-7.14830000E-02	 1.28709000E-02
		 3.31204000E-04	-4.32586000E-02	 2.31014000E-02
		 5.26729000E-04	-7.08798000E-02	-3.21643000E-02
		 1.27642000E-03	-7.03040000E-02	-3.23262000E-02
		-4.21180000E-04	-4.21133000E-02	-2.53688000E-02
		 2.14904000E-04	-7.07131000E-02	-1.67867000E-02
		-9.30211000E-05	-1.37387000E-01	-4.30190000E-03
		-3.94055000E-03	-1.39129000E-01	 3.37429000E-02
		-1.39852000E-05	-1.40891000E-01	-4.41914000E-03
		-3.14190000E-03	-1.42838000E-01	 3.36015000E-02
		-5.29804000E-05	-1.00028000E-01	-2.88916000E-03
		-2.04656000E-03	-1.38131000E-01	 1.46692000E-02
		-3.84472000E-03	-1.01942000E-01	 3.17382000E-02
		-4.44217000E-05	-1.39260000E-01	-4.36326000E-03
		-3.53378000E-03	-1.41039000E-01	 3.35637000E-02
		-8.71185000E-05	-1.03284000E-01	-3.00647000E-03
		-1.59939000E-03	-1.41752000E-01	 1.44524000E-02
		-2.65852000E-03	-1.05111000E-01	 3.17161000E-02
		 3.91323000E-03	-1.36484000E-01	-4.23183000E-02
		 3.05246000E-03	-1.39978000E-01	-4.25770000E-02
		 3.75704000E-03	-9.93969000E-02	-3.75537000E-02
		 1.92677000E-03	-1.36836000E-01	-2.31770000E-02
		 3.47802000E-03	-1.38261000E-01	-4.24158000E-02
		 2.56150000E-03	-1.02667000E-01	-3.78527000E-02
		 1.54379000E-03	-1.40345000E-01	-2.33600000E-02
		-6.96950000E-05	-1.43743000E-01	-4.48123000E-03
		-2.35615000E-03	-1.45651000E-01	 3.34933000E-02
		-3.72665000E-05	-1.42389000E-01	-4.45483000E-03
		-2.77998000E-03	-1.44289000E-01	 3.36930000E-02
		-9.64706000E-05	-1.05277000E-01	-3.15976000E-03
		-1.21231000E-03	-1.44581000E-01	 1.41519000E-02
		-1.35767000E-03	-1.06991000E-01	 3.15770000E-02
		 2.37653000E-03	-1.42629000E-01	-4.26279000E-02
		 2.70780000E-03	-1.41342000E-01	-4.27547000E-02
		 1.39849000E-03	-1.04682000E-01	-3.78565000E-02
		 1.18918000E-03	-1.43092000E-01	-2.33190000E-02
		 4.19544000E-04	-2.17987000E-01	-7.60476000E-03
		-4.44892000E-03	-2.19719000E-01	 3.37308000E-02
		 3.13938000E-04	-2.22798000E-01	-7.83252000E-03
		-4.30493000E-03	-2.24919000E-01	 3.36609000E-02
		 8.13584000E-05	-1.76907000E-01	-5.89901000E-03
		-1.94376000E-03	-2.18834000E-01	 1.30209000E-02
		-4.38374000E-03	-1.78738000E-01	 3.42662000E-02
		 3.74718000E-04	-2.20346000E-01	-7.70825000E-03
		-4.36474000E-03	-2.22338000E-01	 3.36444000E-02
		 8.25419000E-05	-1.81065000E-01	-6.07838000E-03
		-1.88001000E-03	-2.23814000E-01	 1.27792000E-02
		-3.84909000E-03	-1.82910000E-01	 3.41769000E-02
		 4.91788000E-03	-2.16474000E-01	-4.90546000E-02
		 4.71937000E-03	-2.21022000E-01	-4.92457000E-02
		 4.48170000E-03	-1.75555000E-01	-4.60756000E-02
		 2.59436000E-03	-2.17209000E-01	-2.82879000E-02
		 4.82903000E-03	-2.18862000E-01	-4.91206000E-02
		 3.97454000E-03	-1.79651000E-01	-4.62672000E-02
		 2.50530000E-03	-2.21886000E-01	-2.84287000E-02
		 1.60014000E-04	-2.27333000E-01	-7.99736000E-03
		-4.09755000E-03	-2.29884000E-01	 3.33162000E-02
		 2.30042000E-04	-2.25088000E-01	-7.92363000E-03
		-4.18294000E-03	-2.27940000E-01	 3.36458000E-02
		 9.12004000E-05	-1.84805000E-01	-6.28210000E-03
		-2.09983000E-03	-2.28516000E-01	 1.24877000E-02
		-3.23931000E-03	-1.86522000E-01	 3.39565000E-02
		 4.35320000E-03	-2.25491000E-01	-4.94559000E-02