<?xml version="1.0"?>
<VTKFile type="UnstructuredGrid" version="0.1" byte_order="LittleEndian">
	<UnstructuredGrid>
		<Piece NumberOfPoints="522" NumberOfCells="64">
			<Points>
				<DataArray type="Float64" NumberOfComponents="3" format="ascii">
					 1.00000000E+00	 1.00000000E+00	-5.96046000E-08
					 1.00000000E+00	 5.00000000E-01	-5.96046000E-08
					 1.00000000E+00	 5.00000000E-01	 1.00000000E+00
					 1.00000000E+00	 1.00000000E+00	 1.00000000E+00
					 5.00000000E-01	 1.00000000E+00	-5.96046000E-08
					 5.00000000E-01	 5.00000000E-01	-5.96046000E-08
					 5.00000000E-01	 5.00000000E-01	 1.00000000E+00
					 5.00000000E-01	 1.00000000E+00	 1.00000000E+00
					 1.00000000E+00	 7.50000000E-01	-5.96046000E-08
					 1.00000000E+00	 5.00000000E-01	 5.00000000E-01
					 1.00000000E+00	 7.50000000E-01	 1.00000000E+00
					 1.00000000E+00	 1.00000000E+00	 5.00000000E-01
					 7.50000000E-01	 1.00000000E+00	-5.96046000E-08
					 7.50000000E-01	 5.00000000E-01	-5.96046000E-08
					 7.50000000E-01	 5.00000000E-01	 1.00000000E+00
					 7.50000000E-01	 1.00000000E+00	 1.00000000E+00
					 5.00000000E-01	 7.50000000E-01	-5.96046000E-08
					 5.00000000E-01	 5.00000000E-01	 5.00000000E-01
					 5.00000000E-01	 7.50000000E-01	 1.00000000E+00
					 5.00000000E-01	 1.00000000E+00	 5.00000000E-01
					 1.00000000E+00	-1.49012000E-08	-5.96046000E-08
					 1.00000000E+00	-1.49012000E-08	 1.00000000E+00
					 5.00000000E-01	-1.49012000E-08	-5.96046000E-08
					 5.00000000E-01	-1.49012000E-08	 1.00000000E+00
					 1.00000000E+00	 2.50000000E-01	-5.96046000E-08
					 1.00000000E+00	-1.49012000E-08	 5.00000000E-01
					 1.00000000E+00	 2.50000000E-01	 1.00000000E+00
					 7.50000000E-01	-1.49012000E-08	-5.96046000E-08
					 7.50000000E-01	-1.49012000E-08	 1.00000000E+00
					 5.00000000E-01	 2.50000000E-01	-5.96046000E-08
					 5.00000000E-01	-1.49012000E-08	 5.00000000E-01
					 5.00000000E-01	 2.50000000E-01	 1.00000000E+00
					-7.45058000E-09	 1.00000000E+00	-5.96046000E-08
					-7.45058000E-09	 5.00000000E-01	-5.96046000E-08
					-7.45058000E-09	 5.00000000E-01	 1.00000000E+00
					-7.45058000E-09	 1.00000000E+00	 1.00000000E+00
					 2.50000000E-01	 1.00000000E+00	-5.96046000E-08
					 2.50000000E-01	 5.00000000E-01	-5.96046000E-08
					 2.50000000E-01	 5.00000000E-01	 1.00000000E+00
					 2.50000000E-01	 1.00000000E+00	 1.00000000E+00
					-7.45058000E-09	 7.50000000E-01	-5.96046000E-08
					-7.45058000E-09	 5.00000000E-01	 5.00000000E-01
					-7.45058000E-09	 7.50000000E-01	 1.00000000E+00
					-7.45058000E-09	 1.00000000E+00	 5.00000000E-01
					-7.45058000E-09	-1.49012000E-08	-5.96046000E-08
					-7.45058000E-09	-1.49012000E-08	 1.00000000E+00
					 2.50000000E-01	-1.49012000E-08	-5.96046000E-08
					 2.50000000E-01	-1.49012000E-08	 1.00000000E+00
					-7.45058000E-09	 2.50000000E-01	-5.96046000E-08
					-7.45058000E-09	-1.49012000E-08	 5.00000000E-01
					-7.45058000E-09	 2.50000000E-01	 1.00000000E+00
					 1.00000000E+00	 5.00000000E-01	 2.00000000E+00
					 1.00000000E+00	 1.00000000E+00	 2.00000000E+00
					 5.00000000E-01	 5.00000000E-01	 2.00000000E+00
					 5.00000000E-01	 1.00000000E+00	 2.00000000E+00
					 1.00000000E+00	 5.00000000E-01	 1.50000000E+00
					 1.00000000E+00	 7.50000000E-01	 2.00000000E+00
					 1.00000000E+00	 1.00000000E+00	 1.50000000E+00
					 7.50000000E-01	 5.00000000E-01	 2.00000000E+00
					 7.50000000E-01	 1.00000000E+00	 2.00000000E+00
					 5.00000000E-01	 5.00000000E-01	 1.50000000E+00
					 5.00000000E-01	 7.50000000E-01	 2.00000000E+00
					 5.00000000E-01	 1.00000000E+00	 1.50000000E+00
					 1.00000000E+00	-1.49012000E-08	 2.00000000E+00
					 5.00000000E-01	-1.49012000E-08	 2.00000000E+00
					 1.00000000E+00	-1.49012000E-08	 1.50000000E+00
					 1.00000000E+00	 2.50000000E-01	 2.00000000E+00
					 7.50000000E-01	-1.49012000E-08	 2.00000000E+00
					 5.00000000E-01	-1.49012000E-08	 1.50000000E+00
					 5.00000000E-01	 2.50000000E-01	 2.00000000E+00
					-7.45058000E-09	 5.00000000E-01	 2.00000000E+00
					-7.45058000E-09	 1.00000000E+00	 2.00000000E+00
					 2.50000000E-01	 5.00000000E-01	 2.00000000E+00
					 2.50000000E-01	 1.00000000E+00	 2.00000000E+00
					-7.45058000E-09	 5.00000000E-01	 1.50000000E+00
					-7.45058000E-09	 7.50000000E-01	 2.00000000E+00
					-7.45058000E-09	 1.00000000E+00	 1.50000000E+00
					-7.45058000E-09	-1.49012000E-08	 2.00000000E+00
					 2.50000000E-01	-1.49012000E-08	 2.00000000E+00
					-7.45058000E-09	-1.49012000E-08	 1.50000000E+00
					-7.45058000E-09	 2.50000000E-01	 2.00000000E+00
					 1.00000000E+00	 5.00000000E-01	 3.00000000E+00
					 1.00000000E+00	 1.00000000E+00	 3.00000000E+00
					 5.00000000E-01	 5.00000000E-01	 3.00000000E+00
					 5.00000000E-01	 1.00000000E+00	 3.00000000E+00
					 1.00000000E+00	 5.00000000E-01	 2.50000000E+00
					 1.00000000E+00	 7.50000000E-01	 3.00000000E+00
					 1.00000000E+00	 1.00000000E+00	 2.50000000E+00
					 7.50000000E-01	 5.00000000E-01	 3.00000000E+00
					 7.50000000E-01	 1.00000000E+00	 3.00000000E+00
					 5.00000000E-01	 5.00000000E-01	 2.50000000E+00
					 5.00000000E-01	 7.50000000E-01	 3.00000000E+00
					 5.00000000E-01	 1.00000000E+00	 2.50000000E+00
					 1.00000000E+00	-1.49012000E-08	 3.00000000E+00
					 5.00000000E-01	-1.49012000E-08	 3.00000000E+00
					 1.00000000E+00	-1.49012000E-08	 2.50000000E+00
					 1.00000000E+00	 2.50000000E-01	 3.00000000E+00
					 7.50000000E-01	-1.49012000E-08	 3.00000000E+00
					 5.00000000E-01	-1.49012000E-08	 2.50000000E+00
					 5.00000000E-01	 2.50000000E-01	 3.00000000E+00
					-7.45058000E-09	 5.00000000E-01	 3.00000000E+00
					-7.45058000E-09	 1.00000000E+00	 3.00000000E+00
					 2.50000000E-01	 5.00000000E-01	 3.00000000E+00
					 2.50000000E-01	 1.00000000E+00	 3.00000000E+00
					-7.45058000E-09	 5.00000000E-01	 2.50000000E+00
					-7.45058000E-09	 7.50000000E-01	 3.00000000E+00
					-7.45058000E-09	 1.00000000E+00	 2.50000000E+00
					-7.45058000E-09	-1.49012000E-08	 3.00000000E+00
					 2.50000000E-01	-1.49012000E-08	 3.00000000E+00
					-7.45058000E-09	-1.49012000E-08	 2.50000000E+00
					-7.45058000E-09	 2.50000000E-01	 3.00000000E+00
					 1.00000000E+00	 5.00000000E-01	 4.00000000E+00
					 1.00000000E+00	 1.00000000E+00	 4.00000000E+00
					 5.00000000E-01	 5.00000000E-01	 4.00000000E+00
					 5.00000000E-01	 1.00000000E+00	 4.00000000E+00
					 1.00000000E+00	 5.00000000E-01	 3.50000000E+00
					 1.00000000E+00	 7.50000000E-01	 4.00000000E+00
					 1.00000000E+00	 1.00000000E+00	 3.50000000E+00
					 7.50000000E-01	 5.00000000E-01	 4.00000000E+00
					 7.50000000E-01	 1.00000000E+00	 4.00000000E+00
					 5.00000000E-01	 5.00000000E-01	 3.50000000E+00
					 5.00000000E-01	 7.50000000E-01	 4.00000000E+00
					 5.00000000E-01	 1.00000000E+00	 3.50000000E+00
					 1.00000000E+00	-1.49012000E-08	 4.00000000E+00
					 5.00000000E-01	-1.49012000E-08	 4.00000000E+00
					 1.00000000E+00	-1.49012000E-08	 3.50000000E+00
					 1.00000000E+00	 2.50000000E-01	 4.00000000E+00
					 7.50000000E-01	-1.49012000E-08	 4.00000000E+00
					 5.00000000E-01	-1.49012000E-08	 3.50000000E+00
					 5.00000000E-01	 2.50000000E-01	 4.00000000E+00
					-7.45058000E-09	 5.00000000E-01	 4.00000000E+00
					-7.45058000E-09	 1.00000000E+00	 4.00000000E+00
					 2.50000000E-01	 5.00000000E-01	 4.00000000E+00
					 2.50000000E-01	 1.00000000E+00	 4.00000000E+00
					-7.45058000E-09	 5.00000000E-01	 3.50000000E+00
					-7.45058000E-09	 7.50000000E-01	 4.00000000E+00
					-7.45058000E-09	 1.00000000E+00	 3.50000000E+00
					-7.45058000E-09	-1.49012000E-08	 4.00000000E+00
					 2.50000000E-01	-1.49012000E-08	 4.00000000E+00
					-7.45058000E-09	-1.49012000E-08	 3.50000000E+00
					-7.45058000E-09	 2.50000000E-01	 4.00000000E+00
					 1.00000000E+00	 5.00000000E-01	 5.00000000E+00
					 1.00000000E+00	 1.00000000E+00	 5.00000000E+00
					 5.00000000E-01	 5.00000000E-01	 5.00000000E+00
					 5.00000000E-01	 1.00000000E+00	 5.00000000E+00
					 1.00000000E+00	 5.00000000E-01	 4.50000000E+00
					 1.00000000E+00	 7.50000000E-01	 5.00000000E+00
					 1.00000000E+00	 1.00000000E+00	 4.50000000E+00
					 7.50000000E-01	 5.00000000E-01	 5.00000000E+00
					 7.50000000E-01	 1.00000000E+00	 5.00000000E+00
					 5.00000000E-01	 5.00000000E-01	 4.50000000E+00
					 5.00000000E-01	 7.50000000E-01	 5.00000000E+00
					 5.00000000E-01	 1.00000000E+00	 4.50000000E+00
					 1.00000000E+00	-1.49012000E-08	 5.00000000E+00
					 5.00000000E-01	-1.49012000E-08	 5.00000000E+00
					 1.00000000E+00	-1.49012000E-08	 4.50000000E+00
					 1.00000000E+00	 2.50000000E-01	 5.00000000E+00
					 7.50000000E-01	-1.49012000E-08	 5.00000000E+00
					 5.00000000E-01	-1.49012000E-08	 4.50000000E+00
					 5.00000000E-01	 2.50000000E-01	 5.00000000E+00
					-7.45058000E-09	 5.00000000E-01	 5.00000000E+00
					-7.45058000E-09	 1.00000000E+00	 5.00000000E+00
					 2.50000000E-01	 5.00000000E-01	 5.00000000E+00
					 2.50000000E-01	 1.00000000E+00	 5.00000000E+00
					-7.45058000E-09	 5.00000000E-01	 4.50000000E+00
					-7.45058000E-09	 7.50000000E-01	 5.00000000E+00
					-7.45058000E-09	 1.00000000E+00	 4.50000000E+00
					-7.45058000E-09	-1.49012000E-08	 5.00000000E+00
					 2.50000000E-01	-1.49012000E-08	 5.00000000E+00
					-7.45058000E-09	-1.49012000E-08	 4.50000000E+00
					-7.45058000E-09	 2.50000000E-01	 5.00000000E+00
					 1.00000000E+00	 5.00000000E-01	 6.00000000E+00
					 1.00000000E+00	 1.00000000E+00	 6.00000000E+00
					 5.00000000E-01	 5.00000000E-01	 6.00000000E+00
					 5.00000000E-01	 1.00000000E+00	 6.00000000E+00
					 1.00000000E+00	 5.00000000E-01	 5.50000000E+00
					 1.00000000E+00	 7.50000000E-01	 6.00000000E+00
					 1.00000000E+00	 1.00000000E+00	 5.50000000E+00
					 7.50000000E-01	 5.00000000E-01	 6.00000000E+00
					 7.50000000E-01	 1.00000000E+00	 6.00000000E+00
					 5.00000000E-01	 5.00000000E-01	 5.50000000E+00
					 5.00000000E-01	 7.50000000E-01	 6.00000000E+00
					 5.00000000E-01	 1.00000000E+00	 5.50000000E+00
					 1.00000000E+00	-1.49012000E-08	 6.00000000E+00
[...]
			<PointData>
				<DataArray type="Float32" Name="U" NumberOfComponents="3" ComponentName0="D1" ComponentName1="D2" ComponentName2="D3" format="ascii">
					 0.00000000E+00	 0.00000000E+00	 0.00000000E+00
					 0.00000000E+00	 0.00000000E+00	 0.00000000E+00
					 2.37901000E-05	-3.89087000E-03	-3.32132000E-05
					-2.03048000E-03	-4.19293000E-03	 4.80123000E-03
					 0.00000000E+00	 0.00000000E+00	 0.00000000E+00
					 0.00000000E+00	 0.00000000E+00	 0.00000000E+00
					 2.24823000E-05	-5.63906000E-03	-4.73068000E-05
					-1.41703000E-03	-5.95385000E-03	 4.84395000E-03
					 0.00000000E+00	 0.00000000E+00	 0.00000000E+00
					 2.04536000E-05	-5.50236000E-04	-1.75960000E-05
					-1.00536000E-03	-3.93303000E-03	 2.45447000E-03
					-1.39557000E-03	-9.92512000E-04	 2.46768000E-03
					 0.00000000E+00	 0.00000000E+00	 0.00000000E+00
					 0.00000000E+00	 0.00000000E+00	 0.00000000E+00
					 2.35559000E-05	-4.87187000E-03	-4.15080000E-05
					-1.71813000E-03	-5.17685000E-03	 4.69284000E-03
					 0.00000000E+00	 0.00000000E+00	 0.00000000E+00
					 1.53377000E-05	-1.58814000E-03	-1.74847000E-05
					-6.96116000E-04	-5.68083000E-03	 2.33633000E-03
					-6.94137000E-04	-2.00598000E-03	 2.40179000E-03
					 0.00000000E+00	 0.00000000E+00	 0.00000000E+00
					 2.08245000E-03	-4.12516000E-03	-4.87359000E-03
					 0.00000000E+00	 0.00000000E+00	 0.00000000E+00
					 1.46769000E-03	-5.89752000E-03	-4.94618000E-03
					 0.00000000E+00	 0.00000000E+00	 0.00000000E+00
					 1.43757000E-03	-9.74755000E-04	-2.50528000E-03
					 1.05372000E-03	-3.89566000E-03	-2.52411000E-03
					 0.00000000E+00	 0.00000000E+00	 0.00000000E+00
					 1.77264000E-03	-5.11690000E-03	-4.78033000E-03
					 0.00000000E+00	 0.00000000E+00	 0.00000000E+00
					 7.27056000E-04	-1.99386000E-03	-2.43784000E-03
					 7.42880000E-04	-5.65290000E-03	-2.43358000E-03
					 0.00000000E+00	 0.00000000E+00	 0.00000000E+00
					 0.00000000E+00	 0.00000000E+00	 0.00000000E+00
					 1.73600000E-05	-6.77753000E-03	-5.27160000E-05
					-7.95775000E-04	-7.05839000E-03	 4.77976000E-03
					 0.00000000E+00	 0.00000000E+00	 0.00000000E+00
					 0.00000000E+00	 0.00000000E+00	 0.00000000E+00
					 2.01644000E-05	-6.31319000E-03	-5.07116000E-05
					-1.10958000E-03	-6.61690000E-03	 4.94303000E-03
					 0.00000000E+00	 0.00000000E+00	 0.00000000E+00
					 9.68271000E-06	-1.97358000E-03	-1.55873000E-05
					-3.92502000E-04	-6.80497000E-03	 2.17204000E-03
					 6.14832000E-05	-2.35746000E-03	 2.46960000E-03
					 0.00000000E+00	 0.00000000E+00	 0.00000000E+00
					 8.35667000E-04	-7.00925000E-03	-4.89191000E-03
					 0.00000000E+00	 0.00000000E+00	 0.00000000E+00
					 1.15355000E-03	-6.56200000E-03	-5.05461000E-03
					 0.00000000E+00	 0.00000000E+00	 0.00000000E+00
					-4.07304000E-05	-2.34518000E-03	-2.50248000E-03
					 4.29350000E-04	-6.78239000E-03	-2.27780000E-03
					 3.40345000E-05	-1.71110000E-02	-1.25825000E-04
					-3.00819000E-03	-1.73599000E-02	 8.24379000E-03
					 4.05093000E-05	-1.99519000E-02	-1.66544000E-04
					-2.61306000E-03	-2.02142000E-02	 8.23981000E-03
					 2.47046000E-05	-9.45680000E-03	-6.57954000E-05
					-1.48425000E-03	-1.71949000E-02	 4.02674000E-03
					-2.64027000E-03	-9.76759000E-03	 6.75616000E-03
					 3.76057000E-05	-1.85700000E-02	-1.45380000E-04
					-2.81205000E-03	-1.88307000E-02	 8.20440000E-03
					 2.56780000E-05	-1.18430000E-02	-9.48311000E-05
					-1.28883000E-03	-2.00432000E-02	 3.96270000E-03
					-2.09117000E-03	-1.21650000E-02	 6.75769000E-03
					 3.07940000E-03	-1.71951000E-02	-8.50675000E-03
					 2.70489000E-03	-2.00577000E-02	-8.58383000E-03
					 2.69565000E-03	-9.64840000E-03	-6.89821000E-03
					 1.55298000E-03	-1.71122000E-02	-4.28018000E-03
					 2.89319000E-03	-1.86707000E-02	-8.50746000E-03
					 2.15366000E-03	-1.20577000E-02	-6.96062000E-03
					 1.37333000E-03	-1.99666000E-02	-4.29831000E-03
					 4.58469000E-05	-2.24303000E-02	-1.97604000E-04
					-2.24334000E-03	-2.26878000E-02	 8.17168000E-03
					 4.29629000E-05	-2.12336000E-02	-1.84915000E-04
					-2.42804000E-03	-2.14913000E-02	 8.28700000E-03
					 2.45575000E-05	-1.37017000E-02	-1.10874000E-04
					-1.09708000E-03	-2.25162000E-02	 3.83153000E-03
					-1.57344000E-03	-1.40271000E-02	 6.70758000E-03
					 2.35181000E-03	-2.25531000E-02	-8.57658000E-03
					 2.52979000E-03	-2.13404000E-02	-8.66599000E-03
					 1.63765000E-03	-1.39375000E-02	-6.94419000E-03
					 1.19339000E-03	-2.24571000E-02	-4.22948000E-03
					 6.57833000E-05	-3.59914000E-02	-3.09841000E-04
					-3.24205000E-03	-3.61130000E-02	 9.36029000E-03
					 7.55807000E-05	-3.92743000E-02	-3.67746000E-04
					-3.18302000E-03	-3.94007000E-02	 9.32392000E-03
					 5.24878000E-05	-2.62198000E-02	-2.09455000E-04
					-1.58916000E-03	-3.60454000E-02	 4.49294000E-03
					-3.17824000E-03	-2.64103000E-02	 9.06061000E-03
					 7.14980000E-05	-3.76383000E-02	-3.39031000E-04
					-3.21198000E-03	-3.77612000E-02	 9.33226000E-03
					 6.08607000E-05	-2.93487000E-02	-2.59865000E-04
					-1.55355000E-03	-3.93326000E-02	 4.43377000E-03
					-2.97022000E-03	-2.95444000E-02	 9.04865000E-03
					 3.36891000E-03	-3.59178000E-02	-9.98266000E-03
					 3.32484000E-03	-3.91987000E-02	-1.00614000E-02
					 3.28063000E-03	-2.62246000E-02	-9.48981000E-03
					 1.71961000E-03	-3.59519000E-02	-5.11348000E-03
					 3.34767000E-03	-3.75628000E-02	-1.00129000E-02
					 3.09136000E-03	-2.93569000E-02	-9.57375000E-03
					 1.70121000E-03	-3.92340000E-02	-5.16976000E-03
					 8.06346000E-05	-4.24964000E-02	-4.23118000E-04
					-3.14126000E-03	-4.26428000E-02	 9.24745000E-03
					 7.87278000E-05	-4.08920000E-02	-3.95396000E-04
					-3.16268000E-03	-4.10243000E-02	 9.31933000E-03
					 6.69470000E-05	-3.22818000E-02	-3.07352000E-04
					-1.52529000E-03	-4.25650000E-02	 4.33711000E-03
					-2.78256000E-03	-3.24900000E-02	 8.96488000E-03
					 3.29203000E-03	-4.24309000E-02	-1.00952000E-02
					 3.30893000E-03	-4.08173000E-02	-1.01107000E-02
					 2.91875000E-03	-3.23081000E-02	-9.58070000E-03
					 1.68338000E-03	-4.24596000E-02	-5.18428000E-03
					 6.10880000E-05	-5.55580000E-02	-5.12930000E-04
					-3.23522000E-03	-5.56605000E-02	 9.17164000E-03
					 7.42010000E-05	-5.88528000E-02	-5.80440000E-04
					-3.21825000E-03	-5.89551000E-02	 9.09969000E-03
					 6.71366000E-05	-4.58146000E-02	-4.12676000E-04
					-1.58788000E-03	-5.56101000E-02	 4.33244000E-03
					-3.26951000E-03	-4.59230000E-02	 9.30154000E-03
					 6.73258000E-05	-5.72042000E-02	-5.46805000E-04
					-3.22729000E-03	-5.73069000E-02	 9.14430000E-03
					 7.91700000E-05	-4.91493000E-02	-4.76735000E-04
					-1.57256000E-03	-5.89058000E-02	 4.27386000E-03
					-3.25683000E-03	-4.92606000E-02	 9.24210000E-03
					 3.35818000E-03	-5.54595000E-02	-1.01935000E-02
					 3.36316000E-03	-5.87568000E-02	-1.02574000E-02
					 3.40019000E-03	-4.57254000E-02	-1.01246000E-02
					 1.70986000E-03	-5.55105000E-02	-5.35696000E-03
					 3.36088000E-03	-5.71072000E-02	-1.02336000E-02
					 3.40725000E-03	-4.90598000E-02	-1.01961000E-02
					 1.71918000E-03	-5.88073000E-02	-5.43346000E-03
					 8.36954000E-05	-6.21391000E-02	-6.48196000E-04
					-3.21360000E-03	-6.22519000E-02	 9.03761000E-03
					 8.02643000E-05	-6.04960000E-02	-6.14260000E-04
					-3.21542000E-03	-6.05997000E-02	 9.04904000E-03
					 8.63201000E-05	-5.24776000E-02	-5.36966000E-04
					-1.56194000E-03	-6.21982000E-02	 4.22809000E-03
					-3.26220000E-03	-5.26077000E-02	 9.17725000E-03
					 3.37525000E-03	-6.20492000E-02	-1.03320000E-02
					 3.37011000E-03	-6.04014000E-02	-1.02758000E-02
					 3.42544000E-03	-5.23983000E-02	-1.02546000E-02
					 1.72761000E-03	-6.20954000E-02	-5.52317000E-03
					 5.43511000E-05	-7.52005000E-02	-7.16716000E-04
					-3.06567000E-03	-7.53455000E-02	 9.28439000E-03
					 5.88883000E-05	-7.82710000E-02	-7.87492000E-04
					-2.97581000E-03	-7.84208000E-02	 9.21142000E-03
					 5.95180000E-05	-6.52751000E-02	-6.12046000E-04
					-1.50403000E-03	-7.52597000E-02	 4.26761000E-03
					-3.16819000E-03	-6.53978000E-02	 9.17094000E-03
					 5.73897000E-05	-7.67476000E-02	-7.51965000E-04
					-3.02013000E-03	-7.68968000E-02	 9.26950000E-03
					 6.89709000E-05	-6.84739000E-02	-6.81365000E-04
					-1.45858000E-03	-7.83331000E-02	 4.21798000E-03
					-3.10913000E-03	-6.85987000E-02	 9.09349000E-03
					 3.17069000E-03	-7.51335000E-02	-1.07156000E-02
					 3.09239000E-03	-7.82050000E-02	-1.07845000E-02
					 3.28727000E-03	-6.51918000E-02	-1.03919000E-02
					 1.61189000E-03	-7.51549000E-02	-5.69946000E-03
					 3.13161000E-03	-7.66813000E-02	-1.07718000E-02
					 3.24525000E-03	-6.83939000E-02	-1.04526000E-02
					 1.57593000E-03	-7.82241000E-02	-5.79219000E-03
					 6.20160000E-05	-8.12664000E-02	-8.59614000E-04
					-2.88657000E-03	-8.14104000E-02	 9.14329000E-03
					 5.99927000E-05	-7.97797000E-02	-8.23182000E-04
					-2.93147000E-03	-7.99281000E-02	 9.15110000E-03
					 7.55220000E-05	-7.16268000E-02	-7.54186000E-04
					-1.41429000E-03	-8.13266000E-02	 4.17427000E-03
					-3.05688000E-03	-7.17534000E-02	 9.03123000E-03
					 3.01327000E-03	-8.11973000E-02	-1.08608000E-02
					 3.05286000E-03	-7.97136000E-02	-1.07961000E-02
					 3.20608000E-03	-7.15477000E-02	-1.05357000E-02
					 1.53878000E-03	-8.12181000E-02	-5.89265000E-03
					 3.77497000E-05	-9.61451000E-02	-9.57040000E-04
					-2.78415000E-03	-9.62849000E-02	 9.52741000E-03
					 3.91072000E-05	-9.89542000E-02	-1.01890000E-03
					-2.74913000E-03	-9.90898000E-02	 9.47445000E-03
					 4.30507000E-05	-8.55212000E-02	-8.34331000E-04
					-1.37434000E-03	-9.62118000E-02	 4.24761000E-03
					-2.92049000E-03	-8.56655000E-02	 9.44808000E-03
					 3.88801000E-05	-9.75546000E-02	-9.89081000E-04
					-2.76638000E-03	-9.76909000E-02	 9.51534000E-03
					 4.43988000E-05	-8.84448000E-02	-9.01233000E-04
					-1.35433000E-03	-9.90185000E-02	 4.20373000E-03
					-2.84380000E-03	-8.85908000E-02	 9.38608000E-03
					 2.85811000E-03	-9.60472000E-02	-1.14433000E-02
					 2.82996000E-03	-9.88497000E-02	-1.15142000E-02
					 3.00240000E-03	-8.54412000E-02	-1.11143000E-02
					 1.44898000E-03	-9.60920000E-02	-6.16299000E-03
					 2.84471000E-03	-9.74514000E-02	-1.14947000E-02
					 2.93304000E-03	-8.83609000E-02	-1.11874000E-02
					 1.43367000E-03	-9.88977000E-02	-6.24210000E-03
					 4.27237000E-05	-1.01726000E-01	-1.07584000E-03
					-2.70332000E-03	-1.01853000E-01	 9.40703000E-03
					 3.98457000E-05	-1.00344000E-01	-1.04755000E-03
					-2.72620000E-03	-1.00477000E-01	 9.43959000E-03
					 4.71384000E-05	-9.12973000E-02	-9.66365000E-04
					-1.33196000E-03	-1.01785000E-01	 4.14404000E-03
					-2.75911000E-03	-9.14342000E-02	 9.31589000E-03
					 2.79440000E-03	-1.01619000E-01	-1.15610000E-02
					 2.81044000E-03	-1.00240000E-01	-1.15365000E-02
					 2.85823000E-03	-9.12086000E-02	-1.12484000E-02
					 1.41962000E-03	-1.01668000E-01	-6.29662000E-03
					 3.01190000E-05	-1.17177000E-01	-1.19367000E-03
					-2.87022000E-03	-1.17272000E-01	 9.22198000E-03
					 3.79228000E-05	-1.20090000E-01	-1.24681000E-03
					-2.88711000E-03	-1.20189000E-01	 9.15795000E-03
					 3.33171000E-05	-1.06782000E-01	-1.07493000E-03
					-1.41827000E-03	-1.17227000E-01	 4.04429000E-03
					-2.75270000E-03	-1.06907000E-01	 9.41862000E-03
					 3.37070000E-05	-1.18627000E-01	-1.22029000E-03
					-2.88050000E-03	-1.18725000E-01	 9.16542000E-03
					 3.94106000E-05	-1.09586000E-01	-1.13519000E-03
					-1.42218000E-03	-1.20145000E-01	 3.95689000E-03
					-2.76442000E-03	-1.09702000E-01	 9.36436000E-03
					 2.91117000E-03	-1.17058000E-01	-1.15987000E-02
					 2.96126000E-03	-1.19956000E-01	-1.16406000E-02
					 2.81570000E-03	-1.06674000E-01	-1.15740000E-02
					 1.47315000E-03	-1.17124000E-01	-6.42427000E-03
					 2.93366000E-03	-1.18498000E-01	-1.15979000E-02
					 2.84453000E-03	-1.09465000E-01	-1.16385000E-02
					 1.49743000E-03	-1.20029000E-01	-6.44562000E-03
					 4.61695000E-05	-1.23031000E-01	-1.31240000E-03
					-2.90428000E-03	-1.23124000E-01	 9.08106000E-03
					 4.23009000E-05	-1.21558000E-01	-1.27883000E-03
					-2.89233000E-03	-1.21655000E-01	 9.14165000E-03
					 4.64628000E-05	-1.12397000E-01	-1.19145000E-03
					-1.42869000E-03	-1.23081000E-01	 3.85891000E-03
					-2.76120000E-03	-1.12504000E-01	 9.29843000E-03
					 3.01240000E-03	-1.22906000E-01	-1.16943000E-02
					 2.98772000E-03	-1.21425000E-01	-1.16899000E-02
					 2.86034000E-03	-1.12274000E-01	-1.16837000E-02
					 1.52520000E-03	-1.22978000E-01	-6.47660000E-03
					 8.83542000E-05	-1.37564000E-01	-1.42972000E-03
					-3.11289000E-03	-1.37698000E-01	 8.93369000E-03
					 4.24929000E-05	-1.40672000E-01	-1.46062000E-03
					-3.11022000E-03	-1.40840000E-01	 8.85411000E-03
					 4.64204000E-05	-1.27344000E-01	-1.31693000E-03
					-1.51012000E-03	-1.37634000E-01	 3.76367000E-03
					-3.03658000E-03	-1.27450000E-01	 9.05517000E-03
					 7.32088000E-05	-1.39128000E-01	-1.43832000E-03
					-3.10799000E-03	-1.39285000E-01	 8.89486000E-03
					 3.96891000E-05	-1.30404000E-01	-1.35460000E-03
					-1.54472000E-03	-1.40764000E-01	 3.69567000E-03
					-3.02685000E-03	-1.30529000E-01	 8.98265000E-03
					 3.22467000E-03	-1.37415000E-01	-1.17282000E-02
					 3.20020000E-03	-1.40499000E-01	-1.17134000E-02
					 3.08189000E-03	-1.27233000E-01	-1.16419000E-02
					 1.67060000E-03	-1.37485000E-01	-6.60435000E-03
					 3.21452000E-03	-1.38956000E-01	-1.17083000E-02
					 3.10779000E-03	-1.30267000E-01	-1.16471000E-02
					 1.63141000E-03	-1.40576000E-01	-6.60010000E-03
					-1.42735000E-06	-1.43785000E-01	-1.55163000E-03
					-3.13977000E-03	-1.43914000E-01	 8.71634000E-03
					 1.22883000E-05	-1.42219000E-01	-1.49931000E-03
					-3.12857000E-03	-1.42378000E-01	 8.79171000E-03
					 3.35386000E-05	-1.33481000E-01	-1.43700000E-03
					-1.58547000E-03	-1.43852000E-01	 3.57379000E-03
					-3.03664000E-03	-1.33579000E-01	 8.86998000E-03
					 3.20995000E-03	-1.43650000E-01	-1.17595000E-02
					 3.20280000E-03	-1.42059000E-01	-1.17328000E-02
					 3.15148000E-03	-1.33365000E-01	-1.17009000E-02
					 1.60202000E-03	-1.43715000E-01	-6.65800000E-03
					 0.00000000E+00	 0.00000000E+00	 0.00000000E+00
					 0.00000000E+00	 0.00000000E+00	 0.00000000E+00
					 1.68653000E-05	-1.19339000E-02	-2.02794000E-04
					-1.22356000E-03	-1.26549000E-02	 1.06206000E-02
					 0.00000000E+00	 0.00000000E+00	 0.00000000E+00
					 0.00000000E+00	 0.00000000E+00	 0.00000000E+00
					-5.98265000E-06	-1.24699000E-02	-2.04945000E-04
					 1.21205000E-04	-1.32465000E-02	 1.07502000E-02
					 0.00000000E+00	 0.00000000E+00	 0.00000000E+00
					 2.42677000E-05	-2.70953000E-03	-6.72207000E-05
					-6.05733000E-04	-1.20498000E-02	 5.04292000E-03
					-1.54999000E-03	-3.64755000E-03	 5.47287000E-03
					 0.00000000E+00	 0.00000000E+00	 0.00000000E+00
					 0.00000000E+00	 0.00000000E+00	 0.00000000E+00
					 5.46054000E-06	-1.24344000E-02	-2.10671000E-04
					-5.39235000E-04	-1.31836000E-02	 1.06983000E-02
					 0.00000000E+00	 0.00000000E+00	 0.00000000E+00
					-3.43385000E-06	-3.35680000E-03	-6.88873000E-05
					 5.68081000E-05	-1.26042000E-02	 5.11658000E-03
					 6.81692000E-05	-4.31264000E-03	 5.32790000E-03
					 0.00000000E+00	 0.00000000E+00	 0.00000000E+00
					 1.23664000E-03	-1.24131000E-02	-1.10662000E-02
					 0.00000000E+00	 0.00000000E+00	 0.00000000E+00
					-1.36114000E-04	-1.29898000E-02	-1.12072000E-02
					 0.00000000E+00	 0.00000000E+00	 0.00000000E+00
					 1.58548000E-03	-3.57943000E-03	-5.62370000E-03
					 6.31892000E-04	-1.19301000E-02	-5.45927000E-03
					 0.00000000E+00	 0.00000000E+00	 0.00000000E+00
					 5.42259000E-04	-1.29293000E-02	-1.11642000E-02
					 0.00000000E+00	 0.00000000E+00	 0.00000000E+00
					-7.72979000E-05	-4.24404000E-03	-5.47736000E-03
					-7.06063000E-05	-1.24763000E-02	-5.54195000E-03
					 0.00000000E+00	 0.00000000E+00	 0.00000000E+00
					 0.00000000E+00	 0.00000000E+00	 0.00000000E+00
					-2.39432000E-05	-1.16748000E-02	-1.71731000E-04
					 1.47367000E-03	-1.24034000E-02	 1.06539000E-02
					 0.00000000E+00	 0.00000000E+00	 0.00000000E+00
					 0.00000000E+00	 0.00000000E+00	 0.00000000E+00
					-1.61661000E-05	-1.23049000E-02	-1.90856000E-04
					 7.84210000E-04	-1.30512000E-02	 1.06998000E-02
					 0.00000000E+00	 0.00000000E+00	 0.00000000E+00
					-2.71327000E-05	-2.56117000E-03	-5.72040000E-05
					 7.28689000E-04	-1.17953000E-02	 5.09401000E-03
					 1.68367000E-03	-3.51160000E-03	 5.48423000E-03
					 0.00000000E+00	 0.00000000E+00	 0.00000000E+00
					-1.51185000E-03	-1.21399000E-02	-1.10387000E-02
					 0.00000000E+00	 0.00000000E+00	 0.00000000E+00
					-8.17478000E-04	-1.27933000E-02	-1.11264000E-02
					 0.00000000E+00	 0.00000000E+00	 0.00000000E+00
					-1.73276000E-03	-3.43078000E-03	-5.61462000E-03
					-7.71768000E-04	-1.16643000E-02	-5.45001000E-03
					 6.39293000E-05	-4.34289000E-02	-8.43758000E-04
					-9.84210000E-04	-4.42470000E-02	 1.78857000E-02
					 4.43482000E-05	-4.39934000E-02	-8.09835000E-04
					-3.49408000E-05	-4.48108000E-02	 1.79546000E-02
					 2.87768000E-05	-2.58362000E-02	-4.58439000E-04
					-4.62900000E-04	-4.37344000E-02	 8.47545000E-03
					-1.03404000E-03	-2.66964000E-02	 1.46940000E-02
					 5.25490000E-05	-4.38189000E-02	-8.32168000E-04
					-5.11790000E-04	-4.46301000E-02	 1.78974000E-02
					 2.76206000E-06	-2.63256000E-02	-4.46226000E-04
					 1.25754000E-05	-4.42995000E-02	 8.51027000E-03
					 1.04719000E-04	-2.71729000E-02	 1.47601000E-02
					 1.09843000E-03	-4.35718000E-02	-1.96230000E-02
					 1.15883000E-04	-4.41222000E-02	-1.96202000E-02
					 1.07184000E-03	-2.62517000E-02	-1.56687000E-02
					 5.86435000E-04	-4.34003000E-02	-1.01750000E-02
					 6.07230000E-04	-4.39517000E-02	-1.96076000E-02
					-1.00049000E-04	-2.67124000E-02	-1.57116000E-02
					 7.96507000E-05	-4.39598000E-02	-1.01382000E-02
					 3.14593000E-05	-4.35832000E-02	-7.33120000E-04
					 9.67869000E-04	-4.43701000E-02	 1.79976000E-02
					 3.57135000E-05	-4.38901000E-02	-7.75942000E-04
					 4.68493000E-04	-4.47313000E-02	 1.80282000E-02
					-1.58602000E-05	-2.56368000E-02	-3.90267000E-04
					 4.90612000E-04	-4.38642000E-02	 8.51512000E-03
					 1.27956000E-03	-2.64724000E-02	 1.47627000E-02
					-8.73076000E-04	-4.36950000E-02	-1.95077000E-02
					-3.82303000E-04	-4.40155000E-02	-1.96263000E-02
					-1.28477000E-03	-2.60216000E-02	-1.56005000E-02
					-4.17655000E-04	-4.35384000E-02	-9.98858000E-03
					 2.74175000E-04	-8.70914000E-02	-1.97698000E-03
					-1.34975000E-03	-8.79410000E-02	 2.22444000E-02
					 2.58835000E-04	-8.83432000E-02	-1.88452000E-03
					-6.84445000E-04	-8.93160000E-02	 2.23767000E-02
					 1.47991000E-04	-6.39264000E-02	-1.34883000E-03
					-5.30004000E-04	-8.74243000E-02	 1.01186000E-02
					-1.11602000E-03	-6.47897000E-02	 2.03713000E-02
					 2.67132000E-04	-8.78090000E-02	-1.93129000E-03
					-1.01992000E-03	-8.87305000E-02	 2.22360000E-02
					 1.27456000E-04	-6.47689000E-02	-1.28808000E-03
					-2.34090000E-04	-8.87388000E-02	 1.01483000E-02
					-3.05871000E-04	-6.56480000E-02	 2.04727000E-02
					 1.84017000E-03	-8.68630000E-02	-2.62162000E-02
					 1.17801000E-03	-8.81084000E-02	-2.61984000E-02
					 1.38466000E-03	-6.38978000E-02	-2.31126000E-02
					 1.06046000E-03	-8.68918000E-02	-1.40704000E-02
					 1.50667000E-03	-8.75722000E-02	-2.61445000E-02
					 5.47903000E-04	-6.47102000E-02	-2.30861000E-02
					 7.21689000E-04	-8.81453000E-02	-1.39447000E-02
					 2.44469000E-04	-8.89541000E-02	-1.75809000E-03
					-9.72075000E-05	-9.00464000E-02	 2.24556000E-02
					 2.51162000E-04	-8.87479000E-02	-1.82858000E-03
					-3.94639000E-04	-8.96593000E-02	 2.25322000E-02
					 1.23248000E-04	-6.47811000E-02	-1.18988000E-03
					 1.03852000E-04	-8.94119000E-02	 1.01283000E-02
					 5.05053000E-04	-6.56858000E-02	 2.05391000E-02
					 5.20299000E-04	-8.87153000E-02	-2.60501000E-02
					 8.47121000E-04	-8.84914000E-02	-2.62444000E-02
					-3.07227000E-04	-6.46971000E-02	-2.29528000E-02
					 3.80256000E-04	-8.87664000E-02	-1.36941000E-02
					 7.08596000E-04	-1.39170000E-01	-3.48677000E-03
					-1.76501000E-03	-1.39849000E-01	 2.34348000E-02