# vtk DataFile Version 3.0

ASCII
DATASET UNSTRUCTURED_GRID

POINTS 522 double
	 1.00000000E+00	 1.00000000E+00	-5.96046000E-08
	 1.00000000E+00	 5.00000000E-01	-5.96046000E-08
	 1.00000000E+00	 5.00000000E-01	 1.00000000E+00
	 1.00000000E+00	 1.00000000E+00	 1.00000000E+00
	 5.00000000E-01	 1.00000000E+00	-5.96046000E-08
	 5.00000000E-01	 5.00000000E-01	-5.96046000E-08
	 5.00000000E-01	 5.00000000E-01	 1.00000000E+00
	 5.00000000E-01	 1.00000000E+00	 1.00000000E+00
	 1.00000000E+00	 7.50000000E-01	-5.96046000E-08
	 1.00000000E+00	 5.00000000E-01	 5.00000000E-01
	 1.00000000E+00	 7.50000000E-01	 1.00000000E+00
	 1.00000000E+00	 1.00000000E+00	 5.00000000E-01
	 7.50000000E-01	 1.00000000E+00	-5.96046000E-08
	 7.50000000E-01	 5.00000000E-01	-5.96046000E-08
	 7.50000000E-01	 5.00000000E-01	 1.00000000E+00
	 7.50000000E-01	 1.00000000E+00	 1.00000000E+00
	 5.00000000E-01	 7.50000000E-01	-5.96046000E-08
	 5.00000000E-01	 5.00000000E-01	 5.00000000E-01
	 5.00000000E-01	 7.50000000E-01	 1.00000000E+00
	 5.00000000E-01	 1.00000000E+00	 5.00000000E-01
	 1.00000000E+00	-1.49012000E-08	-5.96046000E-08
	 1.00000000E+00	-1.49012000E-08	 1.00000000E+00
	 5.00000000E-01	-1.49012000E-08	-5.96046000E-08
	 5.00000000E-01	-1.49012000E-08	 1.00000000E+00
	 1.00000000E+00	 2.50000000E-01	-5.96046000E-08
	 1.00000000E+00	-1.49012000E-08	 5.00000000E-01
	 1.00000000E+00	 2.50000000E-01	 1.00000000E+00
	 7.50000000E-01	-1.49012000E-08	-5.96046000E-08
	 7.50000000E-01	-1.49012000E-08	 1.00000000E+00
	 5.00000000E-01	 2.50000000E-01	-5.96046000E-08
	 5.00000000E-01	-1.49012000E-08	 5.00000000E-01
	 5.00000000E-01	 2.50000000E-01	 1.00000000E+00
	-7.45058000E-09	 1.00000000E+00	-5.96046000E-08
	-7.45058000E-09	 5.00000000E-01	-5.96046000E-08
	-7.45058000E-09	 5.00000000E-01	 1.00000000E+00
	-7.45058000E-09	 1.00000000E+00	 1.00000000E+00
	 2.50000000E-01	 1.00000000E+00	-5.96046000E-08
	 2.50000000E-01	 5.00000000E-01	-5.96046000E-08
	 2.50000000E-01	 5.00000000E-01	 1.00000000E+00
	 2.50000000E-01	 1.00000000E+00	 1.00000000E+00
	-7.45058000E-09	 7.50000000E-01	-5.96046000E-08
	-7.45058000E-09	 5.00000000E-01	 5.00000000E-01
	-7.45058000E-09	 7.50000000E-01	 1.00000000E+00
	-7.45058000E-09	 1.00000000E+00	 5.00000000E-01
	-7.45058000E-09	-1.49012000E-08	-5.96046000E-08
	-7.45058000E-09	-1.49012000E-08	 1.00000000E+00
	 2.50000000E-01	-1.49012000E-08	-5.96046000E-08
	 2.50000000E-01	-1.49012000E-08	 1.00000000E+00
	-7.45058000E-09	 2.50000000E-01	-5.96046000E-08
	-7.45058000E-09	-1.49012000E-08	 5.00000000E-01
	-7.45058000E-09	 2.50000000E-01	 1.00000000E+00
	 1.00000000E+00	 5.00000000E-01	 2.00000000E+00
	 1.00000000E+00	 1.00000000E+00	 2.00000000E+00
	 5.00000000E-01	 5.00000000E-01	 2.00000000E+00
	 5.00000000E-01	 1.00000000E+00	 2.00000000E+00
	 1.00000000E+00	 5.00000000E-01	 1.50000000E+00
	 1.00000000E+00	 7.50000000E-01	 2.00000000E+00
	 1.00000000E+00	 1.00000000E+00	 1.50000000E+00
	 7.50000000E-01	 5.00000000E-01	 2.00000000E+00
	 7.50000000E-01	 1.00000000E+00	 2.00000000E+00
	 5.00000000E-01	 5.00000000E-01	 1.50000000E+00
	 5.00000000E-01	 7.50000000E-01	 2.00000000E+00
	 5.00000000E-01	 1.00000000E+00	 1.50000000E+00
	 1.00000000E+00	-1.49012000E-08	 2.00000000E+00
	 5.00000000E-01	-1.49012000E-08	 2.00000000E+00
	 1.00000000E+00	-1.49012000E-08	 1.50000000E+00
	 1.00000000E+00	 2.50000000E-01	 2.00000000E+00
	 7.50000000E-01	-1.49012000E-08	 2.00000000E+00
	 5.00000000E-01	-1.49012000E-08	 1.50000000E+00
	 5.00000000E-01	 2.50000000E-01	 2.00000000E+00
	-7.45058000E-09	 5.00000000E-01	 2.00000000E+00
	-7.45058000E-09	 1.00000000E+00	 2.00000000E+00
	 2.50000000E-01	 5.00000000E-01	 2.00000000E+00
	 2.50000000E-01	 1.00000000E+00	 2.00000000E+00
	-7.45058000E-09	 5.00000000E-01	 1.50000000E+00
	-7.45058000E-09	 7.50000000E-01	 2.00000000E+00
	-7.45058000E-09	 1.00000000E+00	 1.50000000E+00
	-7.45058000E-09	-1.49012000E-08	 2.00000000E+00
	 2.50000000E-01	-1.49012000E-08	 2.00000000E+00
	-7.45058000E-09	-1.49012000E-08	 1.50000000E+00
	-7.45058000E-09	 2.50000000E-01	 2.00000000E+00
	 1.00000000E+00	 5.00000000E-01	 3.00000000E+00
	 1.00000000E+00	 1.00000000E+00	 3.00000000E+00
	 5.00000000E-01	 5.00000000E-01	 3.00000000E+00
	 5.00000000E-01	 1.00000000E+00	 3.00000000E+00
	 1.00000000E+00	 5.00000000E-01	 2.50000000E+00
	 1.00000000E+00	 7.50000000E-01	 3.00000000E+00
	 1.00000000E+00	 1.00000000E+00	 2.50000000E+00
	 7.50000000E-01	 5.00000000E-01	 3.00000000E+00
	 7.50000000E-01	 1.00000000E+00	 3.00000000E+00
	 5.00000000E-01	 5.00000000E-01	 2.50000000E+00
	 5.00000000E-01	 7.50000000E-01	 3.00000000E+00
	 5.00000000E-01	 1.00000000E+00	 2.50000000E+00
	 1.00000000E+00	-1.49012000E-08	 3.00000000E+00
	 5.00000000E-01	-1.49012000E-08	 3.00000000E+00
	 1.00000000E+00	-1.49012000E-08	 2.50000000E+00
	 1.00000000E+00	 2.50000000E-01	 3.00000000E+00
	 7.50000000E-01	-1.49012000E-08	 3.00000000E+00
	 5.00000000E-01	-1.49012000E-08	 2.50000000E+00
	 5.00000000E-01	 2.50000000E-01	 3.00000000E+00
	-7.45058000E-09	 5.00000000E-01	 3.00000000E+00
	-7.45058000E-09	 1.00000000E+00	 3.00000000E+00
	 2.50000000E-01	 5.00000000E-01	 3.00000000E+00
	 2.50000000E-01	 1.00000000E+00	 3.00000000E+00
	-7.45058000E-09	 5.00000000E-01	 2.50000000E+00
	-7.45058000E-09	 7.50000000E-01	 3.00000000E+00
	-7.45058000E-09	 1.00000000E+00	 2.50000000E+00
	-7.45058000E-09	-1.49012000E-08	 3.00000000E+00
	 2.50000000E-01	-1.49012000E-08	 3.00000000E+00
	-7.45058000E-09	-1.49012000E-08	 2.50000000E+00
	-7.45058000E-09	 2.50000000E-01	 3.00000000E+00
	 1.00000000E+00	 5.00000000E-01	 4.00000000E+00
	 1.00000000E+00	 1.00000000E+00	 4.00000000E+00
	 5.00000000E-01	 5.00000000E-01	 4.00000000E+00
	 5.00000000E-01	 1.00000000E+00	 4.00000000E+00
	 1.00000000E+00	 5.00000000E-01	 3.50000000E+00
	 1.00000000E+00	 7.50000000E-01	 4.00000000E+00
	 1.00000000E+00	 1.00000000E+00	 3.50000000E+00
	 7.50000000E-01	 5.00000000E-01	 4.00000000E+00
	 7.50000000E-01	 1.00000000E+00	 4.00000000E+00
	 5.00000000E-01	 5.00000000E-01	 3.50000000E+00
	 5.00000000E-01	 7.50000000E-01	 4.00000000E+00
	 5.00000000E-01	 1.00000000E+00	 3.50000000E+00
	 1.00000000E+00	-1.49012000E-08	 4.00000000E+00
	 5.00000000E-01	-1.49012000E-08	 4.00000000E+00
	 1.00000000E+00	-1.49012000E-08	 3.50000000E+00
	 1.00000000E+00	 2.50000000E-01	 4.00000000E+00
	 7.50000000E-01	-1.49012000E-08	 4.00000000E+00
	 5.00000000E-01	-1.49012000E-08	 3.50000000E+00
	 5.00000000E-01	 2.50000000E-01	 4.00000000E+00
	-7.45058000E-09	 5.00000000E-01	 4.00000000E+00
	-7.45058000E-09	 1.00000000E+00	 4.00000000E+00
	 2.50000000E-01	 5.00000000E-01	 4.00000000E+00
	 2.50000000E-01	 1.00000000E+00	 4.00000000E+00
	-7.45058000E-09	 5.00000000E-01	 3.50000000E+00
	-7.45058000E-09	 7.50000000E-01	 4.00000000E+00
	-7.45058000E-09	 1.00000000E+00	 3.50000000E+00
	-7.45058000E-09	-1.49012000E-08	 4.00000000E+00
	 2.50000000E-01	-1.49012000E-08	 4.00000000E+00
	-7.45058000E-09	-1.49012000E-08	 3.50000000E+00
	-7.45058000E-09	 2.50000000E-01	 4.00000000E+00
	 1.00000000E+00	 5.00000000E-01	 5.00000000E+00
	 1.00000000E+00	 1.00000000E+00	 5.00000000E+00
	 5.00000000E-01	 5.00000000E-01	 5.00000000E+00
	 5.00000000E-01	 1.00000000E+00	 5.00000000E+00
	 1.00000000E+00	 5.00000000E-01	 4.50000000E+00
	 1.00000000E+00	 7.50000000E-01	 5.00000000E+00
	 1.00000000E+00	 1.00000000E+00	 4.50000000E+00
	 7.50000000E-01	 5.00000000E-01	 5.00000000E+00
	 7.50000000E-01	 1.00000000E+00	 5.00000000E+00
	 5.00000000E-01	 5.00000000E-01	 4.50000000E+00
	 5.00000000E-01	 7.50000000E-01	 5.00000000E+00
	 5.00000000E-01	 1.00000000E+00	 4.50000000E+00
	 1.00000000E+00	-1.49012000E-08	 5.00000000E+00
	 5.00000000E-01	-1.49012000E-08	 5.00000000E+00
	 1.00000000E+00	-1.49012000E-08	 4.50000000E+00
	 1.00000000E+00	 2.50000000E-01	 5.00000000E+00
	 7.50000000E-01	-1.49012000E-08	 5.00000000E+00
	 5.00000000E-01	-1.49012000E-08	 4.50000000E+00
	 5.00000000E-01	 2.50000000E-01	 5.00000000E+00
	-7.45058000E-09	 5.00000000E-01	 5.00000000E+00
	-7.45058000E-09	 1.00000000E+00	 5.00000000E+00
	 2.50000000E-01	 5.00000000E-01	 5.00000000E+00
	 2.50000000E-01	 1.00000000E+00	 5.00000000E+00
	-7.45058000E-09	 5.00000000E-01	 4.50000000E+00
	-7.45058000E-09	 7.50000000E-01	 5.00000000E+00
	-7.45058000E-09	 1.00000000E+00	 4.50000000E+00
	-7.45058000E-09	-1.49012000E-08	 5.00000000E+00
	 2.50000000E-01	-1.49012000E-08	 5.00000000E+00
	-7.45058000E-09	-1.49012000E-08	 4.50000000E+00
	-7.45058000E-09	 2.50000000E-01	 5.00000000E+00
	 1.00000000E+00	 5.00000000E-01	 6.00000000E+00
	 1.00000000E+00	 1.00000000E+00	 6.00000000E+00
	 5.00000000E-01	 5.00000000E-01	 6.00000000E+00
	 5.00000000E-01	 1.00000000E+00	 6.00000000E+00
	 1.00000000E+00	 5.00000000E-01	 5.50000000E+00
	 1.00000000E+00	 7.50000000E-01	 6.00000000E+00
	 1.00000000E+00	 1.00000000E+00	 5.50000000E+00
	 7.50000000E-01	 5.00000000E-01	 6.00000000E+00
	 7.50000000E-01	 1.00000000E+00	 6.00000000E+00
	 5.00000000E-01	 5.00000000E-01	 5.50000000E+00
	 5.00000000E-01	 7.50000000E-01	 6.00000000E+00
	 5.00000000E-01	 1.00000000E+00	 5.50000000E+00
	 1.00000000E+00	-1.49012000E-08	 6.00000000E+00
	 5.00000000E-01	-1.49012000E-08	 6.00000000E+00
	 1.00000000E+00	-1.49012000E-08	 5.50000000E+00
	 1.00000000E+00	 2.50000000E-01	 6.00000000E+00
	 7.50000000E-01	-1.49012000E-08	 6.00000000E+00
	 5.00000000E-01	-1.49012000E-08	 5.50000000E+00
	 5.00000000E-01	 2.50000000E-01	 6.00000000E+00
	-7.45058000E-09	 5.00000000E-01	 6.00000000E+00
	-7.45058000E-09	 1.00000000E+00	 6.00000000E+00
	 2.50000000E-01	 5.00000000E-01	 6.00000000E+00
	 2.50000000E-01	 1.00000000E+00	 6.00000000E+00
	-7.45058000E-09	 5.00000000E-01	 5.50000000E+00
	-7.45058000E-09	 7.50000000E-01	 6.00000000E+00
	-7.45058000E-09	 1.00000000E+00	 5.50000000E+00
	-7.45058000E-09	-1.49012000E-08	 6.00000000E+00
	 2.50000000E-01	-1.49012000E-08	 6.00000000E+00
	-7.45058000E-09	-1.49012000E-08	 5.50000000E+00
	-7.45058000E-09	 2.50000000E-01	 6.00000000E+00
	 1.00000000E+00	 5.00000000E-01	 7.00000000E+00
[...]
POINT_DATA 522
FIELD U 1
	U 3 522 double
		 0.00000000E+00	 0.00000000E+00	 0.00000000E+00
		 0.00000000E+00	 0.00000000E+00	 0.00000000E+00
		-2.02494000E-05	 5.35178000E-03	-2.26899000E-05
		-6.89379000E-04	 5.59527000E-03	-4.30479000E-03
		 0.00000000E+00	 0.00000000E+00	 0.00000000E+00
		 0.00000000E+00	 0.00000000E+00	 0.00000000E+00
		-2.23356000E-05	 4.36039000E-03	-2.58646000E-05
		-1.30813000E-03	 4.63198000E-03	-4.35220000E-03
		 0.00000000E+00	 0.00000000E+00	 0.00000000E+00
		-5.60042000E-06	 1.37232000E-03	-3.87747000E-06
		-3.57188000E-04	 5.36834000E-03	-2.01754000E-03
		 2.00265000E-05	 1.70241000E-03	-2.09333000E-03
		 0.00000000E+00	 0.00000000E+00	 0.00000000E+00
		 0.00000000E+00	 0.00000000E+00	 0.00000000E+00
		-2.13706000E-05	 4.95461000E-03	-2.59454000E-05
		-1.00145000E-03	 5.21529000E-03	-4.44204000E-03
		 0.00000000E+00	 0.00000000E+00	 0.00000000E+00
		-8.61712000E-06	 1.01944000E-03	-8.26547000E-06
		-6.63881000E-04	 4.38626000E-03	-2.15282000E-03
		-6.52003000E-04	 1.37762000E-03	-2.03094000E-03
		 0.00000000E+00	 0.00000000E+00	 0.00000000E+00
		 6.43530000E-04	 5.63524000E-03	 4.25327000E-03
		 0.00000000E+00	 0.00000000E+00	 0.00000000E+00
		 1.26154000E-03	 4.67664000E-03	 4.29302000E-03
		 0.00000000E+00	 0.00000000E+00	 0.00000000E+00
		-3.41869000E-05	 1.71466000E-03	 2.08514000E-03
		 3.14563000E-04	 5.38701000E-03	 1.97122000E-03
		 0.00000000E+00	 0.00000000E+00	 0.00000000E+00
		 9.55622000E-04	 5.25991000E-03	 4.38206000E-03
		 0.00000000E+00	 0.00000000E+00	 0.00000000E+00
		 6.34039000E-04	 1.38992000E-03	 2.01398000E-03
		 6.18565000E-04	 4.40939000E-03	 2.09875000E-03
		 0.00000000E+00	 0.00000000E+00	 0.00000000E+00
		 0.00000000E+00	 0.00000000E+00	 0.00000000E+00
		-2.24214000E-05	 2.78195000E-03	-2.35995000E-05
		-1.91274000E-03	 3.03363000E-03	-4.30615000E-03
		 0.00000000E+00	 0.00000000E+00	 0.00000000E+00
		 0.00000000E+00	 0.00000000E+00	 0.00000000E+00
		-2.26330000E-05	 3.67205000E-03	-2.45771000E-05
		-1.60683000E-03	 3.93181000E-03	-4.21128000E-03
		 0.00000000E+00	 0.00000000E+00	 0.00000000E+00
		-1.15694000E-05	 8.61974000E-05	-1.03891000E-05
		-9.69222000E-04	 2.80207000E-03	-2.24781000E-03
		-1.27545000E-03	 4.64231000E-04	-2.10077000E-03
		 0.00000000E+00	 0.00000000E+00	 0.00000000E+00
		 1.87021000E-03	 3.08067000E-03	 4.25197000E-03
		 0.00000000E+00	 0.00000000E+00	 0.00000000E+00
		 1.56114000E-03	 3.97701000E-03	 4.15616000E-03
		 0.00000000E+00	 0.00000000E+00	 0.00000000E+00
		 1.25453000E-03	 4.76880000E-04	 2.07777000E-03
		 9.25231000E-04	 2.82787000E-03	 2.19766000E-03
		-6.36338000E-05	 1.96990000E-02	-1.46520000E-04
		-2.08032000E-03	 1.98147000E-02	-7.91395000E-03
		-6.20233000E-05	 1.75100000E-02	-1.27474000E-04
		-2.42861000E-03	 1.76181000E-02	-7.93141000E-03
		-3.96941000E-05	 1.15966000E-02	-6.92506000E-05
		-1.06998000E-03	 1.97211000E-02	-3.86746000E-03
		-1.40367000E-03	 1.18193000E-02	-6.31954000E-03
		-6.33970000E-05	 1.86455000E-02	-1.38482000E-04
		-2.25503000E-03	 1.87533000E-02	-8.00797000E-03
		-4.07351000E-05	 9.98024000E-03	-6.40237000E-05
		-1.24603000E-03	 1.75270000E-02	-3.94641000E-03
		-1.91581000E-03	 1.01931000E-02	-6.34738000E-03
		 1.94801000E-03	 1.99380000E-02	 7.61211000E-03
		 2.30075000E-03	 1.77510000E-02	 7.66792000E-03
		 1.31862000E-03	 1.18994000E-02	 6.17075000E-03
		 9.41419000E-04	 1.97774000E-02	 3.57281000E-03
		 2.12393000E-03	 1.88845000E-02	 7.72192000E-03
		 1.83159000E-03	 1.02807000E-02	 6.20913000E-03
		 1.12119000E-03	 1.75909000E-02	 3.68959000E-03
		-5.62115000E-05	 1.49698000E-02	-1.02291000E-04
		-2.78823000E-03	 1.50617000E-02	-7.86903000E-03
		-5.97298000E-05	 1.62783000E-02	-1.15106000E-04
		-2.61039000E-03	 1.63835000E-02	-7.86664000E-03
		-3.88370000E-05	 7.84911000E-03	-5.20024000E-05
		-1.41857000E-03	 1.49765000E-02	-3.94054000E-03
		-2.44748000E-03	 8.04318000E-03	-6.30178000E-03
		 2.67298000E-03	 1.52017000E-02	 7.65690000E-03
		 2.48753000E-03	 1.65187000E-02	 7.62872000E-03
		 2.37004000E-03	 8.13542000E-03	 6.18852000E-03
		 1.30582000E-03	 1.50453000E-02	 3.73416000E-03
		-9.09838000E-05	 3.84966000E-02	-3.55825000E-04
		-3.14347000E-03	 3.84500000E-02	-9.31876000E-03
		-8.48303000E-05	 3.54400000E-02	-2.99988000E-04
		-3.17335000E-03	 3.53762000E-02	-9.28105000E-03
		-8.28775000E-05	 2.89189000E-02	-2.47072000E-04
		-1.61265000E-03	 3.84717000E-02	-4.75363000E-03
		-2.67865000E-03	 2.89513000E-02	-8.85063000E-03
		-8.83428000E-05	 3.69739000E-02	-3.27722000E-04
		-3.15912000E-03	 3.69136000E-02	-9.35070000E-03
		-7.89268000E-05	 2.62469000E-02	-2.09346000E-04
		-1.62904000E-03	 3.54065000E-02	-4.75619000E-03
		-2.84585000E-03	 2.62639000E-02	-8.84840000E-03
		 2.95824000E-03	 3.86196000E-02	 8.60578000E-03
		 3.00067000E-03	 3.55528000E-02	 8.67988000E-03
		 2.50810000E-03	 2.91030000E-02	 8.35101000E-03
		 1.42986000E-03	 3.85533000E-02	 4.04116000E-03
		 2.97940000E-03	 3.70887000E-02	 8.69431000E-03
		 2.68410000E-03	 2.64253000E-02	 8.42448000E-03
		 1.45862000E-03	 3.54933000E-02	 4.15563000E-03
		-7.53114000E-05	 3.23236000E-02	-2.43032000E-04
		-3.21116000E-03	 3.22595000E-02	-9.20605000E-03
		-8.05142000E-05	 3.38868000E-02	-2.71836000E-04
		-3.19266000E-03	 3.38212000E-02	-9.21066000E-03
		-7.10697000E-05	 2.33895000E-02	-1.68329000E-04
		-1.64571000E-03	 3.22882000E-02	-4.72507000E-03
		-3.01789000E-03	 2.34052000E-02	-8.77172000E-03
		 3.05729000E-03	 3.24420000E-02	 8.71834000E-03
		 3.02851000E-03	 3.39997000E-02	 8.66554000E-03
		 2.87212000E-03	 2.35734000E-02	 8.42971000E-03
		 1.49423000E-03	 3.23792000E-02	 4.23841000E-03
		-7.46794000E-05	 5.69668000E-02	-5.49794000E-04
		-3.45073000E-03	 5.69015000E-02	-9.64391000E-03
		-6.48849000E-05	 5.35813000E-02	-4.75293000E-04
		-3.47207000E-03	 5.35079000E-02	-9.56361000E-03
		-8.65739000E-05	 4.78557000E-02	-4.57203000E-04
		-1.76071000E-03	 5.69305000E-02	-5.11435000E-03
		-3.39047000E-03	 4.77994000E-02	-9.49533000E-03
		-6.99342000E-05	 5.52790000E-02	-5.12547000E-04
		-3.46164000E-03	 5.52073000E-02	-9.60094000E-03
		-7.82169000E-05	 4.45604000E-02	-3.89058000E-04
		-1.76908000E-03	 5.35407000E-02	-5.03568000E-03
		-3.38758000E-03	 4.44874000E-02	-9.42725000E-03
		 3.30012000E-03	 5.70852000E-02	 8.54433000E-03
		 3.34096000E-03	 5.36937000E-02	 8.61302000E-03
		 3.21519000E-03	 4.79774000E-02	 8.58062000E-03
		 1.61096000E-03	 5.70229000E-02	 4.01460000E-03
		 3.32052000E-03	 5.53919000E-02	 8.57606000E-03
		 3.22902000E-03	 4.46692000E-02	 8.64885000E-03
		 1.63894000E-03	 5.36341000E-02	 4.08507000E-03
		-5.37896000E-05	 5.01554000E-02	-3.99549000E-04
		-3.50316000E-03	 5.00764000E-02	-9.49374000E-03
		-5.94710000E-05	 5.18718000E-02	-4.37715000E-04
		-3.48847000E-03	 5.17977000E-02	-9.52024000E-03
		-6.77079000E-05	 4.12405000E-02	-3.20208000E-04
		-1.77738000E-03	 5.01113000E-02	-4.97013000E-03
		-3.39966000E-03	 4.11632000E-02	-9.35849000E-03
		 3.39421000E-03	 5.02653000E-02	 8.69455000E-03
		 3.36811000E-03	 5.19846000E-02	 8.64457000E-03
		 3.26197000E-03	 4.13492000E-02	 8.71742000E-03
		 1.66946000E-03	 5.02065000E-02	 4.17112000E-03
		-4.47316000E-05	 7.54053000E-02	-7.28554000E-04
		-3.31776000E-03	 7.53369000E-02	-1.02698000E-02
		-3.38698000E-05	 7.20905000E-02	-6.50679000E-04
		-3.38637000E-03	 7.20259000E-02	-1.01939000E-02
		-6.00251000E-05	 6.60574000E-02	-6.38271000E-04
		-1.68288000E-03	 7.53599000E-02	-5.50325000E-03
		-3.39143000E-03	 6.59920000E-02	-9.92774000E-03
		-3.94500000E-05	 7.37577000E-02	-6.89722000E-04
		-3.35204000E-03	 7.36933000E-02	-1.02243000E-02
		-4.96280000E-05	 6.26932000E-02	-5.61400000E-04
		-1.70964000E-03	 7.20471000E-02	-5.41824000E-03
		-3.44873000E-03	 6.26260000E-02	-9.84677000E-03
		 3.22766000E-03	 7.55398000E-02	 8.81210000E-03
		 3.31783000E-03	 7.22305000E-02	 8.89164000E-03
		 3.27050000E-03	 6.61843000E-02	 8.65090000E-03
		 1.59330000E-03	 7.54616000E-02	 4.04603000E-03
		 3.27245000E-03	 7.38967000E-02	 8.84405000E-03
		 3.34843000E-03	 6.28203000E-02	 8.72357000E-03
		 1.64174000E-03	 7.21493000E-02	 4.11669000E-03
		-2.20587000E-05	 6.87030000E-02	-5.70784000E-04
		-3.44939000E-03	 6.86375000E-02	-1.01125000E-02
		-2.80701000E-05	 7.04072000E-02	-6.11180000E-04
		-3.41776000E-03	 7.03419000E-02	-1.01641000E-02
		-3.80378000E-05	 5.92620000E-02	-4.82627000E-04
		-1.73525000E-03	 6.86599000E-02	-5.32752000E-03
		-3.51028000E-03	 5.91888000E-02	-9.77221000E-03
		 3.40432000E-03	 6.88439000E-02	 8.96980000E-03
		 3.36073000E-03	 7.05477000E-02	 8.94067000E-03
		 3.43307000E-03	 5.93857000E-02	 8.80659000E-03
		 1.69092000E-03	 6.87625000E-02	 4.18576000E-03
		-1.82685000E-05	 9.51544000E-02	-9.19991000E-04
		-3.44356000E-03	 9.50583000E-02	-1.08584000E-02
		-5.08653000E-06	 9.17053000E-02	-8.39833000E-04
		-3.47544000E-03	 9.16139000E-02	-1.07823000E-02
		-3.01165000E-05	 8.51201000E-02	-8.22531000E-04
		-1.73213000E-03	 9.51019000E-02	-5.85169000E-03
		-3.32013000E-03	 8.50335000E-02	-1.05892000E-02
		-1.16643000E-05	 9.34340000E-02	-8.79996000E-04
		-3.45925000E-03	 9.33415000E-02	-1.08494000E-02
		-1.84020000E-05	 8.17928000E-02	-7.43921000E-04
		-1.73977000E-03	 9.16550000E-02	-5.80209000E-03
		-3.37610000E-03	 8.17147000E-02	-1.05151000E-02
		 3.40739000E-03	 9.52820000E-02	 9.01815000E-03
		 3.46534000E-03	 9.18373000E-02	 9.10212000E-03
		 3.25987000E-03	 8.52470000E-02	 8.94389000E-03
		 1.69568000E-03	 9.52122000E-02	 4.01172000E-03
		 3.43612000E-03	 9.35661000E-02	 9.08896000E-03
		 3.33899000E-03	 8.19290000E-02	 9.02653000E-03
		 1.72958000E-03	 9.17663000E-02	 4.12231000E-03
		 7.89580000E-06	 8.82163000E-02	-7.58698000E-04
		-3.49864000E-03	 8.81295000E-02	-1.06974000E-02
		 1.48554000E-06	 8.99665000E-02	-7.99432000E-04
		-3.48655000E-03	 8.98759000E-02	-1.07158000E-02
		-6.32147000E-06	 7.84071000E-02	-6.63682000E-04
		-1.74680000E-03	 8.81680000E-02	-5.74369000E-03
		-3.41557000E-03	 7.83362000E-02	-1.04311000E-02
		 3.51437000E-03	 8.83525000E-02	 9.17932000E-03
		 3.48951000E-03	 9.00981000E-02	 9.11640000E-03
		 3.40242000E-03	 7.85509000E-02	 9.10253000E-03
		 1.76252000E-03	 8.82801000E-02	 4.22606000E-03
		-4.15063000E-06	 1.15790000E-01	-1.12514000E-03
		-3.92081000E-03	 1.15678000E-01	-1.12096000E-02
		 1.18915000E-05	 1.11877000E-01	-1.03705000E-03
		-3.90507000E-03	 1.11761000E-01	-1.11229000E-02
		-1.01263000E-05	 1.05423000E-01	-1.02106000E-03
		-1.96186000E-03	 1.15735000E-01	-6.12396000E-03
		-3.66557000E-03	 1.05317000E-01	-1.10606000E-02
		 3.83749000E-06	 1.13834000E-01	-1.08127000E-03
		-3.91324000E-03	 1.13718000E-01	-1.12039000E-02
		 4.41191000E-06	 1.01757000E-01	-9.37733000E-04
		-1.94726000E-03	 1.11819000E-01	-6.07326000E-03
		-3.67458000E-03	 1.01653000E-01	-1.09812000E-02
		 3.91248000E-03	 1.15914000E-01	 8.95863000E-03
		 3.92873000E-03	 1.11997000E-01	 9.04833000E-03
		 3.64554000E-03	 1.05548000E-01	 9.01816000E-03
		 1.95353000E-03	 1.15851000E-01	 3.87350000E-03
		 3.92091000E-03	 1.13956000E-01	 9.04084000E-03
		 3.68346000E-03	 1.01883000E-01	 9.10542000E-03
		 1.97103000E-03	 1.11937000E-01	 3.99903000E-03
		 2.81895000E-05	 1.07960000E-01	-9.49138000E-04
		-3.89480000E-03	 1.07841000E-01	-1.10304000E-02
		 2.00122000E-05	 1.09919000E-01	-9.92842000E-04
		-3.90024000E-03	 1.09803000E-01	-1.10420000E-02
		 1.89490000E-05	 9.80688000E-02	-8.54135000E-04
		-1.93306000E-03	 1.07900000E-01	-6.01725000E-03
		-3.67930000E-03	 9.79673000E-02	-1.08931000E-02
		 3.95090000E-03	 1.08078000E-01	 9.13193000E-03
		 3.94002000E-03	 1.10038000E-01	 9.05604000E-03
		 3.71715000E-03	 9.81977000E-02	 9.18454000E-03
		 1.98939000E-03	 1.08019000E-01	 4.11883000E-03
		 1.33133000E-05	 1.36247000E-01	-1.33277000E-03
		-4.17506000E-03	 1.36138000E-01	-1.14067000E-02
		 3.12506000E-05	 1.32065000E-01	-1.23785000E-03
		-4.14385000E-03	 1.31946000E-01	-1.13056000E-02
		 3.37098000E-06	 1.26093000E-01	-1.22983000E-03
		-2.07844000E-03	 1.36194000E-01	-6.36660000E-03
		-4.11173000E-03	 1.25982000E-01	-1.13134000E-02
		 2.21847000E-05	 1.34157000E-01	-1.28526000E-03
		-4.16004000E-03	 1.34041000E-01	-1.13609000E-02
		 2.07144000E-05	 1.21987000E-01	-1.13699000E-03
		-2.05569000E-03	 1.32006000E-01	-6.27274000E-03
		-4.08481000E-03	 1.21869000E-01	-1.12174000E-02
		 4.20209000E-03	 1.36376000E-01	 8.73954000E-03
		 4.20626000E-03	 1.32182000E-01	 8.82869000E-03
		 4.11861000E-03	 1.26220000E-01	 8.85237000E-03
		 2.10517000E-03	 1.36312000E-01	 3.70043000E-03
		 4.20470000E-03	 1.34277000E-01	 8.78909000E-03
		 4.12607000E-03	 1.22106000E-01	 8.94228000E-03
		 2.11816000E-03	 1.32124000E-01	 3.79671000E-03
		 4.93366000E-05	 1.27888000E-01	-1.14277000E-03
		-4.13127000E-03	 1.27758000E-01	-1.12053000E-02
		 4.03357000E-05	 1.29974000E-01	-1.19037000E-03
		-4.13756000E-03	 1.29851000E-01	-1.12496000E-02
		 3.81514000E-05	 1.17885000E-01	-1.04426000E-03
		-2.03978000E-03	 1.27824000E-01	-6.17990000E-03
		-4.06927000E-03	 1.17760000E-01	-1.11199000E-02
		 4.22927000E-03	 1.27995000E-01	 8.91879000E-03
		 4.21773000E-03	 1.30087000E-01	 8.86763000E-03
		 4.14494000E-03	 1.17998000E-01	 9.03052000E-03
		 2.13835000E-03	 1.27942000E-01	 3.89426000E-03
		 0.00000000E+00	 0.00000000E+00	 0.00000000E+00
		 0.00000000E+00	 0.00000000E+00	 0.00000000E+00
		 2.33064000E-05	-9.65134000E-03	-1.70500000E-04
		-1.45187000E-03	-1.03786000E-02	 9.78542000E-03
		 0.00000000E+00	 0.00000000E+00	 0.00000000E+00
		 0.00000000E+00	 0.00000000E+00	 0.00000000E+00
		 2.36639000E-06	-1.03980000E-02	-1.91524000E-04
		-6.34618000E-05	-1.11751000E-02	 9.85882000E-03
		 0.00000000E+00	 0.00000000E+00	 0.00000000E+00
		 2.74443000E-05	-1.87038000E-03	-6.14176000E-05
		-7.15022000E-04	-9.77564000E-03	 4.75523000E-03
		-1.48905000E-03	-2.73943000E-03	 4.84461000E-03
		 0.00000000E+00	 0.00000000E+00	 0.00000000E+00
		 0.00000000E+00	 0.00000000E+00	 0.00000000E+00
		 1.37687000E-05	-1.02547000E-02	-1.83897000E-04
		-7.47334000E-04	-1.10081000E-02	 9.79913000E-03
		 0.00000000E+00	 0.00000000E+00	 0.00000000E+00
		 1.64501000E-06	-2.55283000E-03	-6.72659000E-05
		-3.15152000E-05	-1.05388000E-02	 4.75678000E-03
		-5.58636000E-06	-3.42681000E-03	 4.68855000E-03
		 0.00000000E+00	 0.00000000E+00	 0.00000000E+00
		 1.47891000E-03	-1.01758000E-02	-1.01591000E-02
		 0.00000000E+00	 0.00000000E+00	 0.00000000E+00
		 6.94566000E-05	-1.09673000E-02	-1.02796000E-02
		 0.00000000E+00	 0.00000000E+00	 0.00000000E+00
		 1.53069000E-03	-2.69259000E-03	-4.97870000E-03
		 7.54313000E-04	-9.67233000E-03	-5.10592000E-03
		 0.00000000E+00	 0.00000000E+00	 0.00000000E+00
		 7.67837000E-04	-1.07982000E-02	-1.02021000E-02
		 0.00000000E+00	 0.00000000E+00	 0.00000000E+00
		 9.35124000E-06	-3.38182000E-03	-4.83039000E-03
		 3.52209000E-05	-1.04317000E-02	-5.15226000E-03
		 0.00000000E+00	 0.00000000E+00	 0.00000000E+00
		 0.00000000E+00	 0.00000000E+00	 0.00000000E+00
		-2.06746000E-05	-9.78299000E-03	-1.82229000E-04
		 1.32832000E-03	-1.05053000E-02	 9.77424000E-03
		 0.00000000E+00	 0.00000000E+00	 0.00000000E+00
		 0.00000000E+00	 0.00000000E+00	 0.00000000E+00
		-9.37357000E-06	-1.03203000E-02	-1.91868000E-04
		 6.22776000E-04	-1.10663000E-02	 9.81629000E-03
		 0.00000000E+00	 0.00000000E+00	 0.00000000E+00
		-2.52697000E-05	-1.88457000E-03	-6.35974000E-05
		 6.54218000E-04	-9.90500000E-03	 4.71819000E-03
		 1.47972000E-03	-2.75012000E-03	 4.84231000E-03
		 0.00000000E+00	 0.00000000E+00	 0.00000000E+00
		-1.35166000E-03	-1.03024000E-02	-1.01721000E-02
		 0.00000000E+00	 0.00000000E+00	 0.00000000E+00
		-6.34951000E-04	-1.08629000E-02	-1.02357000E-02
		 0.00000000E+00	 0.00000000E+00	 0.00000000E+00
		-1.51913000E-03	-2.70276000E-03	-4.98146000E-03
		-6.88347000E-04	-9.80197000E-03	-5.09279000E-03
		-1.20023000E-06	-3.96137000E-02	-7.12571000E-04
		-1.52045000E-03	-4.04591000E-02	 1.77648000E-02
		-1.47266000E-05	-4.06129000E-02	-7.78339000E-04
		-5.06565000E-04	-4.14534000E-02	 1.77522000E-02
		 2.05385000E-05	-2.24156000E-02	-3.78126000E-04
		-7.61546000E-04	-3.99179000E-02	 8.42961000E-03
		-1.47452000E-03	-2.32721000E-02	 1.41857000E-02
		-7.32541000E-06	-4.02305000E-02	-7.51357000E-04
		-1.01223000E-03	-4.10709000E-02	 1.77434000E-02
		-1.85354000E-06	-2.32711000E-02	-4.17989000E-04
		-2.54792000E-04	-4.09144000E-02	 8.37743000E-03
		-2.23025000E-04	-2.41212000E-02	 1.41969000E-02
		 1.51762000E-03	-3.97710000E-02	-1.92381000E-02
		 4.77449000E-04	-4.07795000E-02	-1.93576000E-02
		 1.50267000E-03	-2.28483000E-02	-1.49924000E-02
		 7.57412000E-04	-3.95804000E-02	-9.86684000E-03
		 1.00011000E-03	-4.03938000E-02	-1.92911000E-02
		 2.21808000E-04	-2.36998000E-02	-1.50844000E-02
		 2.29894000E-04	-4.05847000E-02	-9.94261000E-03
		-3.98187000E-05	-4.05953000E-02	-8.01516000E-04
		 5.35780000E-04	-4.13932000E-02	 1.76746000E-02
		-2.67950000E-05	-4.07165000E-02	-7.95084000E-04
		 1.69915000E-05	-4.15758000E-02	 1.77892000E-02
		-2.92327000E-05	-2.28614000E-02	-4.18153000E-04
		 2.36309000E-04	-4.08687000E-02	 8.25107000E-03
		 1.04753000E-03	-2.36843000E-02	 1.41459000E-02
		-5.78587000E-04	-4.07527000E-02	-1.93262000E-02
		-5.18403000E-05	-4.08844000E-02	-1.94321000E-02
		-1.07845000E-03	-2.32840000E-02	-1.50311000E-02
		-3.04782000E-04	-4.05609000E-02	-9.86036000E-03
		-7.52246000E-05	-8.31111000E-02	-1.71421000E-03
		-1.94084000E-03	-8.39009000E-02	 2.18482000E-02
		-7.96295000E-05	-8.46865000E-02	-1.84269000E-03
		-1.39597000E-03	-8.55628000E-02	 2.17569000E-02
		-2.90492000E-05	-6.01951000E-02	-1.16487000E-03
		-1.00838000E-03	-8.34374000E-02	 1.00416000E-02
		-1.65238000E-03	-6.10450000E-02	 2.02416000E-02
		-7.46227000E-05	-8.39707000E-02	-1.77704000E-03
		-1.66897000E-03	-8.48108000E-02	 2.17430000E-02
		-3.98950000E-05	-6.14370000E-02	-1.26088000E-03
		-7.62683000E-04	-8.50588000E-02	 9.86188000E-03
		-8.99496000E-04	-6.22819000E-02	 2.02052000E-02
		 1.76203000E-03	-8.28344000E-02	-2.52884000E-02
		 1.24560000E-03	-8.44206000E-02	-2.54891000E-02
		 1.59014000E-03	-6.01365000E-02	-2.26120000E-02
		 8.47602000E-04	-8.29099000E-02	-1.34675000E-02
		 1.50333000E-03	-8.36898000E-02	-2.53362000E-02
		 8.29373000E-04	-6.13694000E-02	-2.27682000E-02
		 5.82706000E-04	-8.44981000E-02	-1.35743000E-02
		-1.01851000E-04	-8.57298000E-02	-1.94630000E-03
		-9.51934000E-04	-8.67111000E-02	 2.16108000E-02
		-8.87393000E-05	-8.52882000E-02	-1.90119000E-03
		-1.17500000E-03	-8.60906000E-02	 2.17853000E-02
		-5.39510000E-05	-6.19130000E-02	-1.32130000E-03
		-4.95143000E-04	-8.61543000E-02	 9.62993000E-03
		-1.75626000E-04	-6.27721000E-02	 2.00878000E-02
		 7.16461000E-04	-8.55041000E-02	-2.55790000E-02
		 9.82726000E-04	-8.50177000E-02	-2.56386000E-02
		 4.10693000E-05	-6.18524000E-02	-2.27751000E-02
		 2.95434000E-04	-8.55726000E-02	-1.35726000E-02
		-1.93043000E-04	-1.32757000E-01	-2.97485000E-03
		-2.99822000E-03	-1.33472000E-01	 2.30530000E-02
		-1.97763000E-04	-1.35485000E-01	-3.19407000E-03
		-2.86079000E-03	-1.36638000E-01	 2.28495000E-02
		-1.58439000E-04	-1.07443000E-01	-2.32067000E-03
		-1.59869000E-03	-1.33085000E-01	 1.01021000E-02
		-2.41300000E-03	-1.08296000E-01	 2.26621000E-02
		-1.92148000E-04	-1.34119000E-01	-3.08512000E-03
		-2.91799000E-03	-1.34993000E-01	 2.28739000E-02
		-1.67245000E-04	-1.09563000E-01	-2.53510000E-03
		-1.40791000E-03	-1.36015000E-01	 9.80879000E-03
		-2.11679000E-03	-1.10339000E-01	 2.25560000E-02
		 2.46017000E-03	-1.32223000E-01	-2.90163000E-02
		 2.18738000E-03	-1.34808000E-01	-2.92430000E-02
		 2.08267000E-03	-1.07028000E-01	-2.73214000E-02
		 1.13155000E-03	-1.32461000E-01	-1.60526000E-02
		 2.32892000E-03	-1.33545000E-01	-2.90564000E-02
		 1.72548000E-03	-1.09109000E-01	-2.75402000E-02
		 9.80131000E-04	-1.35094000E-01	-1.62008000E-02
		-3.56096000E-04	-1.37974000E-01	-3.40259000E-03
		-2.59467000E-03	-1.39466000E-01	 2.26373000E-02
		-2.73230000E-04	-1.36723000E-01	-3.30184000E-03
		-2.72464000E-03	-1.38574000E-01	 2.28244000E-02
		-2.14765000E-04	-1.11316000E-01	-2.75740000E-03
		-1.59761000E-03	-1.38653000E-01	 9.50977000E-03
		-1.65165000E-03	-1.11959000E-01	 2.23732000E-02
		 1.90731000E-03	-1.37155000E-01	-2.94367000E-02