# vtk DataFile Version 3.0

ASCII
DATASET UNSTRUCTURED_GRID

POINTS 522 double
	 1.00000000E+00	 1.00000000E+00	-5.96046000E-08
	 1.00000000E+00	 5.00000000E-01	-5.96046000E-08
	 1.00000000E+00	 5.00000000E-01	 1.00000000E+00
	 1.00000000E+00	 1.00000000E+00	 1.00000000E+00
	 5.00000000E-01	 1.00000000E+00	-5.96046000E-08
	 5.00000000E-01	 5.00000000E-01	-5.96046000E-08
	 5.00000000E-01	 5.00000000E-01	 1.00000000E+00
	 5.00000000E-01	 1.00000000E+00	 1.00000000E+00
	 1.00000000E+00	 7.50000000E-01	-5.96046000E-08
	 1.00000000E+00	 5.00000000E-01	 5.00000000E-01
	 1.00000000E+00	 7.50000000E-01	 1.00000000E+00
	 1.00000000E+00	 1.00000000E+00	 5.00000000E-01
	 7.50000000E-01	 1.00000000E+00	-5.96046000E-08
	 7.50000000E-01	 5.00000000E-01	-5.96046000E-08
	 7.50000000E-01	 5.00000000E-01	 1.00000000E+00
	 7.50000000E-01	 1.00000000E+00	 1.00000000E+00
	 5.00000000E-01	 7.50000000E-01	-5.96046000E-08
	 5.00000000E-01	 5.00000000E-01	 5.00000000E-01
	 5.00000000E-01	 7.50000000E-01	 1.00000000E+00
	 5.00000000E-01	 1.00000000E+00	 5.00000000E-01
	 1.00000000E+00	-1.49012000E-08	-5.96046000E-08
	 1.00000000E+00	-1.49012000E-08	 1.00000000E+00
	 5.00000000E-01	-1.49012000E-08	-5.96046000E-08
	 5.00000000E-01	-1.49012000E-08	 1.00000000E+00
	 1.00000000E+00	 2.50000000E-01	-5.96046000E-08
	 1.00000000E+00	-1.49012000E-08	 5.00000000E-01
	 1.00000000E+00	 2.50000000E-01	 1.00000000E+00
	 7.50000000E-01	-1.49012000E-08	-5.96046000E-08
	 7.50000000E-01	-1.49012000E-08	 1.00000000E+00
	 5.00000000E-01	 2.50000000E-01	-5.96046000E-08
	 5.00000000E-01	-1.49012000E-08	 5.00000000E-01
	 5.00000000E-01	 2.50000000E-01	 1.00000000E+00
	-7.45058000E-09	 1.00000000E+00	-5.96046000E-08
	-7.45058000E-09	 5.00000000E-01	-5.96046000E-08
	-7.45058000E-09	 5.00000000E-01	 1.00000000E+00
	-7.45058000E-09	 1.00000000E+00	 1.00000000E+00
	 2.50000000E-01	 1.00000000E+00	-5.96046000E-08
	 2.50000000E-01	 5.00000000E-01	-5.96046000E-08
	 2.50000000E-01	 5.00000000E-01	 1.00000000E+00
	 2.50000000E-01	 1.00000000E+00	 1.00000000E+00
	-7.45058000E-09	 7.50000000E-01	-5.96046000E-08
	-7.45058000E-09	 5.00000000E-01	 5.00000000E-01
	-7.45058000E-09	 7.50000000E-01	 1.00000000E+00
	-7.45058000E-09	 1.00000000E+00	 5.00000000E-01
	-7.45058000E-09	-1.49012000E-08	-5.96046000E-08
	-7.45058000E-09	-1.49012000E-08	 1.00000000E+00
	 2.50000000E-01	-1.49012000E-08	-5.96046000E-08
	 2.50000000E-01	-1.49012000E-08	 1.00000000E+00
	-7.45058000E-09	 2.50000000E-01	-5.96046000E-08
	-7.45058000E-09	-1.49012000E-08	 5.00000000E-01
	-7.45058000E-09	 2.50000000E-01	 1.00000000E+00
	 1.00000000E+00	 5.00000000E-01	 2.00000000E+00
	 1.00000000E+00	 1.00000000E+00	 2.00000000E+00
	 5.00000000E-01	 5.00000000E-01	 2.00000000E+00
	 5.00000000E-01	 1.00000000E+00	 2.00000000E+00
	 1.00000000E+00	 5.00000000E-01	 1.50000000E+00
	 1.00000000E+00	 7.50000000E-01	 2.00000000E+00
	 1.00000000E+00	 1.00000000E+00	 1.50000000E+00
	 7.50000000E-01	 5.00000000E-01	 2.00000000E+00
	 7.50000000E-01	 1.00000000E+00	 2.00000000E+00
	 5.00000000E-01	 5.00000000E-01	 1.50000000E+00
	 5.00000000E-01	 7.50000000E-01	 2.00000000E+00
	 5.00000000E-01	 1.00000000E+00	 1.50000000E+00
	 1.00000000E+00	-1.49012000E-08	 2.00000000E+00
	 5.00000000E-01	-1.49012000E-08	 2.00000000E+00
	 1.00000000E+00	-1.49012000E-08	 1.50000000E+00
	 1.00000000E+00	 2.50000000E-01	 2.00000000E+00
	 7.50000000E-01	-1.49012000E-08	 2.00000000E+00
	 5.00000000E-01	-1.49012000E-08	 1.50000000E+00
	 5.00000000E-01	 2.50000000E-01	 2.00000000E+00
	-7.45058000E-09	 5.00000000E-01	 2.00000000E+00
	-7.45058000E-09	 1.00000000E+00	 2.00000000E+00
	 2.50000000E-01	 5.00000000E-01	 2.00000000E+00
	 2.50000000E-01	 1.00000000E+00	 2.00000000E+00
	-7.45058000E-09	 5.00000000E-01	 1.50000000E+00
	-7.45058000E-09	 7.50000000E-01	 2.00000000E+00
	-7.45058000E-09	 1.00000000E+00	 1.50000000E+00
	-7.45058000E-09	-1.49012000E-08	 2.00000000E+00
	 2.50000000E-01	-1.49012000E-08	 2.00000000E+00
	-7.45058000E-09	-1.49012000E-08	 1.50000000E+00
	-7.45058000E-09	 2.50000000E-01	 2.00000000E+00
	 1.00000000E+00	 5.00000000E-01	 3.00000000E+00
	 1.00000000E+00	 1.00000000E+00	 3.00000000E+00
	 5.00000000E-01	 5.00000000E-01	 3.00000000E+00
	 5.00000000E-01	 1.00000000E+00	 3.00000000E+00
	 1.00000000E+00	 5.00000000E-01	 2.50000000E+00
	 1.00000000E+00	 7.50000000E-01	 3.00000000E+00
	 1.00000000E+00	 1.00000000E+00	 2.50000000E+00
	 7.50000000E-01	 5.00000000E-01	 3.00000000E+00
	 7.50000000E-01	 1.00000000E+00	 3.00000000E+00
	 5.00000000E-01	 5.00000000E-01	 2.50000000E+00
	 5.00000000E-01	 7.50000000E-01	 3.00000000E+00
	 5.00000000E-01	 1.00000000E+00	 2.50000000E+00
	 1.00000000E+00	-1.49012000E-08	 3.00000000E+00
	 5.00000000E-01	-1.49012000E-08	 3.00000000E+00
	 1.00000000E+00	-1.49012000E-08	 2.50000000E+00
	 1.00000000E+00	 2.50000000E-01	 3.00000000E+00
	 7.50000000E-01	-1.49012000E-08	 3.00000000E+00
	 5.00000000E-01	-1.49012000E-08	 2.50000000E+00
	 5.00000000E-01	 2.50000000E-01	 3.00000000E+00
	-7.45058000E-09	 5.00000000E-01	 3.00000000E+00
	-7.45058000E-09	 1.00000000E+00	 3.00000000E+00
	 2.50000000E-01	 5.00000000E-01	 3.00000000E+00
	 2.50000000E-01	 1.00000000E+00	 3.00000000E+00
	-7.45058000E-09	 5.00000000E-01	 2.50000000E+00
	-7.45058000E-09	 7.50000000E-01	 3.00000000E+00
	-7.45058000E-09	 1.00000000E+00	 2.50000000E+00
	-7.45058000E-09	-1.49012000E-08	 3.00000000E+00
	 2.50000000E-01	-1.49012000E-08	 3.00000000E+00
	-7.45058000E-09	-1.49012000E-08	 2.50000000E+00
	-7.45058000E-09	 2.50000000E-01	 3.00000000E+00
	 1.00000000E+00	 5.00000000E-01	 4.00000000E+00
	 1.00000000E+00	 1.00000000E+00	 4.00000000E+00
	 5.00000000E-01	 5.00000000E-01	 4.00000000E+00
	 5.00000000E-01	 1.00000000E+00	 4.00000000E+00
	 1.00000000E+00	 5.00000000E-01	 3.50000000E+00
	 1.00000000E+00	 7.50000000E-01	 4.00000000E+00
	 1.00000000E+00	 1.00000000E+00	 3.50000000E+00
	 7.50000000E-01	 5.00000000E-01	 4.00000000E+00
	 7.50000000E-01	 1.00000000E+00	 4.00000000E+00
	 5.00000000E-01	 5.00000000E-01	 3.50000000E+00
	 5.00000000E-01	 7.50000000E-01	 4.00000000E+00
	 5.00000000E-01	 1.00000000E+00	 3.50000000E+00
	 1.00000000E+00	-1.49012000E-08	 4.00000000E+00
	 5.00000000E-01	-1.49012000E-08	 4.00000000E+00
	 1.00000000E+00	-1.49012000E-08	 3.50000000E+00
	 1.00000000E+00	 2.50000000E-01	 4.00000000E+00
	 7.50000000E-01	-1.49012000E-08	 4.00000000E+00
	 5.00000000E-01	-1.49012000E-08	 3.50000000E+00
	 5.00000000E-01	 2.50000000E-01	 4.00000000E+00
	-7.45058000E-09	 5.00000000E-01	 4.00000000E+00
	-7.45058000E-09	 1.00000000E+00	 4.00000000E+00
	 2.50000000E-01	 5.00000000E-01	 4.00000000E+00
	 2.50000000E-01	 1.00000000E+00	 4.00000000E+00
	-7.45058000E-09	 5.00000000E-01	 3.50000000E+00
	-7.45058000E-09	 7.50000000E-01	 4.00000000E+00
	-7.45058000E-09	 1.00000000E+00	 3.50000000E+00
	-7.45058000E-09	-1.49012000E-08	 4.00000000E+00
	 2.50000000E-01	-1.49012000E-08	 4.00000000E+00
	-7.45058000E-09	-1.49012000E-08	 3.50000000E+00
	-7.45058000E-09	 2.50000000E-01	 4.00000000E+00
	 1.00000000E+00	 5.00000000E-01	 5.00000000E+00
	 1.00000000E+00	 1.00000000E+00	 5.00000000E+00
	 5.00000000E-01	 5.00000000E-01	 5.00000000E+00
	 5.00000000E-01	 1.00000000E+00	 5.00000000E+00
	 1.00000000E+00	 5.00000000E-01	 4.50000000E+00
	 1.00000000E+00	 7.50000000E-01	 5.00000000E+00
	 1.00000000E+00	 1.00000000E+00	 4.50000000E+00
	 7.50000000E-01	 5.00000000E-01	 5.00000000E+00
	 7.50000000E-01	 1.00000000E+00	 5.00000000E+00
	 5.00000000E-01	 5.00000000E-01	 4.50000000E+00
	 5.00000000E-01	 7.50000000E-01	 5.00000000E+00
	 5.00000000E-01	 1.00000000E+00	 4.50000000E+00
	 1.00000000E+00	-1.49012000E-08	 5.00000000E+00
	 5.00000000E-01	-1.49012000E-08	 5.00000000E+00
	 1.00000000E+00	-1.49012000E-08	 4.50000000E+00
	 1.00000000E+00	 2.50000000E-01	 5.00000000E+00
	 7.50000000E-01	-1.49012000E-08	 5.00000000E+00
	 5.00000000E-01	-1.49012000E-08	 4.50000000E+00
	 5.00000000E-01	 2.50000000E-01	 5.00000000E+00
	-7.45058000E-09	 5.00000000E-01	 5.00000000E+00
	-7.45058000E-09	 1.00000000E+00	 5.00000000E+00
	 2.50000000E-01	 5.00000000E-01	 5.00000000E+00
	 2.50000000E-01	 1.00000000E+00	 5.00000000E+00
	-7.45058000E-09	 5.00000000E-01	 4.50000000E+00
	-7.45058000E-09	 7.50000000E-01	 5.00000000E+00
	-7.45058000E-09	 1.00000000E+00	 4.50000000E+00
	-7.45058000E-09	-1.49012000E-08	 5.00000000E+00
	 2.50000000E-01	-1.49012000E-08	 5.00000000E+00
	-7.45058000E-09	-1.49012000E-08	 4.50000000E+00
	-7.45058000E-09	 2.50000000E-01	 5.00000000E+00
	 1.00000000E+00	 5.00000000E-01	 6.00000000E+00
	 1.00000000E+00	 1.00000000E+00	 6.00000000E+00
	 5.00000000E-01	 5.00000000E-01	 6.00000000E+00
	 5.00000000E-01	 1.00000000E+00	 6.00000000E+00
	 1.00000000E+00	 5.00000000E-01	 5.50000000E+00
	 1.00000000E+00	 7.50000000E-01	 6.00000000E+00
	 1.00000000E+00	 1.00000000E+00	 5.50000000E+00
	 7.50000000E-01	 5.00000000E-01	 6.00000000E+00
	 7.50000000E-01	 1.00000000E+00	 6.00000000E+00
	 5.00000000E-01	 5.00000000E-01	 5.50000000E+00
	 5.00000000E-01	 7.50000000E-01	 6.00000000E+00
	 5.00000000E-01	 1.00000000E+00	 5.50000000E+00
	 1.00000000E+00	-1.49012000E-08	 6.00000000E+00
	 5.00000000E-01	-1.49012000E-08	 6.00000000E+00
	 1.00000000E+00	-1.49012000E-08	 5.50000000E+00
	 1.00000000E+00	 2.50000000E-01	 6.00000000E+00
	 7.50000000E-01	-1.49012000E-08	 6.00000000E+00
	 5.00000000E-01	-1.49012000E-08	 5.50000000E+00
	 5.00000000E-01	 2.50000000E-01	 6.00000000E+00
	-7.45058000E-09	 5.00000000E-01	 6.00000000E+00
	-7.45058000E-09	 1.00000000E+00	 6.00000000E+00
	 2.50000000E-01	 5.00000000E-01	 6.00000000E+00
	 2.50000000E-01	 1.00000000E+00	 6.00000000E+00
	-7.45058000E-09	 5.00000000E-01	 5.50000000E+00
	-7.45058000E-09	 7.50000000E-01	 6.00000000E+00
	-7.45058000E-09	 1.00000000E+00	 5.50000000E+00
	-7.45058000E-09	-1.49012000E-08	 6.00000000E+00
	 2.50000000E-01	-1.49012000E-08	 6.00000000E+00
	-7.45058000E-09	-1.49012000E-08	 5.50000000E+00
	-7.45058000E-09	 2.50000000E-01	 6.00000000E+00
	 1.00000000E+00	 5.00000000E-01	 7.00000000E+00
[...]
POINT_DATA 522
FIELD U 1
	U 3 522 double
		 0.00000000E+00	 0.00000000E+00	 0.00000000E+00
		 0.00000000E+00	 0.00000000E+00	 0.00000000E+00
		-1.87080000E-05	 1.19591000E-03	 5.68689000E-05
		 1.54385000E-04	 1.18737000E-03	-6.46178000E-04
		 0.00000000E+00	 0.00000000E+00	 0.00000000E+00
		 0.00000000E+00	 0.00000000E+00	 0.00000000E+00
		-1.17418000E-05	 1.35601000E-03	 5.23894000E-05
		 1.30117000E-04	 1.35271000E-03	-6.65591000E-04
		 0.00000000E+00	 0.00000000E+00	 0.00000000E+00
		-1.23781000E-05	 3.93786000E-04	 2.79095000E-05
		 6.78674000E-05	 1.18264000E-03	-2.65318000E-04
		 1.99515000E-04	 4.42083000E-04	-4.26584000E-04
		 0.00000000E+00	 0.00000000E+00	 0.00000000E+00
		 0.00000000E+00	 0.00000000E+00	 0.00000000E+00
		-1.50778000E-05	 1.28367000E-03	 5.40916000E-05
		 1.41980000E-04	 1.27863000E-03	-6.58001000E-04
		 0.00000000E+00	 0.00000000E+00	 0.00000000E+00
		-4.32149000E-06	 5.41842000E-04	 2.31257000E-05
		 5.98205000E-05	 1.34562000E-03	-2.76634000E-04
		 1.01317000E-04	 5.92552000E-04	-4.29829000E-04
		 0.00000000E+00	 0.00000000E+00	 0.00000000E+00
		-1.91819000E-04	 1.20505000E-03	 7.58946000E-04
		 0.00000000E+00	 0.00000000E+00	 0.00000000E+00
		-1.53041000E-04	 1.37181000E-03	 7.69983000E-04
		 0.00000000E+00	 0.00000000E+00	 0.00000000E+00
		-2.23653000E-04	 4.61509000E-04	 4.85579000E-04
		-1.05150000E-04	 1.19178000E-03	 3.78552000E-04
		 0.00000000E+00	 0.00000000E+00	 0.00000000E+00
		-1.72024000E-04	 1.29718000E-03	 7.65228000E-04
		 0.00000000E+00	 0.00000000E+00	 0.00000000E+00
		-1.08573000E-04	 6.10508000E-04	 4.79277000E-04
		-8.31376000E-05	 1.35540000E-03	 3.80909000E-04
		 0.00000000E+00	 0.00000000E+00	 0.00000000E+00
		 0.00000000E+00	 0.00000000E+00	 0.00000000E+00
		-4.05837000E-06	 1.47910000E-03	 4.68071000E-05
		 1.20161000E-04	 1.48447000E-03	-6.55625000E-04
		 0.00000000E+00	 0.00000000E+00	 0.00000000E+00
		 0.00000000E+00	 0.00000000E+00	 0.00000000E+00
		-8.11256000E-06	 1.42668000E-03	 5.00076000E-05
		 1.26124000E-04	 1.42446000E-03	-6.69433000E-04
		 0.00000000E+00	 0.00000000E+00	 0.00000000E+00
		 3.24184000E-06	 6.03628000E-04	 2.07301000E-05
		 5.52024000E-05	 1.47369000E-03	-2.67295000E-04
		 1.60534000E-06	 6.53171000E-04	-4.33729000E-04
		 0.00000000E+00	 0.00000000E+00	 0.00000000E+00
		-1.27311000E-04	 1.50182000E-03	 7.49524000E-04
		 0.00000000E+00	 0.00000000E+00	 0.00000000E+00
		-1.41311000E-04	 1.44303000E-03	 7.69595000E-04
		 0.00000000E+00	 0.00000000E+00	 0.00000000E+00
		 7.05040000E-06	 6.67962000E-04	 4.78252000E-04
		-6.33038000E-05	 1.48228000E-03	 3.60498000E-04
		-2.51254000E-05	 3.09883000E-03	 1.04136000E-04
		-2.39387000E-04	 3.12944000E-03	-8.74741000E-04
		-1.77871000E-05	 2.83065000E-03	 1.04107000E-04
		-3.34441000E-04	 2.86860000E-03	-8.60372000E-04
		-2.35393000E-05	 2.06007000E-03	 8.10586000E-05
		-1.33049000E-04	 3.10407000E-03	-3.60264000E-04
		 4.24440000E-05	 2.07578000E-03	-7.14437000E-04
		-2.13925000E-05	 2.97370000E-03	 1.04056000E-04
		-2.86317000E-04	 3.01016000E-03	-9.23513000E-04
		-1.67580000E-05	 2.09975000E-03	 7.83589000E-05
		-1.75007000E-04	 2.84027000E-03	-4.11621000E-04
		 3.14374000E-07	 2.12375000E-03	-7.09552000E-04
		 1.87181000E-04	 3.14602000E-03	 1.08213000E-03
		 2.97433000E-04	 2.88785000E-03	 1.06770000E-03
		-9.15446000E-05	 2.09232000E-03	 8.75766000E-04
		 8.23031000E-05	 3.11225000E-03	 5.68186000E-04
		 2.41755000E-04	 3.02853000E-03	 1.13076000E-03
		-3.46318000E-05	 2.14282000E-03	 8.65830000E-04
		 1.39029000E-04	 2.85028000E-03	 6.19581000E-04
		-1.00930000E-05	 2.46789000E-03	 1.05269000E-04
		-4.10906000E-04	 2.51495000E-03	-8.73341000E-04
		-1.41193000E-05	 2.66088000E-03	 1.04621000E-04
		-3.72291000E-04	 2.69926000E-03	-7.89185000E-04
		-9.46609000E-06	 2.09562000E-03	 7.59112000E-05
		-2.13762000E-04	 2.48218000E-03	-4.92277000E-04
		-1.04006000E-05	 2.14087000E-03	-7.19241000E-04
		 3.89953000E-04	 2.53568000E-03	 1.08263000E-03
		 3.42926000E-04	 2.71904000E-03	 9.97535000E-04
		-8.37792000E-06	 2.16082000E-03	 8.70940000E-04
		 1.93511000E-04	 2.49325000E-03	 7.02311000E-04
		-2.80191000E-05	 6.78335000E-03	 1.44354000E-04
		-1.19884000E-03	 6.85961000E-03	-1.89848000E-03
		-1.86784000E-05	 5.51012000E-03	 1.50322000E-04
		-1.38388000E-03	 5.59240000E-03	-1.89278000E-03
		-2.61087000E-05	 4.58115000E-03	 1.26475000E-04
		-6.15438000E-04	 6.79526000E-03	-7.90491000E-04
		-6.68686000E-04	 4.63768000E-03	-1.31150000E-03
		-2.38077000E-05	 6.17206000E-03	 1.46938000E-04
		-1.29156000E-03	 6.25265000E-03	-1.98001000E-03
		-1.80253000E-05	 3.85030000E-03	 1.28747000E-04
		-7.01351000E-04	 5.52407000E-03	-8.67984000E-04
		-8.28541000E-04	 3.91342000E-03	-1.29774000E-03
		 1.14378000E-03	 6.88433000E-03	 2.18441000E-03
		 1.34604000E-03	 5.61699000E-03	 2.19020000E-03
		 6.15930000E-04	 4.65735000E-03	 1.56299000E-03
		 5.59637000E-04	 6.80702000E-03	 1.07845000E-03
		 1.24462000E-03	 6.27757000E-03	 2.27091000E-03
		 7.91453000E-04	 3.93415000E-03	 1.55341000E-03
		 6.63975000E-04	 5.53608000E-03	 1.16774000E-03
		-7.94539000E-06	 4.05348000E-03	 1.57653000E-04
		-1.56573000E-03	 4.13013000E-03	-1.88492000E-03
		-1.32047000E-05	 4.80689000E-03	 1.54125000E-04
		-1.47508000E-03	 4.88914000E-03	-1.80674000E-03
		-9.16480000E-06	 2.96176000E-03	 1.32594000E-04
		-7.84122000E-04	 4.06485000E-03	-9.42770000E-04
		-9.80417000E-04	 3.02401000E-03	-1.30491000E-03
		 1.54769000E-03	 4.15837000E-03	 2.19668000E-03
		 1.44699000E-03	 4.91460000E-03	 2.11176000E-03
		 9.60635000E-04	 3.04719000E-03	 1.56790000E-03
		 7.67780000E-04	 4.07948000E-03	 1.25687000E-03
		-3.02837000E-05	 1.33001000E-02	 1.59721000E-04
		-2.36007000E-03	 1.33421000E-02	-2.96084000E-03
		-1.74306000E-05	 1.09077000E-02	 1.74913000E-04
		-2.47268000E-03	 1.09506000E-02	-2.95205000E-03
		-2.90871000E-05	 9.75838000E-03	 1.54931000E-04
		-1.19501000E-03	 1.33073000E-02	-1.30559000E-03
		-1.78344000E-03	 9.82155000E-03	-2.47746000E-03
		-2.44310000E-05	 1.21189000E-02	 1.67373000E-04
		-2.41651000E-03	 1.21608000E-02	-3.03683000E-03
		-1.81262000E-05	 7.92185000E-03	 1.65939000E-04
		-1.24504000E-03	 1.09156000E-02	-1.37304000E-03
		-1.93524000E-03	 7.98578000E-03	-2.47462000E-03
		 2.30348000E-03	 1.33835000E-02	 3.27932000E-03
		 2.43920000E-03	 1.09881000E-02	 3.30052000E-03
		 1.72777000E-03	 9.85304000E-03	 2.78468000E-03
		 1.13554000E-03	 1.33265000E-02	 1.62487000E-03
		 2.37099000E-03	 1.22005000E-02	 3.37045000E-03
		 1.89939000E-03	 8.01547000E-03	 2.80333000E-03
		 1.21077000E-03	 1.09331000E-02	 1.72259000E-03
		-3.78099000E-06	 8.38827000E-03	 1.89516000E-04
		-2.58374000E-03	 8.43233000E-03	-2.93149000E-03
		-1.02664000E-05	 9.66310000E-03	 1.82270000E-04
		-2.52813000E-03	 9.70654000E-03	-2.87099000E-03
		-5.90811000E-06	 5.92372000E-03	 1.77556000E-04
		-1.29428000E-03	 8.39587000E-03	-1.42716000E-03
		-2.08966000E-03	 5.98260000E-03	-2.45506000E-03
		 2.57448000E-03	 8.47177000E-03	 3.30869000E-03
		 2.50702000E-03	 9.74363000E-03	 3.23387000E-03
		 2.07571000E-03	 6.01569000E-03	 2.80654000E-03
		 1.28634000E-03	 8.41548000E-03	 1.80582000E-03
		-4.38518000E-05	 2.14229000E-02	 1.58599000E-04
		-3.50760000E-03	 2.14464000E-02	-3.66057000E-03
		-2.75485000E-05	 1.79065000E-02	 1.78278000E-04
		-3.59891000E-03	 1.79296000E-02	-3.63779000E-03
		-3.46895000E-05	 1.72120000E-02	 1.61191000E-04
		-1.77556000E-03	 2.14226000E-02	-1.67651000E-03
		-2.92706000E-03	 1.72430000E-02	-3.32077000E-03
		-3.58685000E-05	 1.96774000E-02	 1.68440000E-04
		-3.55310000E-03	 1.97001000E-02	-3.73290000E-03
		-2.03386000E-05	 1.42662000E-02	 1.78779000E-04
		-1.81314000E-03	 1.79061000E-02	-1.73972000E-03
		-3.01896000E-03	 1.42990000E-02	-3.30544000E-03
		 3.42249000E-03	 2.15101000E-02	 3.97769000E-03
		 3.54502000E-03	 1.79908000E-02	 3.99447000E-03
		 2.86146000E-03	 1.72949000E-02	 3.64336000E-03
		 1.68854000E-03	 2.14537000E-02	 1.99385000E-03
		 3.48379000E-03	 1.97633000E-02	 4.06945000E-03
		 2.97999000E-03	 1.43470000E-02	 3.66308000E-03
		 1.75851000E-03	 1.79366000E-02	 2.09628000E-03
		-1.02572000E-05	 1.42791000E-02	 1.97121000E-04
		-3.68868000E-03	 1.43044000E-02	-3.62244000E-03
		-1.89454000E-05	 1.61060000E-02	 1.87930000E-04
		-3.64382000E-03	 1.61295000E-02	-3.53998000E-03
		-5.24142000E-06	 1.12129000E-02	 1.94816000E-04
		-1.85066000E-03	 1.42789000E-02	-1.81184000E-03
		-3.10532000E-03	 1.12508000E-02	-3.28767000E-03
		 3.66750000E-03	 1.43665000E-02	 4.01699000E-03
		 3.60593000E-03	 1.61897000E-02	 3.91632000E-03
		 3.09406000E-03	 1.12994000E-02	 3.67713000E-03
		 1.82997000E-03	 1.43112000E-02	 2.20604000E-03
		-7.85907000E-05	 3.09236000E-02	 1.41562000E-04
		-4.66517000E-03	 3.09596000E-02	-4.59363000E-03
		-5.21748000E-05	 2.62551000E-02	 1.65295000E-04
		-4.80178000E-03	 2.62895000E-02	-4.56833000E-03
		-5.74764000E-05	 2.59522000E-02	 1.52078000E-04
		-2.37256000E-03	 3.09201000E-02	-2.15096000E-03
		-4.09232000E-03	 2.59811000E-02	-4.08154000E-03
		-6.56386000E-05	 2.86113000E-02	 1.52690000E-04
		-4.73358000E-03	 2.86457000E-02	-4.66110000E-03
		-3.70592000E-05	 2.18492000E-02	 1.73827000E-04
		-2.42741000E-03	 2.62494000E-02	-2.20630000E-03
		-4.20893000E-03	 2.18782000E-02	-4.05257000E-03
		 4.50854000E-03	 3.10551000E-02	 4.87282000E-03
		 4.69563000E-03	 2.63851000E-02	 4.89507000E-03
		 3.97884000E-03	 2.60597000E-02	 4.38410000E-03
		 2.21538000E-03	 3.09666000E-02	 2.43315000E-03
		 4.60224000E-03	 2.87423000E-02	 4.96237000E-03
		 4.13450000E-03	 2.19555000E-02	 4.39901000E-03
		 2.32260000E-03	 2.62972000E-02	 2.53588000E-03
		-2.51718000E-05	 2.14265000E-02	 1.92827000E-04
		-4.94831000E-03	 2.14494000E-02	-4.54238000E-03
		-3.85448000E-05	 2.38619000E-02	 1.78890000E-04
		-4.87578000E-03	 2.38944000E-02	-4.47265000E-03
		-1.58439000E-05	 1.76095000E-02	 1.97096000E-04
		-2.48369000E-03	 2.14142000E-02	-2.26198000E-03
		-4.32711000E-03	 1.76351000E-02	-4.03655000E-03
		 4.89437000E-03	 2.15504000E-02	 4.92439000E-03
		 4.79521000E-03	 2.39905000E-02	 4.82720000E-03
		 4.29337000E-03	 1.77157000E-02	 4.42993000E-03
		 2.43276000E-03	 2.14670000E-02	 2.64627000E-03
		-1.45939000E-04	 4.24834000E-02	 8.88406000E-05
		-5.63322000E-03	 4.24745000E-02	-5.60036000E-03
		-1.11146000E-04	 3.69606000E-02	 1.26335000E-04
		-5.67860000E-03	 3.69424000E-02	-5.57868000E-03
		-1.10598000E-04	 3.64681000E-02	 1.21990000E-04
		-2.88808000E-03	 4.24694000E-02	-2.68166000E-03
		-5.19916000E-03	 3.64846000E-02	-5.15121000E-03
		-1.29747000E-04	 3.97346000E-02	 1.07174000E-04
		-5.65736000E-03	 3.97183000E-02	-5.63625000E-03
		-7.86045000E-05	 3.13111000E-02	 1.50180000E-04
		-2.89536000E-03	 3.69409000E-02	-2.69734000E-03
		-5.30757000E-03	 3.13215000E-02	-5.13262000E-03
		 5.34151000E-03	 4.25972000E-02	 5.77799000E-03
		 5.45652000E-03	 3.70669000E-02	 5.83074000E-03
		 4.97874000E-03	 3.65952000E-02	 5.39034000E-03
		 2.59642000E-03	 4.25278000E-02	 2.86020000E-03
		 5.39815000E-03	 3.98428000E-02	 5.85024000E-03
		 5.14876000E-03	 3.14330000E-02	 5.42801000E-03
		 2.67351000E-03	 3.70011000E-02	 2.95034000E-03
		-7.35222000E-05	 3.13479000E-02	 1.60740000E-04
		-5.73955000E-03	 3.13195000E-02	-5.53257000E-03
		-9.18786000E-05	 3.41646000E-02	 1.44103000E-04
		-5.70893000E-03	 3.41447000E-02	-5.52699000E-03
		-4.48279000E-05	 2.60111000E-02	 1.81474000E-04
		-2.90420000E-03	 3.13224000E-02	-2.68786000E-03
		-5.43373000E-03	 2.60050000E-02	-5.09239000E-03
		 5.59186000E-03	 3.14470000E-02	 5.85299000E-03
		 5.52519000E-03	 3.42701000E-02	 5.81334000E-03
		 5.33982000E-03	 2.61232000E-02	 5.45054000E-03
		 2.75718000E-03	 3.13844000E-02	 3.01022000E-03
		-1.87210000E-04	 5.47026000E-02	 8.24109000E-06
		-6.05209000E-03	 5.46427000E-02	-5.86840000E-03
		-1.65696000E-04	 4.88692000E-02	 6.00415000E-05
		-6.00602000E-03	 4.87937000E-02	-5.83093000E-03
		-1.72277000E-04	 4.86673000E-02	 4.68281000E-05
		-3.11770000E-03	 5.46749000E-02	-2.92184000E-03
		-5.92489000E-03	 4.86276000E-02	-5.80422000E-03
		-1.75168000E-04	 5.17828000E-02	 3.65259000E-05
		-6.02829000E-03	 5.17118000E-02	-5.85264000E-03
		-1.39927000E-04	 4.29127000E-02	 9.51477000E-05
		-3.08837000E-03	 4.88336000E-02	-2.88346000E-03
		-5.90847000E-03	 4.28628000E-02	-5.77230000E-03
		 5.67169000E-03	 5.47955000E-02	 5.89871000E-03
		 5.68053000E-03	 4.89523000E-02	 5.96602000E-03
		 5.57686000E-03	 4.87613000E-02	 5.90789000E-03
		 2.74217000E-03	 5.47531000E-02	 2.94193000E-03
		 5.67681000E-03	 5.18701000E-02	 5.94005000E-03
		 5.63227000E-03	 4.30006000E-02	 5.97180000E-03
		 2.75913000E-03	 4.89151000E-02	 3.00762000E-03
		-1.42077000E-04	 4.30298000E-02	 9.42788000E-05
		-5.98174000E-03	 4.29577000E-02	-5.79559000E-03
		-1.55671000E-04	 4.59488000E-02	 7.87310000E-05
		-5.99509000E-03	 4.58727000E-02	-5.81091000E-03
		-1.05652000E-04	 3.71270000E-02	 1.30089000E-04
		-3.06565000E-03	 4.29966000E-02	-2.85071000E-03
		-5.90690000E-03	 3.70779000E-02	-5.73150000E-03
		 5.71390000E-03	 4.30987000E-02	 5.99961000E-03
		 5.69675000E-03	 4.60257000E-02	 5.98295000E-03
		 5.70498000E-03	 3.72066000E-02	 5.99987000E-03
		 2.78568000E-03	 4.30668000E-02	 3.04439000E-03
		 0.00000000E+00	 0.00000000E+00	 0.00000000E+00
		 0.00000000E+00	 0.00000000E+00	 0.00000000E+00
		-3.20515000E-05	-4.53984000E-03	-1.54044000E-04
		-2.41550000E-03	-4.68719000E-03	 4.31060000E-03
		 0.00000000E+00	 0.00000000E+00	 0.00000000E+00
		 0.00000000E+00	 0.00000000E+00	 0.00000000E+00
		-5.35368000E-05	-6.74751000E-03	-2.20814000E-04
		-2.07256000E-03	-6.90549000E-03	 4.33802000E-03
		 0.00000000E+00	 0.00000000E+00	 0.00000000E+00
		 1.22259000E-05	-9.52138000E-04	-6.77218000E-05
		-1.22727000E-03	-4.53253000E-03	 2.09271000E-03
		-1.64528000E-03	-1.34057000E-03	 2.49452000E-03
		 0.00000000E+00	 0.00000000E+00	 0.00000000E+00
		 0.00000000E+00	 0.00000000E+00	 0.00000000E+00
		-4.11156000E-05	-5.72171000E-03	-1.88901000E-04
		-2.23753000E-03	-5.87029000E-03	 4.16869000E-03
		 0.00000000E+00	 0.00000000E+00	 0.00000000E+00
		-1.36116000E-05	-2.25387000E-03	-9.48597000E-05
		-1.06378000E-03	-6.74017000E-03	 1.90914000E-03
		-1.02575000E-03	-2.61082000E-03	 2.43083000E-03
		 0.00000000E+00	 0.00000000E+00	 0.00000000E+00
		 2.35149000E-03	-4.67708000E-03	-4.62404000E-03
		 0.00000000E+00	 0.00000000E+00	 0.00000000E+00
		 1.97118000E-03	-6.90357000E-03	-4.78257000E-03
		 0.00000000E+00	 0.00000000E+00	 0.00000000E+00
		 1.67482000E-03	-1.36039000E-03	-2.64445000E-03
		 1.16206000E-03	-4.52716000E-03	-2.40125000E-03
		 0.00000000E+00	 0.00000000E+00	 0.00000000E+00
		 2.15806000E-03	-5.86462000E-03	-4.55054000E-03
		 0.00000000E+00	 0.00000000E+00	 0.00000000E+00
		 1.00615000E-03	-2.64758000E-03	-2.63441000E-03
		 9.56326000E-04	-6.74075000E-03	-2.35095000E-03
		 0.00000000E+00	 0.00000000E+00	 0.00000000E+00
		 0.00000000E+00	 0.00000000E+00	 0.00000000E+00
		-8.06731000E-05	-8.58162000E-03	-2.79764000E-04
		-1.72645000E-03	-8.71232000E-03	 4.18980000E-03
		 0.00000000E+00	 0.00000000E+00	 0.00000000E+00
		 0.00000000E+00	 0.00000000E+00	 0.00000000E+00
		-6.59843000E-05	-7.74057000E-03	-2.49969000E-04
		-1.90223000E-03	-7.88352000E-03	 4.46752000E-03
		 0.00000000E+00	 0.00000000E+00	 0.00000000E+00
		-4.86746000E-05	-2.98271000E-03	-1.27773000E-04
		-9.04913000E-04	-8.56230000E-03	 1.61039000E-03
		-3.42855000E-04	-3.28155000E-03	 2.43518000E-03
		 0.00000000E+00	 0.00000000E+00	 0.00000000E+00
		 1.57243000E-03	-8.71941000E-03	-4.74795000E-03
		 0.00000000E+00	 0.00000000E+00	 0.00000000E+00
		 1.77577000E-03	-7.88821000E-03	-4.96857000E-03
		 0.00000000E+00	 0.00000000E+00	 0.00000000E+00
		 2.52610000E-04	-3.33396000E-03	-2.70501000E-03
		 7.46568000E-04	-8.57149000E-03	-2.16819000E-03
		-1.56233000E-04	-1.48967000E-02	-3.62985000E-04
		-3.78312000E-03	-1.49437000E-02	 5.51398000E-03
		-1.66223000E-04	-1.84742000E-02	-4.60764000E-04
		-3.70861000E-03	-1.85297000E-02	 5.43940000E-03
		-9.15262000E-05	-9.34894000E-03	-2.53644000E-04
		-1.96898000E-03	-1.49201000E-02	 2.59316000E-03
		-3.20860000E-03	-9.48361000E-03	 5.18000000E-03
		-1.61668000E-04	-1.66847000E-02	-4.14860000E-04
		-3.74674000E-03	-1.67367000E-02	 5.41805000E-03
		-1.08572000E-04	-1.23534000E-02	-3.40887000E-04
		-1.93337000E-03	-1.85022000E-02	 2.45338000E-03
		-3.00506000E-03	-1.24975000E-02	 5.13001000E-03
		 3.47187000E-03	-1.48935000E-02	-6.24068000E-03
		 3.37048000E-03	-1.84863000E-02	-6.36024000E-03
		 3.02593000E-03	-9.45198000E-03	-5.69303000E-03
		 1.65654000E-03	-1.48941000E-02	-3.32006000E-03
		 3.42327000E-03	-1.66957000E-02	-6.24600000E-03
		 2.78972000E-03	-1.24709000E-02	-5.81593000E-03
		 1.60418000E-03	-1.84814000E-02	-3.37254000E-03
		-1.81332000E-04	-2.19758000E-02	-5.53153000E-04
		-3.63926000E-03	-2.20280000E-02	 5.32208000E-03
		-1.74118000E-04	-2.02257000E-02	-5.05010000E-04
		-3.67421000E-03	-2.03052000E-02	 5.45474000E-03
		-1.29306000E-04	-1.51454000E-02	-4.22921000E-04
		-1.91103000E-03	-2.19992000E-02	 2.27658000E-03
		-2.84401000E-03	-1.53115000E-02	 5.01240000E-03
		 3.29995000E-03	-2.20010000E-02	-6.42788000E-03
		 3.33580000E-03	-2.02405000E-02	-6.46626000E-03
		 2.59780000E-03	-1.52987000E-02	-5.85948000E-03
		 1.55478000E-03	-2.19878000E-02	-3.37949000E-03
		-2.56888000E-04	-2.68200000E-02	-5.95236000E-04
		-4.49264000E-03	-2.67216000E-02	 5.13789000E-03
		-2.54976000E-04	-3.10792000E-02	-6.63702000E-04
		-4.60708000E-03	-3.11022000E-02	 5.09892000E-03
		-2.14174000E-04	-2.08004000E-02	-4.77714000E-04
		-2.36756000E-03	-2.67839000E-02	 2.23359000E-03
		-4.19942000E-03	-2.08009000E-02	 5.50956000E-03
		-2.55608000E-04	-2.89369000E-02	-6.26714000E-04
		-4.55369000E-03	-2.89140000E-02	 5.08086000E-03
		-2.19036000E-04	-2.47766000E-02	-5.70624000E-04
		-2.45421000E-03	-3.11086000E-02	 2.12905000E-03
		-4.21023000E-03	-2.47972000E-02	 5.44340000E-03
		 3.93559000E-03	-2.67127000E-02	-6.30784000E-03
		 4.08761000E-03	-3.09885000E-02	-6.43929000E-03
		 3.76157000E-03	-2.07497000E-02	-6.46131000E-03
		 1.83960000E-03	-2.67831000E-02	-3.41112000E-03
		 4.00928000E-03	-2.88323000E-02	-6.34247000E-03
		 3.77024000E-03	-2.47257000E-02	-6.58173000E-03
		 1.91836000E-03	-3.10549000E-02	-3.47513000E-03
		-2.53531000E-04	-3.54981000E-02	-7.32295000E-04
		-4.82246000E-03	-3.56476000E-02	 4.99816000E-03
		-2.54212000E-04	-3.32858000E-02	-6.99869000E-04
		-4.71752000E-03	-3.32439000E-02	 5.13045000E-03
		-2.15097000E-04	-2.87740000E-02	-6.59060000E-04
		-2.50774000E-03	-3.55962000E-02	 1.95976000E-03
		-4.25679000E-03	-2.88266000E-02	 5.33027000E-03
		 4.26342000E-03	-3.54282000E-02	-6.50138000E-03
		 4.17459000E-03	-3.31883000E-02	-6.54292000E-03
		 3.78313000E-03	-2.87186000E-02	-6.64768000E-03
		 1.99996000E-03	-3.54926000E-02	-3.46793000E-03
		-2.17393000E-04	-3.69580000E-02	-8.08397000E-04
		-4.67485000E-03	-3.66239000E-02	 2.71336000E-03
		-2.14158000E-04	-4.17039000E-02	-7.87547000E-04
		-5.27198000E-03	-4.18381000E-02	 2.74818000E-03
		-2.90044000E-04	-3.24392000E-02	-7.06810000E-04
		-2.44617000E-03	-3.68538000E-02	 9.20935000E-04
		-4.65132000E-03	-3.23166000E-02	 4.15756000E-03
		-2.16978000E-04	-3.92339000E-02	-7.97903000E-04
		-4.96604000E-03	-3.90795000E-02	 2.73348000E-03
		-2.91756000E-04	-3.70021000E-02	-7.80910000E-04
		-2.61863000E-03	-4.18206000E-02	 9.49117000E-04
		-5.03435000E-03	-3.68330000E-02	 4.19667000E-03
		 4.06206000E-03	-3.67215000E-02	-4.32360000E-03
		 4.53446000E-03	-4.13025000E-02	-4.31551000E-03
		 4.03821000E-03	-3.22631000E-02	-5.56187000E-03
		 1.92375000E-03	-3.69093000E-02	-2.53568000E-03
		 4.30025000E-03	-3.89444000E-02	-4.32265000E-03
		 4.37402000E-03	-3.67774000E-02	-5.64632000E-03
		 2.15018000E-03	-4.15464000E-02	-2.52279000E-03
		-3.38108000E-04	-4.69502000E-02	-7.69555000E-04
		-5.73557000E-03	-4.74705000E-02	 2.75326000E-03
		-2.75242000E-04	-4.42274000E-02	-7.78064000E-04
		-5.50341000E-03	-4.50720000E-02	 2.76580000E-03
		-3.08821000E-04	-4.19013000E-02	-8.81828000E-04
		-3.14868000E-03	-4.72455000E-02	 9.47039000E-04
		-5.25836000E-03	-4.16318000E-02	 4.11643000E-03
		 5.04510000E-03	-4.63888000E-02	-4.28341000E-03