<?xml version="1.0"?>
<VTKFile type="UnstructuredGrid" version="0.1" byte_order="LittleEndian">
	<UnstructuredGrid>
		<Piece NumberOfPoints="522" NumberOfCells="64">
			<Points>
				<DataArray type="Float64" NumberOfComponents="3" format="ascii">
					 1.00000000E+00	 1.00000000E+00	-5.96046000E-08
					 1.00000000E+00	 5.00000000E-01	-5.96046000E-08
					 1.00000000E+00	 5.00000000E-01	 1.00000000E+00
					 1.00000000E+00	 1.00000000E+00	 1.00000000E+00
					 5.00000000E-01	 1.00000000E+00	-5.96046000E-08
					 5.00000000E-01	 5.00000000E-01	-5.96046000E-08
					 5.00000000E-01	 5.00000000E-01	 1.00000000E+00
					 5.00000000E-01	 1.00000000E+00	 1.00000000E+00
					 1.00000000E+00	 7.50000000E-01	-5.96046000E-08
					 1.00000000E+00	 5.00000000E-01	 5.00000000E-01
					 1.00000000E+00	 7.50000000E-01	 1.00000000E+00
					 1.00000000E+00	 1.00000000E+00	 5.00000000E-01
					 7.50000000E-01	 1.00000000E+00	-5.96046000E-08
					 7.50000000E-01	 5.00000000E-01	-5.96046000E-08
					 7.50000000E-01	 5.00000000E-01	 1.00000000E+00
					 7.50000000E-01	 1.00000000E+00	 1.00000000E+00
					 5.00000000E-01	 7.50000000E-01	-5.96046000E-08
					 5.00000000E-01	 5.00000000E-01	 5.00000000E-01
					 5.00000000E-01	 7.50000000E-01	 1.00000000E+00
					 5.00000000E-01	 1.00000000E+00	 5.00000000E-01
					 1.00000000E+00	-1.49012000E-08	-5.96046000E-08
					 1.00000000E+00	-1.49012000E-08	 1.00000000E+00
					 5.00000000E-01	-1.49012000E-08	-5.96046000E-08
					 5.00000000E-01	-1.49012000E-08	 1.00000000E+00
					 1.00000000E+00	 2.50000000E-01	-5.96046000E-08
					 1.00000000E+00	-1.49012000E-08	 5.00000000E-01
					 1.00000000E+00	 2.50000000E-01	 1.00000000E+00
					 7.50000000E-01	-1.49012000E-08	-5.96046000E-08
					 7.50000000E-01	-1.49012000E-08	 1.00000000E+00
					 5.00000000E-01	 2.50000000E-01	-5.96046000E-08
					 5.00000000E-01	-1.49012000E-08	 5.00000000E-01
					 5.00000000E-01	 2.50000000E-01	 1.00000000E+00
					-7.45058000E-09	 1.00000000E+00	-5.96046000E-08
					-7.45058000E-09	 5.00000000E-01	-5.96046000E-08
					-7.45058000E-09	 5.00000000E-01	 1.00000000E+00
					-7.45058000E-09	 1.00000000E+00	 1.00000000E+00
					 2.50000000E-01	 1.00000000E+00	-5.96046000E-08
					 2.50000000E-01	 5.00000000E-01	-5.96046000E-08
					 2.50000000E-01	 5.00000000E-01	 1.00000000E+00
					 2.50000000E-01	 1.00000000E+00	 1.00000000E+00
					-7.45058000E-09	 7.50000000E-01	-5.96046000E-08
					-7.45058000E-09	 5.00000000E-01	 5.00000000E-01
					-7.45058000E-09	 7.50000000E-01	 1.00000000E+00
					-7.45058000E-09	 1.00000000E+00	 5.00000000E-01
					-7.45058000E-09	-1.49012000E-08	-5.96046000E-08
					-7.45058000E-09	-1.49012000E-08	 1.00000000E+00
					 2.50000000E-01	-1.49012000E-08	-5.96046000E-08
					 2.50000000E-01	-1.49012000E-08	 1.00000000E+00
					-7.45058000E-09	 2.50000000E-01	-5.96046000E-08
					-7.45058000E-09	-1.49012000E-08	 5.00000000E-01
					-7.45058000E-09	 2.50000000E-01	 1.00000000E+00
					 1.00000000E+00	 5.00000000E-01	 2.00000000E+00
					 1.00000000E+00	 1.00000000E+00	 2.00000000E+00
					 5.00000000E-01	 5.00000000E-01	 2.00000000E+00
					 5.00000000E-01	 1.00000000E+00	 2.00000000E+00
					 1.00000000E+00	 5.00000000E-01	 1.50000000E+00
					 1.00000000E+00	 7.50000000E-01	 2.00000000E+00
					 1.00000000E+00	 1.00000000E+00	 1.50000000E+00
					 7.50000000E-01	 5.00000000E-01	 2.00000000E+00
					 7.50000000E-01	 1.00000000E+00	 2.00000000E+00
					 5.00000000E-01	 5.00000000E-01	 1.50000000E+00
					 5.00000000E-01	 7.50000000E-01	 2.00000000E+00
					 5.00000000E-01	 1.00000000E+00	 1.50000000E+00
					 1.00000000E+00	-1.49012000E-08	 2.00000000E+00
					 5.00000000E-01	-1.49012000E-08	 2.00000000E+00
					 1.00000000E+00	-1.49012000E-08	 1.50000000E+00
					 1.00000000E+00	 2.50000000E-01	 2.00000000E+00
					 7.50000000E-01	-1.49012000E-08	 2.00000000E+00
					 5.00000000E-01	-1.49012000E-08	 1.50000000E+00
					 5.00000000E-01	 2.50000000E-01	 2.00000000E+00
					-7.45058000E-09	 5.00000000E-01	 2.00000000E+00
					-7.45058000E-09	 1.00000000E+00	 2.00000000E+00
					 2.50000000E-01	 5.00000000E-01	 2.00000000E+00
					 2.50000000E-01	 1.00000000E+00	 2.00000000E+00
					-7.45058000E-09	 5.00000000E-01	 1.50000000E+00
					-7.45058000E-09	 7.50000000E-01	 2.00000000E+00
					-7.45058000E-09	 1.00000000E+00	 1.50000000E+00
					-7.45058000E-09	-1.49012000E-08	 2.00000000E+00
					 2.50000000E-01	-1.49012000E-08	 2.00000000E+00
					-7.45058000E-09	-1.49012000E-08	 1.50000000E+00
					-7.45058000E-09	 2.50000000E-01	 2.00000000E+00
					 1.00000000E+00	 5.00000000E-01	 3.00000000E+00
					 1.00000000E+00	 1.00000000E+00	 3.00000000E+00
					 5.00000000E-01	 5.00000000E-01	 3.00000000E+00
					 5.00000000E-01	 1.00000000E+00	 3.00000000E+00
					 1.00000000E+00	 5.00000000E-01	 2.50000000E+00
					 1.00000000E+00	 7.50000000E-01	 3.00000000E+00
					 1.00000000E+00	 1.00000000E+00	 2.50000000E+00
					 7.50000000E-01	 5.00000000E-01	 3.00000000E+00
					 7.50000000E-01	 1.00000000E+00	 3.00000000E+00
					 5.00000000E-01	 5.00000000E-01	 2.50000000E+00
					 5.00000000E-01	 7.50000000E-01	 3.00000000E+00
					 5.00000000E-01	 1.00000000E+00	 2.50000000E+00
					 1.00000000E+00	-1.49012000E-08	 3.00000000E+00
					 5.00000000E-01	-1.49012000E-08	 3.00000000E+00
					 1.00000000E+00	-1.49012000E-08	 2.50000000E+00
					 1.00000000E+00	 2.50000000E-01	 3.00000000E+00
					 7.50000000E-01	-1.49012000E-08	 3.00000000E+00
					 5.00000000E-01	-1.49012000E-08	 2.50000000E+00
					 5.00000000E-01	 2.50000000E-01	 3.00000000E+00
					-7.45058000E-09	 5.00000000E-01	 3.00000000E+00
					-7.45058000E-09	 1.00000000E+00	 3.00000000E+00
					 2.50000000E-01	 5.00000000E-01	 3.00000000E+00
					 2.50000000E-01	 1.00000000E+00	 3.00000000E+00
					-7.45058000E-09	 5.00000000E-01	 2.50000000E+00
					-7.45058000E-09	 7.50000000E-01	 3.00000000E+00
					-7.45058000E-09	 1.00000000E+00	 2.50000000E+00
					-7.45058000E-09	-1.49012000E-08	 3.00000000E+00
					 2.50000000E-01	-1.49012000E-08	 3.00000000E+00
					-7.45058000E-09	-1.49012000E-08	 2.50000000E+00
					-7.45058000E-09	 2.50000000E-01	 3.00000000E+00
					 1.00000000E+00	 5.00000000E-01	 4.00000000E+00
					 1.00000000E+00	 1.00000000E+00	 4.00000000E+00
					 5.00000000E-01	 5.00000000E-01	 4.00000000E+00
					 5.00000000E-01	 1.00000000E+00	 4.00000000E+00
					 1.00000000E+00	 5.00000000E-01	 3.50000000E+00
					 1.00000000E+00	 7.50000000E-01	 4.00000000E+00
					 1.00000000E+00	 1.00000000E+00	 3.50000000E+00
					 7.50000000E-01	 5.00000000E-01	 4.00000000E+00
					 7.50000000E-01	 1.00000000E+00	 4.00000000E+00
					 5.00000000E-01	 5.00000000E-01	 3.50000000E+00
					 5.00000000E-01	 7.50000000E-01	 4.00000000E+00
					 5.00000000E-01	 1.00000000E+00	 3.50000000E+00
					 1.00000000E+00	-1.49012000E-08	 4.00000000E+00
					 5.00000000E-01	-1.49012000E-08	 4.00000000E+00
					 1.00000000E+00	-1.49012000E-08	 3.50000000E+00
					 1.00000000E+00	 2.50000000E-01	 4.00000000E+00
					 7.50000000E-01	-1.49012000E-08	 4.00000000E+00
					 5.00000000E-01	-1.49012000E-08	 3.50000000E+00
					 5.00000000E-01	 2.50000000E-01	 4.00000000E+00
					-7.45058000E-09	 5.00000000E-01	 4.00000000E+00
					-7.45058000E-09	 1.00000000E+00	 4.00000000E+00
					 2.50000000E-01	 5.00000000E-01	 4.00000000E+00
					 2.50000000E-01	 1.00000000E+00	 4.00000000E+00
					-7.45058000E-09	 5.00000000E-01	 3.50000000E+00
					-7.45058000E-09	 7.50000000E-01	 4.00000000E+00
					-7.45058000E-09	 1.00000000E+00	 3.50000000E+00
					-7.45058000E-09	-1.49012000E-08	 4.00000000E+00
					 2.50000000E-01	-1.49012000E-08	 4.00000000E+00
					-7.45058000E-09	-1.49012000E-08	 3.50000000E+00
					-7.45058000E-09	 2.50000000E-01	 4.00000000E+00
					 1.00000000E+00	 5.00000000E-01	 5.00000000E+00
					 1.00000000E+00	 1.00000000E+00	 5.00000000E+00
					 5.00000000E-01	 5.00000000E-01	 5.00000000E+00
					 5.00000000E-01	 1.00000000E+00	 5.00000000E+00
					 1.00000000E+00	 5.00000000E-01	 4.50000000E+00
					 1.00000000E+00	 7.50000000E-01	 5.00000000E+00
					 1.00000000E+00	 1.00000000E+00	 4.50000000E+00
					 7.50000000E-01	 5.00000000E-01	 5.00000000E+00
					 7.50000000E-01	 1.00000000E+00	 5.00000000E+00
					 5.00000000E-01	 5.00000000E-01	 4.50000000E+00
					 5.00000000E-01	 7.50000000E-01	 5.00000000E+00
					 5.00000000E-01	 1.00000000E+00	 4.50000000E+00
					 1.00000000E+00	-1.49012000E-08	 5.00000000E+00
					 5.00000000E-01	-1.49012000E-08	 5.00000000E+00
					 1.00000000E+00	-1.49012000E-08	 4.50000000E+00
					 1.00000000E+00	 2.50000000E-01	 5.00000000E+00
					 7.50000000E-01	-1.49012000E-08	 5.00000000E+00
					 5.00000000E-01	-1.49012000E-08	 4.50000000E+00
					 5.00000000E-01	 2.50000000E-01	 5.00000000E+00
					-7.45058000E-09	 5.00000000E-01	 5.00000000E+00
					-7.45058000E-09	 1.00000000E+00	 5.00000000E+00
					 2.50000000E-01	 5.00000000E-01	 5.00000000E+00
					 2.50000000E-01	 1.00000000E+00	 5.00000000E+00
					-7.45058000E-09	 5.00000000E-01	 4.50000000E+00
					-7.45058000E-09	 7.50000000E-01	 5.00000000E+00
					-7.45058000E-09	 1.00000000E+00	 4.50000000E+00
					-7.45058000E-09	-1.49012000E-08	 5.00000000E+00
					 2.50000000E-01	-1.49012000E-08	 5.00000000E+00
					-7.45058000E-09	-1.49012000E-08	 4.50000000E+00
					-7.45058000E-09	 2.50000000E-01	 5.00000000E+00
					 1.00000000E+00	 5.00000000E-01	 6.00000000E+00
					 1.00000000E+00	 1.00000000E+00	 6.00000000E+00
					 5.00000000E-01	 5.00000000E-01	 6.00000000E+00
					 5.00000000E-01	 1.00000000E+00	 6.00000000E+00
					 1.00000000E+00	 5.00000000E-01	 5.50000000E+00
					 1.00000000E+00	 7.50000000E-01	 6.00000000E+00
					 1.00000000E+00	 1.00000000E+00	 5.50000000E+00
					 7.50000000E-01	 5.00000000E-01	 6.00000000E+00
					 7.50000000E-01	 1.00000000E+00	 6.00000000E+00
					 5.00000000E-01	 5.00000000E-01	 5.50000000E+00
					 5.00000000E-01	 7.50000000E-01	 6.00000000E+00
					 5.00000000E-01	 1.00000000E+00	 5.50000000E+00
					 1.00000000E+00	-1.49012000E-08	 6.00000000E+00
[...]
			<PointData>
				<DataArray type="Float32" Name="U" NumberOfComponents="3" ComponentName0="D1" ComponentName1="D2" ComponentName2="D3" format="ascii">
					 0.00000000E+00	 0.00000000E+00	 0.00000000E+00
					 0.00000000E+00	 0.00000000E+00	 0.00000000E+00
					-1.26002000E-05	-1.20741000E-03	-9.35477000E-06
					 6.08836000E-04	-1.42204000E-03	 1.74395000E-03
					 0.00000000E+00	 0.00000000E+00	 0.00000000E+00
					 0.00000000E+00	 0.00000000E+00	 0.00000000E+00
					-1.67269000E-05	-3.58121000E-04	-1.89954000E-05
					 1.03796000E-03	-5.82088000E-04	 1.71588000E-03
					 0.00000000E+00	 0.00000000E+00	 0.00000000E+00
					-2.98376000E-06	-1.31358000E-04	-2.06265000E-06
					 2.97565000E-04	-1.25477000E-03	 8.75504000E-04
					 3.14590000E-04	-2.78533000E-04	 6.00275000E-04
					 0.00000000E+00	 0.00000000E+00	 0.00000000E+00
					 0.00000000E+00	 0.00000000E+00	 0.00000000E+00
					-1.50637000E-05	-8.41335000E-04	-1.46647000E-05
					 8.24678000E-04	-1.06101000E-03	 1.78387000E-03
					 0.00000000E+00	 0.00000000E+00	 0.00000000E+00
					-5.96470000E-06	 3.27843000E-04	-7.07131000E-06
					 5.10254000E-04	-4.08177000E-04	 9.15268000E-04
					 5.85573000E-04	 1.74655000E-04	 5.45690000E-04
					 0.00000000E+00	 0.00000000E+00	 0.00000000E+00
					-6.31391000E-04	-1.41480000E-03	-1.76635000E-03
					 0.00000000E+00	 0.00000000E+00	 0.00000000E+00
					-1.06828000E-03	-5.78798000E-04	-1.75569000E-03
					 0.00000000E+00	 0.00000000E+00	 0.00000000E+00
					-3.15425000E-04	-2.73163000E-04	-6.03577000E-04
					-3.22290000E-04	-1.24972000E-03	-8.94496000E-04
					 0.00000000E+00	 0.00000000E+00	 0.00000000E+00
					-8.51042000E-04	-1.05595000E-03	-1.81734000E-03
					 0.00000000E+00	 0.00000000E+00	 0.00000000E+00
					-5.92439000E-04	 1.72613000E-04	-5.60189000E-04
					-5.42443000E-04	-4.06033000E-04	-9.53788000E-04
					 0.00000000E+00	 0.00000000E+00	 0.00000000E+00
					 0.00000000E+00	 0.00000000E+00	 0.00000000E+00
					-1.81873000E-05	 8.98967000E-04	-2.68958000E-05
					 1.46927000E-03	 6.86134000E-04	 1.72740000E-03
					 0.00000000E+00	 0.00000000E+00	 0.00000000E+00
					 0.00000000E+00	 0.00000000E+00	 0.00000000E+00
					-1.76837000E-05	 2.11209000E-04	-2.25902000E-05
					 1.25168000E-03	-6.25420000E-06	 1.62396000E-03
					 0.00000000E+00	 0.00000000E+00	 0.00000000E+00
					-8.72487000E-06	 1.04539000E-03	-1.31365000E-05
					 7.26306000E-04	 8.52834000E-04	 1.01079000E-03
					 8.24930000E-04	 8.73382000E-04	 5.87220000E-04
					 0.00000000E+00	 0.00000000E+00	 0.00000000E+00
					-1.50237000E-03	 6.88613000E-04	-1.78115000E-03
					 0.00000000E+00	 0.00000000E+00	 0.00000000E+00
					-1.28414000E-03	-3.46574000E-06	-1.66838000E-03
					 0.00000000E+00	 0.00000000E+00	 0.00000000E+00
					-8.37569000E-04	 8.65418000E-04	-6.15449000E-04
					-7.61475000E-04	 8.54257000E-04	-1.06552000E-03
					-3.79030000E-05	-8.22768000E-03	-7.88717000E-05
					 9.45180000E-04	-8.47586000E-03	 4.95150000E-03
					-4.13435000E-05	-7.00222000E-03	-7.07578000E-05
					 1.41343000E-03	-7.25904000E-03	 4.96971000E-03
					-2.80582000E-05	-3.82723000E-03	-3.45958000E-05
					 4.57059000E-04	-8.29055000E-03	 2.39486000E-03
					 8.17098000E-04	-4.06747000E-03	 3.33190000E-03
					-4.02625000E-05	-7.67467000E-03	-7.54619000E-05
					 1.17900000E-03	-7.92830000E-03	 4.97259000E-03
					-3.20359000E-05	-2.73842000E-03	-3.87770000E-05
					 6.88234000E-04	-7.06906000E-03	 2.41776000E-03
					 1.29671000E-03	-2.97609000E-03	 3.32633000E-03
					-1.02872000E-03	-8.43703000E-03	-5.11214000E-03
					-1.50349000E-03	-7.20857000E-03	-5.11466000E-03
					-8.77927000E-04	-4.05496000E-03	-3.40660000E-03
					-5.35014000E-04	-8.27261000E-03	-2.55322000E-03
					-1.26669000E-03	-7.88318000E-03	-5.12666000E-03
					-1.36451000E-03	-2.95634000E-03	-3.40631000E-03
					-7.72931000E-04	-7.04425000E-03	-2.55991000E-03
					-4.12536000E-05	-5.31337000E-03	-5.93101000E-05
					 1.89559000E-03	-5.56466000E-03	 4.96995000E-03
					-4.15345000E-05	-6.21637000E-03	-6.54683000E-05
					 1.65487000E-03	-6.47617000E-03	 4.97845000E-03
					-3.23567000E-05	-1.16635000E-03	-3.95650000E-05
					 9.22735000E-04	-5.37798000E-03	 2.41662000E-03
					 1.81164000E-03	-1.38353000E-03	 3.32993000E-03
					-1.98434000E-03	-5.50097000E-03	-5.09183000E-03
					-1.74555000E-03	-6.41939000E-03	-5.11317000E-03
					-1.87998000E-03	-1.35419000E-03	-3.40798000E-03
					-1.00638000E-03	-5.34534000E-03	-2.53539000E-03
					-4.76672000E-05	-2.17700000E-02	-2.01051000E-04
					 1.33184000E-03	-2.19837000E-02	 7.41746000E-03
					-5.06486000E-05	-2.02302000E-02	-1.80111000E-04
					 1.64806000E-03	-2.04494000E-02	 7.45141000E-03
					-4.09373000E-05	-1.43215000E-02	-1.34217000E-04
					 6.42442000E-04	-2.18385000E-02	 3.54684000E-03
					 1.10883000E-03	-1.45505000E-02	 6.30979000E-03
					-4.89907000E-05	-2.10376000E-02	-1.91806000E-04
					 1.48949000E-03	-2.12559000E-02	 7.47077000E-03
					-4.47233000E-05	-1.29705000E-02	-1.18160000E-04
					 7.98072000E-04	-2.03027000E-02	 3.61071000E-03
					 1.50058000E-03	-1.32093000E-02	 6.34188000E-03
					-1.43199000E-03	-2.18661000E-02	-7.82335000E-03
					-1.74925000E-03	-2.03252000E-02	-7.81541000E-03
					-1.19573000E-03	-1.44710000E-02	-6.57997000E-03
					-7.39290000E-04	-2.17806000E-02	-3.94977000E-03
					-1.59032000E-03	-2.11331000E-02	-7.85831000E-03
					-1.59310000E-03	-1.31230000E-02	-6.58240000E-03
					-8.99197000E-04	-2.02405000E-02	-3.97205000E-03
					-5.03361000E-05	-1.83726000E-02	-1.53099000E-04
					 1.95837000E-03	-1.85990000E-02	 7.46499000E-03
					-5.14819000E-05	-1.93411000E-02	-1.66924000E-04
					 1.80202000E-03	-1.95600000E-02	 7.43399000E-03
					-4.57941000E-05	-1.12295000E-02	-9.80483000E-05
					 9.57077000E-04	-1.84484000E-02	 3.65607000E-03
					 1.88386000E-03	-1.14766000E-02	 6.34169000E-03
					-2.05488000E-03	-1.84768000E-02	-7.77527000E-03
					-1.90198000E-03	-1.94362000E-02	-7.77206000E-03
					-1.97618000E-03	-1.13860000E-02	-6.54439000E-03
					-1.05660000E-03	-1.83880000E-02	-3.96321000E-03
					-4.59553000E-05	-3.97005000E-02	-3.85402000E-04
					 1.94713000E-03	-3.99130000E-02	 9.04621000E-03
					-4.53216000E-05	-3.75775000E-02	-3.38007000E-04
					 2.19873000E-03	-3.77985000E-02	 9.09893000E-03
					-5.08820000E-05	-3.02878000E-02	-2.85195000E-04
					 9.52091000E-04	-3.97744000E-02	 4.27678000E-03
					 1.61820000E-03	-3.04993000E-02	 8.29172000E-03
					-4.56678000E-05	-3.86698000E-02	-3.61536000E-04
					 2.07279000E-03	-3.88884000E-02	 9.11856000E-03
					-5.20714000E-05	-2.84791000E-02	-2.53043000E-04
					 1.07730000E-03	-3.76571000E-02	 4.37368000E-03
					 1.89194000E-03	-2.86978000E-02	 8.33255000E-03
					-2.04882000E-03	-3.97334000E-02	-9.82303000E-03
					-2.29411000E-03	-3.76057000E-02	-9.78035000E-03
					-1.72743000E-03	-3.03510000E-02	-8.86730000E-03
					-1.04648000E-03	-3.96866000E-02	-5.04854000E-03
					-2.17242000E-03	-3.86991000E-02	-9.84825000E-03
					-1.99776000E-03	-2.85388000E-02	-8.84273000E-03
					-1.16917000E-03	-3.75595000E-02	-5.05084000E-03
					-4.14797000E-05	-3.52092000E-02	-2.86674000E-04
					 2.45076000E-03	-3.54331000E-02	 9.14697000E-03
					-4.42808000E-05	-3.64243000E-02	-3.13518000E-04
					 2.32390000E-03	-3.66466000E-02	 9.07763000E-03
					-4.97548000E-05	-2.63990000E-02	-2.15002000E-04
					 1.20456000E-03	-3.52908000E-02	 4.46810000E-03
					 2.16219000E-03	-2.66235000E-02	 8.36428000E-03
					-2.53299000E-03	-3.52370000E-02	-9.72494000E-03
					-2.41356000E-03	-3.64527000E-02	-9.70851000E-03
					-2.25783000E-03	-2.64650000E-02	-8.79740000E-03
					-1.28713000E-03	-3.51907000E-02	-5.04304000E-03
					-2.56467000E-05	-6.10197000E-02	-6.33449000E-04
					 2.65583000E-03	-6.12374000E-02	 1.03239000E-02
					-2.07615000E-05	-5.82370000E-02	-5.61070000E-04
					 2.85254000E-03	-5.84622000E-02	 1.04073000E-02
					-3.58528000E-05	-4.99436000E-02	-5.01014000E-04
					 1.31634000E-03	-6.11017000E-02	 4.76680000E-03
					 2.28639000E-03	-5.01584000E-02	 9.73810000E-03
					-2.27550000E-05	-5.96525000E-02	-5.97991000E-04
					 2.75426000E-03	-5.98761000E-02	 1.04196000E-02
					-3.40906000E-05	-4.74989000E-02	-4.39989000E-04
					 1.41647000E-03	-5.83243000E-02	 4.89812000E-03
					 2.51953000E-03	-4.77231000E-02	 9.80568000E-03
					-2.71616000E-03	-6.09917000E-02	-1.15943000E-02
					-2.90209000E-03	-5.82043000E-02	-1.15336000E-02
					-2.36938000E-03	-4.99480000E-02	-1.07466000E-02
					-1.37015000E-03	-6.09834000E-02	-6.03520000E-03
					-2.80884000E-03	-5.96210000E-02	-1.16188000E-02
					-2.59554000E-03	-4.74982000E-02	-1.06916000E-02
					-1.46077000E-03	-5.81962000E-02	-6.02155000E-03
					-1.56128000E-05	-5.52671000E-02	-4.82825000E-04
					 3.04953000E-03	-5.54953000E-02	 1.04743000E-02
					-1.86494000E-05	-5.67764000E-02	-5.22514000E-04
					 2.95051000E-03	-5.70022000E-02	 1.03991000E-02
					-3.02583000E-05	-4.48301000E-02	-3.75182000E-04
					 1.51749000E-03	-5.53577000E-02	 5.01377000E-03
					 2.75429000E-03	-4.50566000E-02	 9.86587000E-03
					-3.08616000E-03	-5.52294000E-02	-1.14449000E-02
					-2.99481000E-03	-5.67421000E-02	-1.14489000E-02
					-2.81849000E-03	-4.48241000E-02	-1.06215000E-02
					-1.55035000E-03	-5.52227000E-02	-5.98077000E-03
					-1.76811000E-05	-8.49810000E-02	-9.19638000E-04
					 3.47118000E-03	-8.51743000E-02	 1.08785000E-02
					-2.19454000E-06	-8.14643000E-02	-8.32566000E-04
					 3.55234000E-03	-8.16490000E-02	 1.09739000E-02
					-2.00007000E-05	-7.28060000E-02	-7.75477000E-04
					 1.72435000E-03	-8.50692000E-02	 4.91353000E-03
					 3.06957000E-03	-7.30142000E-02	 1.06998000E-02
					-1.03918000E-05	-8.32322000E-02	-8.76794000E-04
					 3.51168000E-03	-8.34201000E-02	 1.09787000E-02
					-1.04219000E-05	-6.96537000E-02	-6.94328000E-04
					 1.77441000E-03	-8.15492000E-02	 5.05730000E-03
					 3.20606000E-03	-6.98619000E-02	 1.07934000E-02
					-3.50037000E-03	-8.48660000E-02	-1.27279000E-02
					-3.55843000E-03	-8.13470000E-02	-1.26493000E-02
					-3.11061000E-03	-7.27303000E-02	-1.22535000E-02
					-1.75878000E-03	-8.49170000E-02	-6.75675000E-03
					-3.52849000E-03	-8.31144000E-02	-1.27415000E-02
					-3.23109000E-03	-6.95751000E-02	-1.21866000E-02
					-1.77973000E-03	-8.13994000E-02	-6.72554000E-03
					 1.28244000E-05	-7.78675000E-02	-7.35702000E-04
					 3.63689000E-03	-7.80569000E-02	 1.10617000E-02
					 6.03410000E-06	-7.96735000E-02	-7.85362000E-04
					 3.59499000E-03	-7.98586000E-02	 1.09736000E-02
					-1.22222000E-06	-6.63701000E-02	-6.05542000E-04
					 1.82569000E-03	-7.79559000E-02	 5.19380000E-03
					 3.34190000E-03	-6.65824000E-02	 1.08669000E-02
					-3.62009000E-03	-7.77468000E-02	-1.25438000E-02
					-3.59014000E-03	-7.95569000E-02	-1.25540000E-02
					-3.35028000E-03	-6.62894000E-02	-1.20843000E-02
					-1.80232000E-03	-7.77981000E-02	-6.66927000E-03
					-2.11421000E-05	-1.09557000E-01	-1.22727000E-03
					 4.02385000E-03	-1.09738000E-01	 1.09054000E-02
					 7.08718000E-06	-1.05495000E-01	-1.12297000E-03
					 4.08743000E-03	-1.05669000E-01	 1.10225000E-02
					-1.80924000E-05	-9.72452000E-02	-1.06682000E-03
					 1.99803000E-03	-1.09640000E-01	 4.80990000E-03
					 3.78880000E-03	-9.74332000E-02	 1.09153000E-02
					-9.95432000E-06	-1.07535000E-01	-1.17608000E-03
					 4.05270000E-03	-1.07710000E-01	 1.09892000E-02
					 5.25627000E-06	-9.34203000E-02	-9.75027000E-04
					 2.04574000E-03	-1.05574000E-01	 4.95082000E-03
					 3.85279000E-03	-9.35967000E-02	 1.10123000E-02
					-4.06136000E-03	-1.09435000E-01	-1.33599000E-02
					-4.07992000E-03	-1.05368000E-01	-1.32664000E-02
					-3.81492000E-03	-9.71241000E-02	-1.30626000E-02
					-2.03904000E-03	-1.09495000E-01	-7.26188000E-03
					-4.07231000E-03	-1.07408000E-01	-1.33423000E-02
					-3.84575000E-03	-9.32977000E-02	-1.29745000E-02
					-2.03398000E-03	-1.05429000E-01	-7.19510000E-03
					 3.66023000E-05	-1.01384000E-01	-1.01902000E-03
					 4.16370000E-03	-1.01563000E-01	 1.11343000E-02
					 2.45561000E-05	-1.03442000E-01	-1.07077000E-03
					 4.12733000E-03	-1.03619000E-01	 1.10515000E-02
					 2.85070000E-05	-8.95385000E-02	-8.73097000E-04
					 2.09974000E-03	-1.01466000E-01	 5.08932000E-03
					 3.92514000E-03	-8.97209000E-02	 1.11141000E-02
					-4.10750000E-03	-1.01242000E-01	-1.31683000E-02
					-4.09186000E-03	-1.03312000E-01	-1.31904000E-02
					-3.88429000E-03	-8.94054000E-02	-1.28713000E-02
					-2.03148000E-03	-1.01308000E-01	-7.12420000E-03
					 3.35122000E-05	-1.34371000E-01	-1.57180000E-03
					 4.34696000E-03	-1.34557000E-01	 1.07352000E-02
					 3.14260000E-05	-1.30091000E-01	-1.42510000E-03
					 4.34814000E-03	-1.30293000E-01	 1.09248000E-02
					-9.30580000E-06	-1.21979000E-01	-1.40352000E-03
					 2.20103000E-03	-1.34462000E-01	 4.55880000E-03
					 4.20554000E-03	-1.22142000E-01	 1.08523000E-02
					 3.48031000E-05	-1.32225000E-01	-1.49346000E-03
					 4.34699000E-03	-1.32426000E-01	 1.08398000E-02
					 1.30176000E-05	-1.17748000E-01	-1.27400000E-03
					 2.19846000E-03	-1.30194000E-01	 4.73626000E-03
					 4.25370000E-03	-1.17923000E-01	 1.10124000E-02
					-4.31483000E-03	-1.34210000E-01	-1.38363000E-02
					-4.29777000E-03	-1.29906000E-01	-1.37324000E-02
					-4.24195000E-03	-1.21836000E-01	-1.36325000E-02
					-2.14304000E-03	-1.34290000E-01	-7.68900000E-03
					-4.30504000E-03	-1.32052000E-01	-1.37863000E-02
					-4.23798000E-03	-1.17594000E-01	-1.35314000E-02
					-2.13987000E-03	-1.29995000E-01	-7.57465000E-03
					 2.78786000E-05	-1.25793000E-01	-1.31916000E-03
					 4.37772000E-03	-1.25989000E-01	 1.10587000E-02
					 2.75749000E-05	-1.27950000E-01	-1.36814000E-03
					 4.36302000E-03	-1.28152000E-01	 1.09973000E-02
					 3.55395000E-05	-1.13486000E-01	-1.16951000E-03
					 2.20323000E-03	-1.25892000E-01	 4.86134000E-03
					 4.32133000E-03	-1.13662000E-01	 1.11374000E-02
					-4.30872000E-03	-1.25608000E-01	-1.36533000E-02
					-4.30507000E-03	-1.27762000E-01	-1.36914000E-02
					-4.25022000E-03	-1.13328000E-01	-1.34448000E-02
					-2.14466000E-03	-1.25697000E-01	-7.48620000E-03
					 0.00000000E+00	 0.00000000E+00	 0.00000000E+00
					 0.00000000E+00	 0.00000000E+00	 0.00000000E+00
					 7.05201000E-05	-8.63037000E-03	 3.63886000E-05
					-1.87608000E-03	-9.05638000E-03	 7.72062000E-03
					 0.00000000E+00	 0.00000000E+00	 0.00000000E+00
					 0.00000000E+00	 0.00000000E+00	 0.00000000E+00
					 9.08099000E-05	-1.01680000E-02	 7.04392000E-05
					-1.03687000E-03	-1.06307000E-02	 7.87621000E-03
					 0.00000000E+00	 0.00000000E+00	 0.00000000E+00
					 1.77192000E-05	-1.99404000E-03	 2.53107000E-05
					-9.03841000E-04	-8.68525000E-03	 3.78078000E-03
					-1.76072000E-03	-2.69319000E-03	 4.19438000E-03
					 0.00000000E+00	 0.00000000E+00	 0.00000000E+00
					 0.00000000E+00	 0.00000000E+00	 0.00000000E+00
					 7.98234000E-05	-9.54998000E-03	 5.32028000E-05
					-1.45007000E-03	-9.99329000E-03	 7.73562000E-03
					 0.00000000E+00	 0.00000000E+00	 0.00000000E+00
					 2.94758000E-05	-3.12334000E-03	 4.17209000E-05
					-4.73668000E-04	-1.02331000E-02	 3.80240000E-03
					-5.93027000E-04	-3.82371000E-03	 4.12677000E-03
					 0.00000000E+00	 0.00000000E+00	 0.00000000E+00
					 2.01321000E-03	-8.87873000E-03	-7.67120000E-03
					 0.00000000E+00	 0.00000000E+00	 0.00000000E+00
					 1.22253000E-03	-1.04463000E-02	-7.76155000E-03
					 0.00000000E+00	 0.00000000E+00	 0.00000000E+00
					 1.79254000E-03	-2.60040000E-03	-4.14901000E-03
					 1.04462000E-03	-8.59586000E-03	-3.71564000E-03
					 0.00000000E+00	 0.00000000E+00	 0.00000000E+00
					 1.61128000E-03	-9.81178000E-03	-7.65427000E-03
					 0.00000000E+00	 0.00000000E+00	 0.00000000E+00
					 6.53675000E-04	-3.72687000E-03	-4.04558000E-03
					 6.56596000E-04	-1.01437000E-02	-3.67109000E-03
					 0.00000000E+00	 0.00000000E+00	 0.00000000E+00
					 0.00000000E+00	 0.00000000E+00	 0.00000000E+00
					 1.14958000E-04	-1.08903000E-02	 1.19510000E-04
					-1.96099000E-04	-1.13191000E-02	 7.80551000E-03
					 0.00000000E+00	 0.00000000E+00	 0.00000000E+00
					 0.00000000E+00	 0.00000000E+00	 0.00000000E+00
					 1.01860000E-04	-1.06799000E-02	 8.92648000E-05
					-6.24257000E-04	-1.11213000E-02	 7.94169000E-03
					 0.00000000E+00	 0.00000000E+00	 0.00000000E+00
					 5.02133000E-05	-3.23968000E-03	 7.77591000E-05
					-3.84588000E-05	-1.09430000E-02	 3.69504000E-03
					 6.14910000E-04	-3.91357000E-03	 4.24783000E-03
					 0.00000000E+00	 0.00000000E+00	 0.00000000E+00
					 4.30469000E-04	-1.11379000E-02	-7.58898000E-03
					 0.00000000E+00	 0.00000000E+00	 0.00000000E+00
					 8.30974000E-04	-1.09398000E-02	-7.78807000E-03
					 0.00000000E+00	 0.00000000E+00	 0.00000000E+00
					-5.12914000E-04	-3.80540000E-03	-4.09612000E-03
					 2.71338000E-04	-1.08599000E-02	-3.46340000E-03
					 2.34147000E-04	-2.95777000E-02	-7.54235000E-05
					-1.93517000E-03	-2.99700000E-02	 1.18979000E-02
					 2.56486000E-04	-3.15111000E-02	-2.68694000E-05
					-1.44809000E-03	-3.19046000E-02	 1.19758000E-02
					 1.46293000E-04	-1.80689000E-02	 5.22162000E-06
					-8.53733000E-04	-2.97290000E-02	 5.86615000E-03
					-1.96752000E-03	-1.85447000E-02	 1.01573000E-02
					 2.44856000E-04	-3.05903000E-02	-5.33714000E-05
					-1.69175000E-03	-3.09793000E-02	 1.19311000E-02
					 1.66010000E-04	-1.98638000E-02	 4.55747000E-05
					-5.90568000E-04	-3.16642000E-02	 5.92826000E-03
					-1.30722000E-03	-2.03432000E-02	 1.02450000E-02
					 2.40284000E-03	-2.96382000E-02	-1.20643000E-02
					 1.95192000E-03	-3.15746000E-02	-1.20445000E-02
					 2.25251000E-03	-1.82925000E-02	-1.01733000E-02
					 1.32114000E-03	-2.95662000E-02	-6.02133000E-03
					 2.17881000E-03	-3.06534000E-02	-1.20505000E-02
					 1.63731000E-03	-2.00859000E-02	-1.01784000E-02
					 1.10546000E-03	-3.15023000E-02	-5.98276000E-03
					 2.74194000E-04	-3.29790000E-02	 2.92043000E-05
					-9.42560000E-04	-3.33580000E-02	 1.20011000E-02
					 2.65650000E-04	-3.22881000E-02	 2.12374000E-06
					-1.19447000E-03	-3.27043000E-02	 1.20195000E-02
					 1.89013000E-04	-2.10174000E-02	 9.80690000E-05
					-3.37380000E-04	-3.31209000E-02	 5.93974000E-03
					-6.63214000E-04	-2.15137000E-02	 1.02522000E-02
					 1.51005000E-03	-3.30394000E-02	-1.19595000E-02
					 1.73097000E-03	-3.23509000E-02	-1.20336000E-02
					 1.05388000E-03	-2.12628000E-02	-1.00768000E-02
					 8.90833000E-04	-3.29644000E-02	-5.88141000E-03
					 4.58517000E-04	-5.65557000E-02	-3.52843000E-04
					-2.05496000E-03	-5.68445000E-02	 1.39508000E-02
					 4.76096000E-04	-5.89255000E-02	-2.86029000E-04
					-1.79799000E-03	-5.93235000E-02	 1.40470000E-02
					 3.41133000E-04	-4.25164000E-02	-1.94509000E-04
					-7.92895000E-04	-5.66672000E-02	 6.77891000E-03
					-1.94170000E-03	-4.28914000E-02	 1.31482000E-02
					 4.69027000E-04	-5.77755000E-02	-3.17040000E-04
					-1.92853000E-03	-5.81304000E-02	 1.39462000E-02
					 3.58964000E-04	-4.46228000E-02	-1.39345000E-04
					-6.83913000E-04	-5.90945000E-02	 6.79592000E-03
					-1.57415000E-03	-4.50009000E-02	 1.32343000E-02
					 2.92882000E-03	-5.64458000E-02	-1.46476000E-02
					 2.74734000E-03	-5.88226000E-02	-1.46440000E-02
					 2.61479000E-03	-4.25001000E-02	-1.35465000E-02
					 1.69583000E-03	-5.64709000E-02	-7.47487000E-03
					 2.83596000E-03	-5.76610000E-02	-1.45998000E-02
					 2.29206000E-03	-4.45910000E-02	-1.35243000E-02
					 1.61237000E-03	-5.88487000E-02	-7.38933000E-03
					 4.89860000E-04	-6.10932000E-02	-2.15406000E-04
					-1.62714000E-03	-6.15973000E-02	 1.40848000E-02
					 4.82311000E-04	-6.00519000E-02	-2.53400000E-04
					-1.71502000E-03	-6.03796000E-02	 1.41583000E-02
					 3.83381000E-04	-4.63805000E-02	-7.87370000E-05
					-5.41313000E-04	-6.13179000E-02	 6.75455000E-03
					-1.21802000E-03	-4.67755000E-02	 1.32675000E-02
					 2.56612000E-03	-6.10086000E-02	-1.45667000E-02
					 2.65562000E-03	-5.99410000E-02	-1.46924000E-02
					 1.94483000E-03	-4.63351000E-02	-1.34401000E-02
					 1.52303000E-03	-6.10363000E-02	-7.22984000E-03
					 8.16833000E-04	-8.58972000E-02	-7.31080000E-04
					-2.35842000E-03	-8.59589000E-02	 1.37830000E-02