# vtk DataFile Version 3.0

ASCII
DATASET UNSTRUCTURED_GRID

POINTS 522 double
	 1.00000000E+00	 1.00000000E+00	-5.96046000E-08
	 1.00000000E+00	 5.00000000E-01	-5.96046000E-08
	 1.00000000E+00	 5.00000000E-01	 1.00000000E+00
	 1.00000000E+00	 1.00000000E+00	 1.00000000E+00
	 5.00000000E-01	 1.00000000E+00	-5.96046000E-08
	 5.00000000E-01	 5.00000000E-01	-5.96046000E-08
	 5.00000000E-01	 5.00000000E-01	 1.00000000E+00
	 5.00000000E-01	 1.00000000E+00	 1.00000000E+00
	 1.00000000E+00	 7.50000000E-01	-5.96046000E-08
	 1.00000000E+00	 5.00000000E-01	 5.00000000E-01
	 1.00000000E+00	 7.50000000E-01	 1.00000000E+00
	 1.00000000E+00	 1.00000000E+00	 5.00000000E-01
	 7.50000000E-01	 1.00000000E+00	-5.96046000E-08
	 7.50000000E-01	 5.00000000E-01	-5.96046000E-08
	 7.50000000E-01	 5.00000000E-01	 1.00000000E+00
	 7.50000000E-01	 1.00000000E+00	 1.00000000E+00
	 5.00000000E-01	 7.50000000E-01	-5.96046000E-08
	 5.00000000E-01	 5.00000000E-01	 5.00000000E-01
	 5.00000000E-01	 7.50000000E-01	 1.00000000E+00
	 5.00000000E-01	 1.00000000E+00	 5.00000000E-01
	 1.00000000E+00	-1.49012000E-08	-5.96046000E-08
	 1.00000000E+00	-1.49012000E-08	 1.00000000E+00
	 5.00000000E-01	-1.49012000E-08	-5.96046000E-08
	 5.00000000E-01	-1.49012000E-08	 1.00000000E+00
	 1.00000000E+00	 2.50000000E-01	-5.96046000E-08
	 1.00000000E+00	-1.49012000E-08	 5.00000000E-01
	 1.00000000E+00	 2.50000000E-01	 1.00000000E+00
	 7.50000000E-01	-1.49012000E-08	-5.96046000E-08
	 7.50000000E-01	-1.49012000E-08	 1.00000000E+00
	 5.00000000E-01	 2.50000000E-01	-5.96046000E-08
	 5.00000000E-01	-1.49012000E-08	 5.00000000E-01
	 5.00000000E-01	 2.50000000E-01	 1.00000000E+00
	-7.45058000E-09	 1.00000000E+00	-5.96046000E-08
	-7.45058000E-09	 5.00000000E-01	-5.96046000E-08
	-7.45058000E-09	 5.00000000E-01	 1.00000000E+00
	-7.45058000E-09	 1.00000000E+00	 1.00000000E+00
	 2.50000000E-01	 1.00000000E+00	-5.96046000E-08
	 2.50000000E-01	 5.00000000E-01	-5.96046000E-08
	 2.50000000E-01	 5.00000000E-01	 1.00000000E+00
	 2.50000000E-01	 1.00000000E+00	 1.00000000E+00
	-7.45058000E-09	 7.50000000E-01	-5.96046000E-08
	-7.45058000E-09	 5.00000000E-01	 5.00000000E-01
	-7.45058000E-09	 7.50000000E-01	 1.00000000E+00
	-7.45058000E-09	 1.00000000E+00	 5.00000000E-01
	-7.45058000E-09	-1.49012000E-08	-5.96046000E-08
	-7.45058000E-09	-1.49012000E-08	 1.00000000E+00
	 2.50000000E-01	-1.49012000E-08	-5.96046000E-08
	 2.50000000E-01	-1.49012000E-08	 1.00000000E+00
	-7.45058000E-09	 2.50000000E-01	-5.96046000E-08
	-7.45058000E-09	-1.49012000E-08	 5.00000000E-01
	-7.45058000E-09	 2.50000000E-01	 1.00000000E+00
	 1.00000000E+00	 5.00000000E-01	 2.00000000E+00
	 1.00000000E+00	 1.00000000E+00	 2.00000000E+00
	 5.00000000E-01	 5.00000000E-01	 2.00000000E+00
	 5.00000000E-01	 1.00000000E+00	 2.00000000E+00
	 1.00000000E+00	 5.00000000E-01	 1.50000000E+00
	 1.00000000E+00	 7.50000000E-01	 2.00000000E+00
	 1.00000000E+00	 1.00000000E+00	 1.50000000E+00
	 7.50000000E-01	 5.00000000E-01	 2.00000000E+00
	 7.50000000E-01	 1.00000000E+00	 2.00000000E+00
	 5.00000000E-01	 5.00000000E-01	 1.50000000E+00
	 5.00000000E-01	 7.50000000E-01	 2.00000000E+00
	 5.00000000E-01	 1.00000000E+00	 1.50000000E+00
	 1.00000000E+00	-1.49012000E-08	 2.00000000E+00
	 5.00000000E-01	-1.49012000E-08	 2.00000000E+00
	 1.00000000E+00	-1.49012000E-08	 1.50000000E+00
	 1.00000000E+00	 2.50000000E-01	 2.00000000E+00
	 7.50000000E-01	-1.49012000E-08	 2.00000000E+00
	 5.00000000E-01	-1.49012000E-08	 1.50000000E+00
	 5.00000000E-01	 2.50000000E-01	 2.00000000E+00
	-7.45058000E-09	 5.00000000E-01	 2.00000000E+00
	-7.45058000E-09	 1.00000000E+00	 2.00000000E+00
	 2.50000000E-01	 5.00000000E-01	 2.00000000E+00
	 2.50000000E-01	 1.00000000E+00	 2.00000000E+00
	-7.45058000E-09	 5.00000000E-01	 1.50000000E+00
	-7.45058000E-09	 7.50000000E-01	 2.00000000E+00
	-7.45058000E-09	 1.00000000E+00	 1.50000000E+00
	-7.45058000E-09	-1.49012000E-08	 2.00000000E+00
	 2.50000000E-01	-1.49012000E-08	 2.00000000E+00
	-7.45058000E-09	-1.49012000E-08	 1.50000000E+00
	-7.45058000E-09	 2.50000000E-01	 2.00000000E+00
	 1.00000000E+00	 5.00000000E-01	 3.00000000E+00
	 1.00000000E+00	 1.00000000E+00	 3.00000000E+00
	 5.00000000E-01	 5.00000000E-01	 3.00000000E+00
	 5.00000000E-01	 1.00000000E+00	 3.00000000E+00
	 1.00000000E+00	 5.00000000E-01	 2.50000000E+00
	 1.00000000E+00	 7.50000000E-01	 3.00000000E+00
	 1.00000000E+00	 1.00000000E+00	 2.50000000E+00
	 7.50000000E-01	 5.00000000E-01	 3.00000000E+00
	 7.50000000E-01	 1.00000000E+00	 3.00000000E+00
	 5.00000000E-01	 5.00000000E-01	 2.50000000E+00
	 5.00000000E-01	 7.50000000E-01	 3.00000000E+00
	 5.00000000E-01	 1.00000000E+00	 2.50000000E+00
	 1.00000000E+00	-1.49012000E-08	 3.00000000E+00
	 5.00000000E-01	-1.49012000E-08	 3.00000000E+00
	 1.00000000E+00	-1.49012000E-08	 2.50000000E+00
	 1.00000000E+00	 2.50000000E-01	 3.00000000E+00
	 7.50000000E-01	-1.49012000E-08	 3.00000000E+00
	 5.00000000E-01	-1.49012000E-08	 2.50000000E+00
	 5.00000000E-01	 2.50000000E-01	 3.00000000E+00
	-7.45058000E-09	 5.00000000E-01	 3.00000000E+00
	-7.45058000E-09	 1.00000000E+00	 3.00000000E+00
	 2.50000000E-01	 5.00000000E-01	 3.00000000E+00
	 2.50000000E-01	 1.00000000E+00	 3.00000000E+00
	-7.45058000E-09	 5.00000000E-01	 2.50000000E+00
	-7.45058000E-09	 7.50000000E-01	 3.00000000E+00
	-7.45058000E-09	 1.00000000E+00	 2.50000000E+00
	-7.45058000E-09	-1.49012000E-08	 3.00000000E+00
	 2.50000000E-01	-1.49012000E-08	 3.00000000E+00
	-7.45058000E-09	-1.49012000E-08	 2.50000000E+00
	-7.45058000E-09	 2.50000000E-01	 3.00000000E+00
	 1.00000000E+00	 5.00000000E-01	 4.00000000E+00
	 1.00000000E+00	 1.00000000E+00	 4.00000000E+00
	 5.00000000E-01	 5.00000000E-01	 4.00000000E+00
	 5.00000000E-01	 1.00000000E+00	 4.00000000E+00
	 1.00000000E+00	 5.00000000E-01	 3.50000000E+00
	 1.00000000E+00	 7.50000000E-01	 4.00000000E+00
	 1.00000000E+00	 1.00000000E+00	 3.50000000E+00
	 7.50000000E-01	 5.00000000E-01	 4.00000000E+00
	 7.50000000E-01	 1.00000000E+00	 4.00000000E+00
	 5.00000000E-01	 5.00000000E-01	 3.50000000E+00
	 5.00000000E-01	 7.50000000E-01	 4.00000000E+00
	 5.00000000E-01	 1.00000000E+00	 3.50000000E+00
	 1.00000000E+00	-1.49012000E-08	 4.00000000E+00
	 5.00000000E-01	-1.49012000E-08	 4.00000000E+00
	 1.00000000E+00	-1.49012000E-08	 3.50000000E+00
	 1.00000000E+00	 2.50000000E-01	 4.00000000E+00
	 7.50000000E-01	-1.49012000E-08	 4.00000000E+00
	 5.00000000E-01	-1.49012000E-08	 3.50000000E+00
	 5.00000000E-01	 2.50000000E-01	 4.00000000E+00
	-7.45058000E-09	 5.00000000E-01	 4.00000000E+00
	-7.45058000E-09	 1.00000000E+00	 4.00000000E+00
	 2.50000000E-01	 5.00000000E-01	 4.00000000E+00
	 2.50000000E-01	 1.00000000E+00	 4.00000000E+00
	-7.45058000E-09	 5.00000000E-01	 3.50000000E+00
	-7.45058000E-09	 7.50000000E-01	 4.00000000E+00
	-7.45058000E-09	 1.00000000E+00	 3.50000000E+00
	-7.45058000E-09	-1.49012000E-08	 4.00000000E+00
	 2.50000000E-01	-1.49012000E-08	 4.00000000E+00
	-7.45058000E-09	-1.49012000E-08	 3.50000000E+00
	-7.45058000E-09	 2.50000000E-01	 4.00000000E+00
	 1.00000000E+00	 5.00000000E-01	 5.00000000E+00
	 1.00000000E+00	 1.00000000E+00	 5.00000000E+00
	 5.00000000E-01	 5.00000000E-01	 5.00000000E+00
	 5.00000000E-01	 1.00000000E+00	 5.00000000E+00
	 1.00000000E+00	 5.00000000E-01	 4.50000000E+00
	 1.00000000E+00	 7.50000000E-01	 5.00000000E+00
	 1.00000000E+00	 1.00000000E+00	 4.50000000E+00
	 7.50000000E-01	 5.00000000E-01	 5.00000000E+00
	 7.50000000E-01	 1.00000000E+00	 5.00000000E+00
	 5.00000000E-01	 5.00000000E-01	 4.50000000E+00
	 5.00000000E-01	 7.50000000E-01	 5.00000000E+00
	 5.00000000E-01	 1.00000000E+00	 4.50000000E+00
	 1.00000000E+00	-1.49012000E-08	 5.00000000E+00
	 5.00000000E-01	-1.49012000E-08	 5.00000000E+00
	 1.00000000E+00	-1.49012000E-08	 4.50000000E+00
	 1.00000000E+00	 2.50000000E-01	 5.00000000E+00
	 7.50000000E-01	-1.49012000E-08	 5.00000000E+00
	 5.00000000E-01	-1.49012000E-08	 4.50000000E+00
	 5.00000000E-01	 2.50000000E-01	 5.00000000E+00
	-7.45058000E-09	 5.00000000E-01	 5.00000000E+00
	-7.45058000E-09	 1.00000000E+00	 5.00000000E+00
	 2.50000000E-01	 5.00000000E-01	 5.00000000E+00
	 2.50000000E-01	 1.00000000E+00	 5.00000000E+00
	-7.45058000E-09	 5.00000000E-01	 4.50000000E+00
	-7.45058000E-09	 7.50000000E-01	 5.00000000E+00
	-7.45058000E-09	 1.00000000E+00	 4.50000000E+00
	-7.45058000E-09	-1.49012000E-08	 5.00000000E+00
	 2.50000000E-01	-1.49012000E-08	 5.00000000E+00
	-7.45058000E-09	-1.49012000E-08	 4.50000000E+00
	-7.45058000E-09	 2.50000000E-01	 5.00000000E+00
	 1.00000000E+00	 5.00000000E-01	 6.00000000E+00
	 1.00000000E+00	 1.00000000E+00	 6.00000000E+00
	 5.00000000E-01	 5.00000000E-01	 6.00000000E+00
	 5.00000000E-01	 1.00000000E+00	 6.00000000E+00
	 1.00000000E+00	 5.00000000E-01	 5.50000000E+00
	 1.00000000E+00	 7.50000000E-01	 6.00000000E+00
	 1.00000000E+00	 1.00000000E+00	 5.50000000E+00
	 7.50000000E-01	 5.00000000E-01	 6.00000000E+00
	 7.50000000E-01	 1.00000000E+00	 6.00000000E+00
	 5.00000000E-01	 5.00000000E-01	 5.50000000E+00
	 5.00000000E-01	 7.50000000E-01	 6.00000000E+00
	 5.00000000E-01	 1.00000000E+00	 5.50000000E+00
	 1.00000000E+00	-1.49012000E-08	 6.00000000E+00
	 5.00000000E-01	-1.49012000E-08	 6.00000000E+00
	 1.00000000E+00	-1.49012000E-08	 5.50000000E+00
	 1.00000000E+00	 2.50000000E-01	 6.00000000E+00
	 7.50000000E-01	-1.49012000E-08	 6.00000000E+00
	 5.00000000E-01	-1.49012000E-08	 5.50000000E+00
	 5.00000000E-01	 2.50000000E-01	 6.00000000E+00
	-7.45058000E-09	 5.00000000E-01	 6.00000000E+00
	-7.45058000E-09	 1.00000000E+00	 6.00000000E+00
	 2.50000000E-01	 5.00000000E-01	 6.00000000E+00
	 2.50000000E-01	 1.00000000E+00	 6.00000000E+00
	-7.45058000E-09	 5.00000000E-01	 5.50000000E+00
	-7.45058000E-09	 7.50000000E-01	 6.00000000E+00
	-7.45058000E-09	 1.00000000E+00	 5.50000000E+00
	-7.45058000E-09	-1.49012000E-08	 6.00000000E+00
	 2.50000000E-01	-1.49012000E-08	 6.00000000E+00
	-7.45058000E-09	-1.49012000E-08	 5.50000000E+00
	-7.45058000E-09	 2.50000000E-01	 6.00000000E+00
	 1.00000000E+00	 5.00000000E-01	 7.00000000E+00
[...]
POINT_DATA 522
FIELD U 1
	U 3 522 double
		 0.00000000E+00	 0.00000000E+00	 0.00000000E+00
		 0.00000000E+00	 0.00000000E+00	 0.00000000E+00
		 1.66024000E-05	-3.81569000E-03	-1.10938000E-05
		 3.90439000E-05	-3.86474000E-03	 2.22320000E-03
		 0.00000000E+00	 0.00000000E+00	 0.00000000E+00
		 0.00000000E+00	 0.00000000E+00	 0.00000000E+00
		 1.82646000E-05	-3.72499000E-03	-4.12449000E-06
		 1.84614000E-04	-3.78465000E-03	 2.28156000E-03
		 0.00000000E+00	 0.00000000E+00	 0.00000000E+00
		 8.00910000E-06	-1.27133000E-03	-5.35213000E-06
		 2.83696000E-05	-3.80244000E-03	 9.90032000E-04
		-2.50892000E-04	-1.44806000E-03	 1.34072000E-03
		 0.00000000E+00	 0.00000000E+00	 0.00000000E+00
		 0.00000000E+00	 0.00000000E+00	 0.00000000E+00
		 1.75426000E-05	-3.80433000E-03	-7.51369000E-06
		 1.13638000E-04	-3.85967000E-03	 2.28345000E-03
		 0.00000000E+00	 0.00000000E+00	 0.00000000E+00
		 8.12832000E-06	-1.32508000E-03	-4.16397000E-07
		 1.01526000E-04	-3.71576000E-03	 1.04799000E-03
		 9.45329000E-05	-1.51489000E-03	 1.33211000E-03
		 0.00000000E+00	 0.00000000E+00	 0.00000000E+00
		-8.03462000E-06	-3.85546000E-03	-2.24715000E-03
		 0.00000000E+00	 0.00000000E+00	 0.00000000E+00
		-1.50941000E-04	-3.77334000E-03	-2.29252000E-03
		 0.00000000E+00	 0.00000000E+00	 0.00000000E+00
		 2.64391000E-04	-1.44571000E-03	-1.35378000E-03
		 4.15949000E-06	-3.79933000E-03	-1.01272000E-03
		 0.00000000E+00	 0.00000000E+00	 0.00000000E+00
		-8.11271000E-05	-3.84891000E-03	-2.30066000E-03
		 0.00000000E+00	 0.00000000E+00	 0.00000000E+00
		-8.11700000E-05	-1.50882000E-03	-1.33480000E-03
		-6.60611000E-05	-3.71084000E-03	-1.05697000E-03
		 0.00000000E+00	 0.00000000E+00	 0.00000000E+00
		 0.00000000E+00	 0.00000000E+00	 0.00000000E+00
		 1.79602000E-05	-3.48086000E-03	 3.53076000E-06
		 3.25828000E-04	-3.53465000E-03	 2.23633000E-03
		 0.00000000E+00	 0.00000000E+00	 0.00000000E+00
		 0.00000000E+00	 0.00000000E+00	 0.00000000E+00
		 1.83291000E-05	-3.63756000E-03	-7.37044000E-07
		 2.53330000E-04	-3.69363000E-03	 2.26004000E-03
		 0.00000000E+00	 0.00000000E+00	 0.00000000E+00
		 8.92455000E-06	-1.09604000E-03	 5.90339000E-06
		 1.72744000E-04	-3.47105000E-03	 1.03314000E-03
		 4.34774000E-04	-1.28301000E-03	 1.35223000E-03
		 0.00000000E+00	 0.00000000E+00	 0.00000000E+00
		-2.92400000E-04	-3.52163000E-03	-2.23241000E-03
		 0.00000000E+00	 0.00000000E+00	 0.00000000E+00
		-2.19775000E-04	-3.68173000E-03	-2.26446000E-03
		 0.00000000E+00	 0.00000000E+00	 0.00000000E+00
		-4.19540000E-04	-1.27246000E-03	-1.34196000E-03
		-1.37475000E-04	-3.46448000E-03	-1.02688000E-03
		 1.91870000E-05	-9.57161000E-03	-2.28776000E-05
		 3.68289000E-04	-9.58255000E-03	 2.59814000E-03
		 2.00542000E-05	-9.22567000E-03	-2.16552000E-05
		 3.71534000E-04	-9.23270000E-03	 2.60331000E-03
		 2.08187000E-05	-6.68682000E-03	-1.58653000E-05
		 1.89995000E-04	-9.58377000E-03	 1.26904000E-03
		 2.23343000E-04	-6.74859000E-03	 2.53874000E-03
		 1.96860000E-05	-9.39477000E-03	-2.25518000E-05
		 3.69109000E-04	-9.40095000E-03	 2.61479000E-03
		 2.20879000E-05	-6.46625000E-03	-1.17563000E-05
		 1.95615000E-04	-9.23744000E-03	 1.28734000E-03
		 2.74592000E-04	-6.51950000E-03	 2.55910000E-03
		-3.30072000E-04	-9.57150000E-03	-2.64353000E-03
		-3.32511000E-04	-9.22224000E-03	-2.64624000E-03
		-1.82621000E-04	-6.73742000E-03	-2.57202000E-03
		-1.51783000E-04	-9.57924000E-03	-1.31451000E-03
		-3.30456000E-04	-9.38992000E-03	-2.65956000E-03
		-2.32405000E-04	-6.50843000E-03	-2.58466000E-03
		-1.56169000E-04	-9.23286000E-03	-1.33055000E-03
		 1.93921000E-05	-8.86660000E-03	-2.14687000E-05
		 3.71953000E-04	-8.87857000E-03	 2.59787000E-03
		 2.01201000E-05	-9.04183000E-03	-2.10187000E-05
		 3.72902000E-04	-9.04852000E-03	 2.58848000E-03
		 2.16094000E-05	-6.18006000E-03	-7.55860000E-06
		 1.99056000E-04	-8.87957000E-03	 1.29600000E-03
		 3.24842000E-04	-6.24177000E-03	 2.54489000E-03
		-3.34754000E-04	-8.86772000E-03	-2.64055000E-03
		-3.34177000E-04	-9.03837000E-03	-2.63033000E-03
		-2.83707000E-04	-6.22968000E-03	-2.56266000E-03
		-1.60934000E-04	-8.87436000E-03	-1.33878000E-03
		 1.62063000E-05	-1.50197000E-02	-4.07185000E-05
		 5.67670000E-04	-1.50401000E-02	 2.64397000E-03
		 1.41161000E-05	-1.44492000E-02	-4.24785000E-05
		 5.99247000E-04	-1.44734000E-02	 2.63539000E-03
		 1.78670000E-05	-1.23091000E-02	-3.19466000E-05
		 2.93033000E-04	-1.50248000E-02	 1.29871000E-03
		 4.64096000E-04	-1.23239000E-02	 2.60147000E-03
		 1.57923000E-05	-1.47388000E-02	-4.11655000E-05
		 5.83866000E-04	-1.47627000E-02	 2.65757000E-03
		 1.74993000E-05	-1.18577000E-02	-3.19447000E-05
		 3.06002000E-04	-1.44569000E-02	 1.31134000E-03
		 4.74564000E-04	-1.18710000E-02	 2.59893000E-03
		-5.39567000E-04	-1.50272000E-02	-2.72335000E-03
		-5.72548000E-04	-1.44568000E-02	-2.71843000E-03
		-4.30774000E-04	-1.23131000E-02	-2.66336000E-03
		-2.61908000E-04	-1.50184000E-02	-1.37945000E-03
		-5.55910000E-04	-1.47470000E-02	-2.73794000E-03
		-4.40858000E-04	-1.18584000E-02	-2.66055000E-03
		-2.78485000E-04	-1.44475000E-02	-1.39570000E-03
		 1.04267000E-05	-1.38469000E-02	-4.64006000E-05
		 6.23950000E-04	-1.38728000E-02	 2.63731000E-03
		 1.20134000E-05	-1.41527000E-02	-4.44423000E-05
		 6.10925000E-04	-1.41767000E-02	 2.61028000E-03
		 1.54900000E-05	-1.13924000E-02	-3.42570000E-05
		 3.17494000E-04	-1.38557000E-02	 1.33552000E-03
		 4.79680000E-04	-1.14109000E-02	 2.59820000E-03
		-6.01216000E-04	-1.38587000E-02	-2.72835000E-03
		-5.86289000E-04	-1.41611000E-02	-2.69749000E-03
		-4.48337000E-04	-1.13994000E-02	-2.66427000E-03
		-2.96224000E-04	-1.38475000E-02	-1.42767000E-03
		-1.20996000E-06	-2.09542000E-02	-6.37744000E-05
		 8.89717000E-04	-2.10222000E-02	 3.12256000E-03
		-4.76970000E-06	-2.00001000E-02	-6.84452000E-05
		 1.00650000E-03	-2.00707000E-02	 3.11188000E-03
		 9.48502000E-06	-1.78325000E-02	-5.00957000E-05
		 4.45380000E-04	-2.09727000E-02	 1.50547000E-03
		 7.01617000E-04	-1.78736000E-02	 2.81873000E-03
		-2.52897000E-06	-2.04925000E-02	-6.63791000E-05
		 9.48249000E-04	-2.05628000E-02	 3.15209000E-03
		 6.03506000E-06	-1.70960000E-02	-5.40991000E-05
		 5.01079000E-04	-2.00199000E-02	 1.53358000E-03
		 7.78486000E-04	-1.71433000E-02	 2.80348000E-03
		-8.95765000E-04	-2.10024000E-02	-3.25218000E-03
		-1.01614000E-03	-2.00473000E-02	-3.25076000E-03
		-6.86498000E-04	-1.78570000E-02	-2.91861000E-03
		-4.48815000E-04	-2.09626000E-02	-1.63341000E-03
		-9.55702000E-04	-2.05400000E-02	-3.28702000E-03
		-7.67154000E-04	-1.71234000E-02	-2.91189000E-03
		-5.10643000E-04	-2.00071000E-02	-1.67097000E-03
		-8.04452000E-06	-1.89314000E-02	-7.19219000E-05
		 1.12785000E-03	-1.89954000E-02	 3.11437000E-03
		-6.95390000E-06	-1.94809000E-02	-7.01884000E-05
		 1.06712000E-03	-1.95495000E-02	 3.06963000E-03
		 2.03938000E-06	-1.62858000E-02	-5.85741000E-05
		 5.58310000E-04	-1.89481000E-02	 1.57542000E-03
		 8.46859000E-04	-1.63350000E-02	 2.80931000E-03
		-1.14037000E-03	-1.89754000E-02	-3.26005000E-03
		-1.07877000E-03	-1.95276000E-02	-3.21181000E-03
		-8.40026000E-04	-1.63180000E-02	-2.92722000E-03
		-5.73378000E-04	-1.89371000E-02	-1.71980000E-03
		-2.45931000E-05	-2.85469000E-02	-1.07492000E-04
		 1.19015000E-03	-2.86140000E-02	 3.89729000E-03
		-2.62082000E-05	-2.72850000E-02	-1.09734000E-04
		 1.28169000E-03	-2.73498000E-02	 3.90311000E-03
		-1.27933000E-05	-2.45447000E-02	-8.35465000E-05
		 5.82557000E-04	-2.85671000E-02	 1.86950000E-03
		 1.08619000E-03	-2.46172000E-02	 3.52820000E-03
		-2.49373000E-05	-2.79298000E-02	-1.08688000E-04
		 1.23648000E-03	-2.79942000E-02	 3.90752000E-03
		-1.53923000E-05	-2.33857000E-02	-8.70107000E-05
		 6.28938000E-04	-2.73039000E-02	 1.87743000E-03
		 1.20443000E-03	-2.34561000E-02	 3.52737000E-03
		-1.24492000E-03	-2.85863000E-02	-4.11417000E-03
		-1.33693000E-03	-2.73159000E-02	-4.12428000E-03
		-1.11656000E-03	-2.45940000E-02	-3.69832000E-03
		-6.33409000E-04	-2.85542000E-02	-2.08517000E-03
		-1.29136000E-03	-2.79625000E-02	-4.12665000E-03
		-1.23656000E-03	-2.34276000E-02	-3.70363000E-03
		-6.82434000E-04	-2.72867000E-02	-2.09738000E-03
		-2.83760000E-05	-2.59279000E-02	-1.10156000E-04
		 1.38834000E-03	-2.59827000E-02	 3.89309000E-03
		-2.75644000E-05	-2.66183000E-02	-1.10275000E-04
		 1.33554000E-03	-2.66822000E-02	 3.90172000E-03
		-1.80317000E-05	-2.21046000E-02	-8.86278000E-05
		 6.76838000E-04	-2.59414000E-02	 1.86923000E-03
		 1.33969000E-03	-2.21619000E-02	 3.52306000E-03
		-1.44434000E-03	-2.59490000E-02	-4.11482000E-03
		-1.39124000E-03	-2.66478000E-02	-4.12369000E-03
		-1.37318000E-03	-2.21353000E-02	-3.70162000E-03
		-7.33506000E-04	-2.59244000E-02	-2.09000000E-03
		-5.37114000E-05	-3.70619000E-02	-1.55000000E-04
		 1.01400000E-03	-3.70846000E-02	 4.18145000E-03
		-5.40611000E-05	-3.59903000E-02	-1.60213000E-04
		 1.01546000E-03	-3.60120000E-02	 4.18546000E-03
		-3.79656000E-05	-3.27811000E-02	-1.31627000E-04
		 4.79065000E-04	-3.70735000E-02	 2.02347000E-03
		 1.16487000E-03	-3.28306000E-02	 4.11097000E-03
		-5.37634000E-05	-3.65270000E-02	-1.57929000E-04
		 1.01474000E-03	-3.65481000E-02	 4.15428000E-03
		-3.88360000E-05	-3.15582000E-02	-1.34911000E-04
		 4.80100000E-04	-3.60014000E-02	 1.99328000E-03
		 1.20582000E-03	-3.16017000E-02	 4.11743000E-03
		-1.12480000E-03	-3.70504000E-02	-4.49116000E-03
		-1.12594000E-03	-3.59742000E-02	-4.50507000E-03
		-1.24491000E-03	-3.27978000E-02	-4.37483000E-03
		-5.87396000E-04	-3.70567000E-02	-2.33337000E-03
		-1.12557000E-03	-3.65118000E-02	-4.46971000E-03
		-1.28589000E-03	-3.15647000E-02	-4.38802000E-03
		-5.89185000E-04	-3.59827000E-02	-2.31349000E-03
		-5.49426000E-05	-3.49152000E-02	-1.64480000E-04
		 1.01906000E-03	-3.49368000E-02	 4.17258000E-03
		-5.45664000E-05	-3.54519000E-02	-1.62198000E-04
		 1.01717000E-03	-3.54738000E-02	 4.21866000E-03
		-4.03654000E-05	-3.02869000E-02	-1.36577000E-04
		 4.82309000E-04	-3.49257000E-02	 1.94637000E-03
		 1.26211000E-03	-3.03221000E-02	 4.10412000E-03
		-1.12981000E-03	-3.48981000E-02	-4.50018000E-03
		-1.12773000E-03	-3.54348000E-02	-4.54189000E-03
		-1.34280000E-03	-3.02853000E-02	-4.37821000E-03
		-5.92612000E-04	-3.49074000E-02	-2.27495000E-03
		-7.30828000E-05	-4.54649000E-02	-1.99382000E-04
		 7.22261000E-04	-4.54502000E-02	 3.90538000E-03
		-7.28322000E-05	-4.46917000E-02	-2.04184000E-04
		 6.64878000E-04	-4.46803000E-02	 3.91043000E-03
		-6.64787000E-05	-4.13144000E-02	-1.79229000E-04
		 3.23883000E-04	-4.54659000E-02	 1.86001000E-03
		 8.35317000E-04	-4.13142000E-02	 4.09345000E-03
		-7.26309000E-05	-4.50725000E-02	-2.00647000E-04
		 6.93343000E-04	-4.50593000E-02	 3.89535000E-03
		-6.66090000E-05	-4.04195000E-02	-1.83693000E-04
		 2.93566000E-04	-4.46945000E-02	 1.84999000E-03
		 8.04810000E-04	-4.04248000E-02	 4.09865000E-03
		-8.71857000E-04	-4.54180000E-02	-4.30685000E-03
		-8.16211000E-04	-4.46449000E-02	-4.32101000E-03
		-9.72846000E-04	-4.12814000E-02	-4.45100000E-03
		-4.71285000E-04	-4.54494000E-02	-2.26050000E-03
		-8.43160000E-04	-4.50255000E-02	-4.29903000E-03
		-9.42052000E-04	-4.03869000E-02	-4.46451000E-03
		-4.41563000E-04	-4.46761000E-02	-2.25956000E-03
		-7.49146000E-05	-4.39751000E-02	-2.08433000E-04
		 5.99566000E-04	-4.39725000E-02	 3.91345000E-03
		-7.36351000E-05	-4.43240000E-02	-2.07336000E-04
		 6.31031000E-04	-4.43156000E-02	 3.92615000E-03
		-6.79965000E-05	-3.95582000E-02	-1.88344000E-04
		 2.62992000E-04	-4.39823000E-02	 1.83781000E-03
		 7.63538000E-04	-3.95714000E-02	 4.08888000E-03
		-7.55525000E-04	-4.39309000E-02	-4.33225000E-03
		-7.84991000E-04	-4.42778000E-02	-4.34206000E-03
		-9.02096000E-04	-3.95304000E-02	-4.46346000E-03
		-4.14654000E-04	-4.39596000E-02	-2.25625000E-03
		-1.03204000E-04	-5.32233000E-02	-2.26335000E-04
		 6.15660000E-04	-5.32123000E-02	 3.61308000E-03
		-9.36957000E-05	-5.25372000E-02	-2.39784000E-04
		 6.02938000E-04	-5.25313000E-02	 3.62079000E-03
		-8.32821000E-05	-4.93980000E-02	-2.12049000E-04
		 2.57745000E-04	-5.32175000E-02	 1.70418000E-03
		 6.52186000E-04	-4.93927000E-02	 3.71426000E-03
		-9.87882000E-05	-5.28720000E-02	-2.34289000E-04
		 6.10787000E-04	-5.28637000E-02	 3.61131000E-03
		-8.05520000E-05	-4.86820000E-02	-2.22268000E-04
		 2.61118000E-04	-5.25335000E-02	 1.70336000E-03
		 6.07981000E-04	-4.86820000E-02	 3.72020000E-03
		-8.18309000E-04	-5.32016000E-02	-4.07839000E-03
		-7.99024000E-04	-5.25217000E-02	-4.11358000E-03
		-8.17688000E-04	-4.93657000E-02	-4.14953000E-03
		-4.63548000E-04	-5.32151000E-02	-2.16029000E-03
		-8.10148000E-04	-5.28558000E-02	-4.09261000E-03
		-7.76422000E-04	-4.86552000E-02	-4.17515000E-03
		-4.51989000E-04	-5.25317000E-02	-2.18667000E-03
		-8.67807000E-05	-5.18799000E-02	-2.43620000E-04
		 5.96589000E-04	-5.18871000E-02	 3.65825000E-03
		-8.89656000E-05	-5.22139000E-02	-2.42805000E-04
		 5.98071000E-04	-5.22077000E-02	 3.63267000E-03
		-8.03477000E-05	-4.80090000E-02	-2.26977000E-04
		 2.64599000E-04	-5.18852000E-02	 1.72946000E-03
		 5.61645000E-04	-4.80253000E-02	 3.74389000E-03
		-7.88915000E-04	-5.18597000E-02	-4.16056000E-03
		-7.91528000E-04	-5.21926000E-02	-4.13188000E-03
		-7.35747000E-04	-4.79855000E-02	-4.20792000E-03
		-4.43853000E-04	-5.18710000E-02	-2.22182000E-03
		 0.00000000E+00	 0.00000000E+00	 0.00000000E+00
		 0.00000000E+00	 0.00000000E+00	 0.00000000E+00
		-1.50272000E-05	-1.09149000E-03	 2.04772000E-04
		-1.64906000E-03	-1.37278000E-03	 3.21570000E-03
		 0.00000000E+00	 0.00000000E+00	 0.00000000E+00
		 0.00000000E+00	 0.00000000E+00	 0.00000000E+00
		 1.82765000E-05	-2.46554000E-03	 2.26529000E-04
		-1.11900000E-03	-2.76423000E-03	 3.25425000E-03
		 0.00000000E+00	 0.00000000E+00	 0.00000000E+00
		-3.23891000E-05	 3.67327000E-04	 1.00397000E-04
		-8.33910000E-04	-1.15273000E-03	 1.83308000E-03
		-1.01826000E-03	 5.01532000E-05	 1.47071000E-03
		 0.00000000E+00	 0.00000000E+00	 0.00000000E+00
		 0.00000000E+00	 0.00000000E+00	 0.00000000E+00
		 1.40202000E-06	-1.85748000E-03	 2.14879000E-04
		-1.38135000E-03	-2.14372000E-03	 3.11875000E-03
		 0.00000000E+00	 0.00000000E+00	 0.00000000E+00
		 1.74025000E-06	-3.93222000E-04	 1.02700000E-04
		-5.49549000E-04	-2.53199000E-03	 1.74807000E-03
		-5.52414000E-04	-6.92904000E-04	 1.41897000E-03
		 0.00000000E+00	 0.00000000E+00	 0.00000000E+00
		 1.61196000E-03	-1.29275000E-03	-2.81554000E-03
		 0.00000000E+00	 0.00000000E+00	 0.00000000E+00
		 1.14916000E-03	-2.66895000E-03	-2.81047000E-03
		 0.00000000E+00	 0.00000000E+00	 0.00000000E+00
		 9.47378000E-04	 1.21915000E-04	-1.26002000E-03
		 8.02507000E-04	-1.11131000E-03	-1.42797000E-03
		 0.00000000E+00	 0.00000000E+00	 0.00000000E+00
		 1.37663000E-03	-2.05566000E-03	-2.69825000E-03
		 0.00000000E+00	 0.00000000E+00	 0.00000000E+00
		 5.51592000E-04	-6.12286000E-04	-1.20055000E-03
		 5.82975000E-04	-2.48312000E-03	-1.30004000E-03
		 0.00000000E+00	 0.00000000E+00	 0.00000000E+00
		 0.00000000E+00	 0.00000000E+00	 0.00000000E+00
		 5.39269000E-05	-3.35864000E-03	 2.45654000E-04
		-5.71499000E-04	-3.63868000E-03	 3.25829000E-03
		 0.00000000E+00	 0.00000000E+00	 0.00000000E+00
		 0.00000000E+00	 0.00000000E+00	 0.00000000E+00
		 3.57839000E-05	-2.98900000E-03	 2.35520000E-04
		-8.47691000E-04	-3.27535000E-03	 3.35125000E-03
		 0.00000000E+00	 0.00000000E+00	 0.00000000E+00
		 3.89426000E-05	-7.36156000E-04	 1.17821000E-04
		-2.58628000E-04	-3.41826000E-03	 1.66280000E-03
		-4.09285000E-05	-1.01935000E-03	 1.49054000E-03
		 0.00000000E+00	 0.00000000E+00	 0.00000000E+00
		 6.69419000E-04	-3.53217000E-03	-2.77508000E-03
		 0.00000000E+00	 0.00000000E+00	 0.00000000E+00
		 9.10600000E-04	-3.17968000E-03	-2.88860000E-03
		 0.00000000E+00	 0.00000000E+00	 0.00000000E+00
		 1.14086000E-04	-9.29812000E-04	-1.24072000E-03
		 3.63982000E-04	-3.36430000E-03	-1.17635000E-03
		 7.99580000E-05	-9.62560000E-03	 3.36716000E-04
		-2.75257000E-03	-9.87971000E-03	 6.57294000E-03
		 1.12545000E-04	-1.22537000E-02	 3.72401000E-04
		-2.32959000E-03	-1.25127000E-02	 6.63322000E-03
		 2.22212000E-05	-4.45885000E-03	 2.84684000E-04
		-1.33291000E-03	-9.70480000E-03	 3.48281000E-03
		-2.23137000E-03	-4.73773000E-03	 5.01226000E-03
		 9.55869000E-05	-1.09854000E-02	 3.53701000E-04
		-2.54027000E-03	-1.12420000E-02	 6.52456000E-03
		 5.35574000E-05	-6.46076000E-03	 3.14453000E-04
		-1.10241000E-03	-1.23328000E-02	 3.45200000E-03
		-1.71479000E-03	-6.74886000E-03	 5.05792000E-03
		 2.90934000E-03	-9.74086000E-03	-5.91027000E-03
		 2.54523000E-03	-1.23741000E-02	-5.89798000E-03
		 2.26825000E-03	-4.63083000E-03	-4.45369000E-03
		 1.49131000E-03	-9.63442000E-03	-2.81268000E-03
		 2.72750000E-03	-1.11091000E-02	-5.82455000E-03
		 1.81497000E-03	-6.63560000E-03	-4.44057000E-03
		 1.32937000E-03	-1.22646000E-02	-2.70638000E-03
		 1.41377000E-04	-1.45029000E-02	 4.09353000E-04
		-1.88138000E-03	-1.47387000E-02	 6.64468000E-03
		 1.26729000E-04	-1.34214000E-02	 3.91889000E-04
		-2.10566000E-03	-1.37050000E-02	 6.74794000E-03
		 8.60753000E-05	-7.99116000E-03	 3.44928000E-04
		-8.79891000E-04	-1.45678000E-02	 3.37165000E-03
		-1.19141000E-03	-8.27142000E-03	 5.07270000E-03
		 2.18407000E-03	-1.46118000E-02	-5.83707000E-03
		 2.36486000E-03	-1.35421000E-02	-5.97864000E-03
		 1.36673000E-03	-8.15532000E-03	-4.39289000E-03
		 1.16829000E-03	-1.45073000E-02	-2.55038000E-03
		 2.68491000E-04	-2.36800000E-02	 3.64645000E-04
		-3.75259000E-03	-2.37842000E-02	 8.29801000E-03
		 3.04011000E-04	-2.76086000E-02	 4.15320000E-04
		-3.58649000E-03	-2.78235000E-02	 8.37989000E-03
		 1.64899000E-04	-1.62119000E-02	 3.61425000E-04
		-1.73715000E-03	-2.37174000E-02	 4.35481000E-03
		-3.23924000E-03	-1.64155000E-02	 7.67347000E-03
		 2.88360000E-04	-2.56616000E-02	 3.94933000E-04
		-3.67215000E-03	-2.58328000E-02	 8.23953000E-03
		 1.96975000E-04	-1.94791000E-02	 4.03000000E-04
		-1.66425000E-03	-2.77059000E-02	 4.30723000E-03
		-2.94719000E-03	-1.96970000E-02	 7.74885000E-03
		 4.24462000E-03	-2.36391000E-02	-7.55309000E-03
		 4.18751000E-03	-2.75769000E-02	-7.56831000E-03
		 3.55594000E-03	-1.62545000E-02	-6.95519000E-03
		 2.25933000E-03	-2.36474000E-02	-3.61431000E-03
		 4.21487000E-03	-2.56177000E-02	-7.46243000E-03
		 3.33876000E-03	-1.95141000E-02	-6.94897000E-03
		 2.24655000E-03	-2.75857000E-02	-3.49661000E-03
		 3.31836000E-04	-3.14428000E-02	 4.61711000E-04
		-3.51511000E-03	-3.17730000E-02	 8.39201000E-03
		 3.18034000E-04	-2.95527000E-02	 4.35190000E-04
		-3.55271000E-03	-2.96986000E-02	 8.53110000E-03
		 2.34957000E-04	-2.24955000E-02	 4.43359000E-04
		-1.56126000E-03	-3.16010000E-02	 4.18735000E-03
		-2.67687000E-03	-2.27330000E-02	 7.75872000E-03
		 4.13456000E-03	-3.14354000E-02	-7.51483000E-03
		 4.16017000E-03	-2.95135000E-02	-7.68141000E-03
		 3.10664000E-03	-2.25185000E-02	-6.88084000E-03
		 2.22578000E-03	-3.14415000E-02	-3.30822000E-03
		 5.46519000E-04	-3.88815000E-02	 3.63102000E-04
		-4.75186000E-03	-3.87507000E-02	 7.70238000E-03
		 5.88678000E-04	-4.43591000E-02	 4.33675000E-04
		-5.08444000E-03	-4.46891000E-02	 7.79282000E-03
		 3.66066000E-04	-3.14562000E-02	 3.62836000E-04
		-2.10324000E-03	-3.88508000E-02	 4.08359000E-03
		-4.26612000E-03	-3.15410000E-02	 8.25639000E-03
		 5.68860000E-04	-4.15521000E-02	 3.99183000E-04
		-4.90835000E-03	-4.15964000E-02	 7.66199000E-03
		 3.98816000E-04	-3.61759000E-02	 3.77478000E-04
		-2.12445000E-03	-4.45441000E-02	 4.07443000E-03
		-4.37535000E-03	-3.62050000E-02	 8.38747000E-03
		 5.67136000E-03	-3.86697000E-02	-6.97203000E-03
		 5.96112000E-03	-4.39888000E-02	-6.91965000E-03
		 4.96683000E-03	-3.13244000E-02	-7.52450000E-03
		 3.10949000E-03	-3.88148000E-02	-3.35555000E-03
		 5.81966000E-03	-4.12911000E-02	-6.85978000E-03
		 5.10139000E-03	-3.59951000E-02	-7.52488000E-03
		 3.26339000E-03	-4.41873000E-02	-3.20659000E-03
		 4.93062000E-04	-5.01154000E-02	 5.00737000E-04
		-5.28992000E-03	-5.08149000E-02	 7.84184000E-03
		 5.42210000E-04	-4.71659000E-02	 4.66888000E-04
		-5.18591000E-03	-4.82014000E-02	 7.92567000E-03
		 4.06830000E-04	-4.09894000E-02	 3.63084000E-04
		-2.51303000E-03	-5.04692000E-02	 4.02462000E-03
		-4.32120000E-03	-4.09015000E-02	 8.39155000E-03
		 6.27539000E-03	-4.95953000E-02	-6.83260000E-03