<?xml version="1.0"?>
<VTKFile type="UnstructuredGrid" version="0.1" byte_order="LittleEndian">
	<UnstructuredGrid>
		<Piece NumberOfPoints="522" NumberOfCells="64">
			<Points>
				<DataArray type="Float64" NumberOfComponents="3" format="ascii">
					 1.00000000E+00	 1.00000000E+00	-5.96046000E-08
					 1.00000000E+00	 5.00000000E-01	-5.96046000E-08
					 1.00000000E+00	 5.00000000E-01	 1.00000000E+00
					 1.00000000E+00	 1.00000000E+00	 1.00000000E+00
					 5.00000000E-01	 1.00000000E+00	-5.96046000E-08
					 5.00000000E-01	 5.00000000E-01	-5.96046000E-08
					 5.00000000E-01	 5.00000000E-01	 1.00000000E+00
					 5.00000000E-01	 1.00000000E+00	 1.00000000E+00
					 1.00000000E+00	 7.50000000E-01	-5.96046000E-08
					 1.00000000E+00	 5.00000000E-01	 5.00000000E-01
					 1.00000000E+00	 7.50000000E-01	 1.00000000E+00
					 1.00000000E+00	 1.00000000E+00	 5.00000000E-01
					 7.50000000E-01	 1.00000000E+00	-5.96046000E-08
					 7.50000000E-01	 5.00000000E-01	-5.96046000E-08
					 7.50000000E-01	 5.00000000E-01	 1.00000000E+00
					 7.50000000E-01	 1.00000000E+00	 1.00000000E+00
					 5.00000000E-01	 7.50000000E-01	-5.96046000E-08
					 5.00000000E-01	 5.00000000E-01	 5.00000000E-01
					 5.00000000E-01	 7.50000000E-01	 1.00000000E+00
					 5.00000000E-01	 1.00000000E+00	 5.00000000E-01
					 1.00000000E+00	-1.49012000E-08	-5.96046000E-08
					 1.00000000E+00	-1.49012000E-08	 1.00000000E+00
					 5.00000000E-01	-1.49012000E-08	-5.96046000E-08
					 5.00000000E-01	-1.49012000E-08	 1.00000000E+00
					 1.00000000E+00	 2.50000000E-01	-5.96046000E-08
					 1.00000000E+00	-1.49012000E-08	 5.00000000E-01
					 1.00000000E+00	 2.50000000E-01	 1.00000000E+00
					 7.50000000E-01	-1.49012000E-08	-5.96046000E-08
					 7.50000000E-01	-1.49012000E-08	 1.00000000E+00
					 5.00000000E-01	 2.50000000E-01	-5.96046000E-08
					 5.00000000E-01	-1.49012000E-08	 5.00000000E-01
					 5.00000000E-01	 2.50000000E-01	 1.00000000E+00
					-7.45058000E-09	 1.00000000E+00	-5.96046000E-08
					-7.45058000E-09	 5.00000000E-01	-5.96046000E-08
					-7.45058000E-09	 5.00000000E-01	 1.00000000E+00
					-7.45058000E-09	 1.00000000E+00	 1.00000000E+00
					 2.50000000E-01	 1.00000000E+00	-5.96046000E-08
					 2.50000000E-01	 5.00000000E-01	-5.96046000E-08
					 2.50000000E-01	 5.00000000E-01	 1.00000000E+00
					 2.50000000E-01	 1.00000000E+00	 1.00000000E+00
					-7.45058000E-09	 7.50000000E-01	-5.96046000E-08
					-7.45058000E-09	 5.00000000E-01	 5.00000000E-01
					-7.45058000E-09	 7.50000000E-01	 1.00000000E+00
					-7.45058000E-09	 1.00000000E+00	 5.00000000E-01
					-7.45058000E-09	-1.49012000E-08	-5.96046000E-08
					-7.45058000E-09	-1.49012000E-08	 1.00000000E+00
					 2.50000000E-01	-1.49012000E-08	-5.96046000E-08
					 2.50000000E-01	-1.49012000E-08	 1.00000000E+00
					-7.45058000E-09	 2.50000000E-01	-5.96046000E-08
					-7.45058000E-09	-1.49012000E-08	 5.00000000E-01
					-7.45058000E-09	 2.50000000E-01	 1.00000000E+00
					 1.00000000E+00	 5.00000000E-01	 2.00000000E+00
					 1.00000000E+00	 1.00000000E+00	 2.00000000E+00
					 5.00000000E-01	 5.00000000E-01	 2.00000000E+00
					 5.00000000E-01	 1.00000000E+00	 2.00000000E+00
					 1.00000000E+00	 5.00000000E-01	 1.50000000E+00
					 1.00000000E+00	 7.50000000E-01	 2.00000000E+00
					 1.00000000E+00	 1.00000000E+00	 1.50000000E+00
					 7.50000000E-01	 5.00000000E-01	 2.00000000E+00
					 7.50000000E-01	 1.00000000E+00	 2.00000000E+00
					 5.00000000E-01	 5.00000000E-01	 1.50000000E+00
					 5.00000000E-01	 7.50000000E-01	 2.00000000E+00
					 5.00000000E-01	 1.00000000E+00	 1.50000000E+00
					 1.00000000E+00	-1.49012000E-08	 2.00000000E+00
					 5.00000000E-01	-1.49012000E-08	 2.00000000E+00
					 1.00000000E+00	-1.49012000E-08	 1.50000000E+00
					 1.00000000E+00	 2.50000000E-01	 2.00000000E+00
					 7.50000000E-01	-1.49012000E-08	 2.00000000E+00
					 5.00000000E-01	-1.49012000E-08	 1.50000000E+00
					 5.00000000E-01	 2.50000000E-01	 2.00000000E+00
					-7.45058000E-09	 5.00000000E-01	 2.00000000E+00
					-7.45058000E-09	 1.00000000E+00	 2.00000000E+00
					 2.50000000E-01	 5.00000000E-01	 2.00000000E+00
					 2.50000000E-01	 1.00000000E+00	 2.00000000E+00
					-7.45058000E-09	 5.00000000E-01	 1.50000000E+00
					-7.45058000E-09	 7.50000000E-01	 2.00000000E+00
					-7.45058000E-09	 1.00000000E+00	 1.50000000E+00
					-7.45058000E-09	-1.49012000E-08	 2.00000000E+00
					 2.50000000E-01	-1.49012000E-08	 2.00000000E+00
					-7.45058000E-09	-1.49012000E-08	 1.50000000E+00
					-7.45058000E-09	 2.50000000E-01	 2.00000000E+00
					 1.00000000E+00	 5.00000000E-01	 3.00000000E+00
					 1.00000000E+00	 1.00000000E+00	 3.00000000E+00
					 5.00000000E-01	 5.00000000E-01	 3.00000000E+00
					 5.00000000E-01	 1.00000000E+00	 3.00000000E+00
					 1.00000000E+00	 5.00000000E-01	 2.50000000E+00
					 1.00000000E+00	 7.50000000E-01	 3.00000000E+00
					 1.00000000E+00	 1.00000000E+00	 2.50000000E+00
					 7.50000000E-01	 5.00000000E-01	 3.00000000E+00
					 7.50000000E-01	 1.00000000E+00	 3.00000000E+00
					 5.00000000E-01	 5.00000000E-01	 2.50000000E+00
					 5.00000000E-01	 7.50000000E-01	 3.00000000E+00
					 5.00000000E-01	 1.00000000E+00	 2.50000000E+00
					 1.00000000E+00	-1.49012000E-08	 3.00000000E+00
					 5.00000000E-01	-1.49012000E-08	 3.00000000E+00
					 1.00000000E+00	-1.49012000E-08	 2.50000000E+00
					 1.00000000E+00	 2.50000000E-01	 3.00000000E+00
					 7.50000000E-01	-1.49012000E-08	 3.00000000E+00
					 5.00000000E-01	-1.49012000E-08	 2.50000000E+00
					 5.00000000E-01	 2.50000000E-01	 3.00000000E+00
					-7.45058000E-09	 5.00000000E-01	 3.00000000E+00
					-7.45058000E-09	 1.00000000E+00	 3.00000000E+00
					 2.50000000E-01	 5.00000000E-01	 3.00000000E+00
					 2.50000000E-01	 1.00000000E+00	 3.00000000E+00
					-7.45058000E-09	 5.00000000E-01	 2.50000000E+00
					-7.45058000E-09	 7.50000000E-01	 3.00000000E+00
					-7.45058000E-09	 1.00000000E+00	 2.50000000E+00
					-7.45058000E-09	-1.49012000E-08	 3.00000000E+00
					 2.50000000E-01	-1.49012000E-08	 3.00000000E+00
					-7.45058000E-09	-1.49012000E-08	 2.50000000E+00
					-7.45058000E-09	 2.50000000E-01	 3.00000000E+00
					 1.00000000E+00	 5.00000000E-01	 4.00000000E+00
					 1.00000000E+00	 1.00000000E+00	 4.00000000E+00
					 5.00000000E-01	 5.00000000E-01	 4.00000000E+00
					 5.00000000E-01	 1.00000000E+00	 4.00000000E+00
					 1.00000000E+00	 5.00000000E-01	 3.50000000E+00
					 1.00000000E+00	 7.50000000E-01	 4.00000000E+00
					 1.00000000E+00	 1.00000000E+00	 3.50000000E+00
					 7.50000000E-01	 5.00000000E-01	 4.00000000E+00
					 7.50000000E-01	 1.00000000E+00	 4.00000000E+00
					 5.00000000E-01	 5.00000000E-01	 3.50000000E+00
					 5.00000000E-01	 7.50000000E-01	 4.00000000E+00
					 5.00000000E-01	 1.00000000E+00	 3.50000000E+00
					 1.00000000E+00	-1.49012000E-08	 4.00000000E+00
					 5.00000000E-01	-1.49012000E-08	 4.00000000E+00
					 1.00000000E+00	-1.49012000E-08	 3.50000000E+00
					 1.00000000E+00	 2.50000000E-01	 4.00000000E+00
					 7.50000000E-01	-1.49012000E-08	 4.00000000E+00
					 5.00000000E-01	-1.49012000E-08	 3.50000000E+00
					 5.00000000E-01	 2.50000000E-01	 4.00000000E+00
					-7.45058000E-09	 5.00000000E-01	 4.00000000E+00
					-7.45058000E-09	 1.00000000E+00	 4.00000000E+00
					 2.50000000E-01	 5.00000000E-01	 4.00000000E+00
					 2.50000000E-01	 1.00000000E+00	 4.00000000E+00
					-7.45058000E-09	 5.00000000E-01	 3.50000000E+00
					-7.45058000E-09	 7.50000000E-01	 4.00000000E+00
					-7.45058000E-09	 1.00000000E+00	 3.50000000E+00
					-7.45058000E-09	-1.49012000E-08	 4.00000000E+00
					 2.50000000E-01	-1.49012000E-08	 4.00000000E+00
					-7.45058000E-09	-1.49012000E-08	 3.50000000E+00
					-7.45058000E-09	 2.50000000E-01	 4.00000000E+00
					 1.00000000E+00	 5.00000000E-01	 5.00000000E+00
					 1.00000000E+00	 1.00000000E+00	 5.00000000E+00
					 5.00000000E-01	 5.00000000E-01	 5.00000000E+00
					 5.00000000E-01	 1.00000000E+00	 5.00000000E+00
					 1.00000000E+00	 5.00000000E-01	 4.50000000E+00
					 1.00000000E+00	 7.50000000E-01	 5.00000000E+00
					 1.00000000E+00	 1.00000000E+00	 4.50000000E+00
					 7.50000000E-01	 5.00000000E-01	 5.00000000E+00
					 7.50000000E-01	 1.00000000E+00	 5.00000000E+00
					 5.00000000E-01	 5.00000000E-01	 4.50000000E+00
					 5.00000000E-01	 7.50000000E-01	 5.00000000E+00
					 5.00000000E-01	 1.00000000E+00	 4.50000000E+00
					 1.00000000E+00	-1.49012000E-08	 5.00000000E+00
					 5.00000000E-01	-1.49012000E-08	 5.00000000E+00
					 1.00000000E+00	-1.49012000E-08	 4.50000000E+00
					 1.00000000E+00	 2.50000000E-01	 5.00000000E+00
					 7.50000000E-01	-1.49012000E-08	 5.00000000E+00
					 5.00000000E-01	-1.49012000E-08	 4.50000000E+00
					 5.00000000E-01	 2.50000000E-01	 5.00000000E+00
					-7.45058000E-09	 5.00000000E-01	 5.00000000E+00
					-7.45058000E-09	 1.00000000E+00	 5.00000000E+00
					 2.50000000E-01	 5.00000000E-01	 5.00000000E+00
					 2.50000000E-01	 1.00000000E+00	 5.00000000E+00
					-7.45058000E-09	 5.00000000E-01	 4.50000000E+00
					-7.45058000E-09	 7.50000000E-01	 5.00000000E+00
					-7.45058000E-09	 1.00000000E+00	 4.50000000E+00
					-7.45058000E-09	-1.49012000E-08	 5.00000000E+00
					 2.50000000E-01	-1.49012000E-08	 5.00000000E+00
					-7.45058000E-09	-1.49012000E-08	 4.50000000E+00
					-7.45058000E-09	 2.50000000E-01	 5.00000000E+00
					 1.00000000E+00	 5.00000000E-01	 6.00000000E+00
					 1.00000000E+00	 1.00000000E+00	 6.00000000E+00
					 5.00000000E-01	 5.00000000E-01	 6.00000000E+00
					 5.00000000E-01	 1.00000000E+00	 6.00000000E+00
					 1.00000000E+00	 5.00000000E-01	 5.50000000E+00
					 1.00000000E+00	 7.50000000E-01	 6.00000000E+00
					 1.00000000E+00	 1.00000000E+00	 5.50000000E+00
					 7.50000000E-01	 5.00000000E-01	 6.00000000E+00
					 7.50000000E-01	 1.00000000E+00	 6.00000000E+00
					 5.00000000E-01	 5.00000000E-01	 5.50000000E+00
					 5.00000000E-01	 7.50000000E-01	 6.00000000E+00
					 5.00000000E-01	 1.00000000E+00	 5.50000000E+00
					 1.00000000E+00	-1.49012000E-08	 6.00000000E+00
[...]
			<PointData>
				<DataArray type="Float32" Name="U" NumberOfComponents="3" ComponentName0="D1" ComponentName1="D2" ComponentName2="D3" format="ascii">
					 0.00000000E+00	 0.00000000E+00	 0.00000000E+00
					 0.00000000E+00	 0.00000000E+00	 0.00000000E+00
					 1.10327000E-05	 1.32755000E-03	-1.90727000E-05
					-7.15157000E-04	 1.39628000E-03	-8.66366000E-04
					 0.00000000E+00	 0.00000000E+00	 0.00000000E+00
					 0.00000000E+00	 0.00000000E+00	 0.00000000E+00
					 1.05175000E-05	 5.09284000E-04	-2.15364000E-05
					-8.81907000E-04	 5.91584000E-04	-8.72706000E-04
					 0.00000000E+00	 0.00000000E+00	 0.00000000E+00
					 9.27481000E-06	 3.70055000E-04	-1.13473000E-05
					-3.54397000E-04	 1.33670000E-03	-3.71450000E-04
					-2.81692000E-04	 4.27726000E-04	-3.64237000E-04
					 0.00000000E+00	 0.00000000E+00	 0.00000000E+00
					 0.00000000E+00	 0.00000000E+00	 0.00000000E+00
					 1.07824000E-05	 9.41000000E-04	-1.97238000E-05
					-7.98463000E-04	 1.01958000E-03	-9.47285000E-04
					 0.00000000E+00	 0.00000000E+00	 0.00000000E+00
					 6.55451000E-06	-6.16785000E-06	-9.95748000E-06
					-4.34968000E-04	 5.24703000E-04	-4.54538000E-04
					-4.29734000E-04	 6.93178000E-05	-3.44947000E-04
					 0.00000000E+00	 0.00000000E+00	 0.00000000E+00
					 7.39086000E-04	 1.39718000E-03	 8.27896000E-04
					 0.00000000E+00	 0.00000000E+00	 0.00000000E+00
					 9.04276000E-04	 5.88311000E-04	 8.29147000E-04
					 0.00000000E+00	 0.00000000E+00	 0.00000000E+00
					 3.01359000E-04	 4.23324000E-04	 3.41031000E-04
					 3.76792000E-04	 1.33699000E-03	 3.33409000E-04
					 0.00000000E+00	 0.00000000E+00	 0.00000000E+00
					 8.21807000E-04	 1.01848000E-03	 9.07222000E-04
					 0.00000000E+00	 0.00000000E+00	 0.00000000E+00
					 4.43562000E-04	 6.32746000E-05	 3.23920000E-04
					 4.56323000E-04	 5.23027000E-04	 4.11452000E-04
					 0.00000000E+00	 0.00000000E+00	 0.00000000E+00
					 0.00000000E+00	 0.00000000E+00	 0.00000000E+00
					 8.27707000E-06	-4.58199000E-04	-2.27075000E-05
					-1.04008000E-03	-3.75979000E-04	-8.70093000E-04
					 0.00000000E+00	 0.00000000E+00	 0.00000000E+00
					 0.00000000E+00	 0.00000000E+00	 0.00000000E+00
					 9.73679000E-06	 5.02526000E-05	-2.28911000E-05
					-9.59701000E-04	 1.30270000E-04	-7.86420000E-04
					 0.00000000E+00	 0.00000000E+00	 0.00000000E+00
					 3.53181000E-06	-5.03021000E-04	-8.79621000E-06
					-5.17519000E-04	-4.41402000E-04	-5.38798000E-04
					-5.43398000E-04	-4.09707000E-04	-3.62309000E-04
					 0.00000000E+00	 0.00000000E+00	 0.00000000E+00
					 1.05782000E-03	-3.81462000E-04	 8.23926000E-04
					 0.00000000E+00	 0.00000000E+00	 0.00000000E+00
					 9.80204000E-04	 1.25584000E-04	 7.40287000E-04
					 0.00000000E+00	 0.00000000E+00	 0.00000000E+00
					 5.50738000E-04	-4.15936000E-04	 3.42866000E-04
					 5.34516000E-04	-4.43970000E-04	 4.93167000E-04
					-1.15659000E-05	 5.10395000E-03	-3.73492000E-05
					-1.66557000E-03	 5.14521000E-03	-1.80116000E-03
					-1.08997000E-05	 3.41003000E-03	-4.49587000E-05
					-1.74615000E-03	 3.44836000E-03	-1.82200000E-03
					 3.54307000E-06	 2.95740000E-03	-2.56191000E-05
					-8.38399000E-04	 5.11474000E-03	-8.33117000E-04
					-1.20081000E-03	 3.02140000E-03	-1.39416000E-03
					-1.12747000E-05	 4.26797000E-03	-4.14096000E-05
					-1.70640000E-03	 4.30624000E-03	-1.87209000E-03
					 3.75236000E-06	 1.68625000E-03	-3.22099000E-05
					-8.79578000E-04	 3.41847000E-03	-9.05877000E-04
					-1.33471000E-03	 1.74876000E-03	-1.40995000E-03
					 1.64190000E-03	 5.15005000E-03	 1.72710000E-03
					 1.72347000E-03	 3.45392000E-03	 1.73280000E-03
					 1.20875000E-03	 3.02344000E-03	 1.34145000E-03
					 8.15057000E-04	 5.11595000E-03	 7.58889000E-04
					 1.68317000E-03	 4.31188000E-03	 1.78978000E-03
					 1.34242000E-03	 1.74911000E-03	 1.34477000E-03
					 8.57471000E-04	 3.42071000E-03	 8.16246000E-04
					-1.04634000E-05	 1.63509000E-03	-5.36127000E-05
					-1.83861000E-03	 1.66404000E-03	-1.81674000E-03
					-1.05522000E-05	 2.53212000E-03	-4.89060000E-05
					-1.79283000E-03	 2.56961000E-03	-1.77683000E-03
					 3.25871000E-06	 2.80972000E-04	-3.88495000E-05
					-9.21586000E-04	 1.63812000E-03	-9.51216000E-04
					-1.48152000E-03	 3.34115000E-04	-1.40636000E-03
					 1.81673000E-03	 1.67095000E-03	 1.71054000E-03
					 1.77068000E-03	 2.57539000E-03	 1.67990000E-03
					 1.48791000E-03	 3.33859000E-04	 1.32873000E-03
					 9.00397000E-04	 1.64168000E-03	 8.44354000E-04
					-4.34564000E-05	 9.91790000E-03	-6.42945000E-05
					-2.42103000E-03	 9.88731000E-03	-1.91648000E-03
					-4.13481000E-05	 7.57812000E-03	-7.10330000E-05
					-2.35019000E-03	 7.54085000E-03	-1.93741000E-03
					-2.76804000E-05	 7.52671000E-03	-5.22761000E-05
					-1.23062000E-03	 9.91045000E-03	-9.27762000E-04
					-2.08765000E-03	 7.53327000E-03	-1.97110000E-03
					-4.19551000E-05	 8.74084000E-03	-6.71633000E-05
					-2.38604000E-03	 8.70455000E-03	-1.96244000E-03
					-2.62980000E-05	 5.46621000E-03	-5.86494000E-05
					-1.19644000E-03	 7.56674000E-03	-9.76077000E-04
					-2.09252000E-03	 5.46737000E-03	-1.99390000E-03
					 2.33228000E-03	 9.90332000E-03	 1.78983000E-03
					 2.26816000E-03	 7.55767000E-03	 1.79759000E-03
					 2.03131000E-03	 7.54428000E-03	 1.86923000E-03
					 1.14313000E-03	 9.91837000E-03	 7.99776000E-04
					 2.30113000E-03	 8.72189000E-03	 1.83001000E-03
					 2.03989000E-03	 5.47922000E-03	 1.87878000E-03
					 1.11381000E-03	 7.57561000E-03	 8.34618000E-04
					-4.02236000E-05	 5.29965000E-03	-7.88529000E-05
					-2.29201000E-03	 5.25942000E-03	-1.92982000E-03
					-4.10408000E-05	 6.43084000E-03	-7.52379000E-05
					-2.32097000E-03	 6.39287000E-03	-1.91381000E-03
					-2.55413000E-05	 3.39507000E-03	-6.63098000E-05
					-1.16614000E-03	 5.28682000E-03	-9.97544000E-04
					-2.10922000E-03	 3.39092000E-03	-1.98481000E-03
					 2.21471000E-03	 5.27197000E-03	 1.77469000E-03
					 2.24118000E-03	 6.40786000E-03	 1.76567000E-03
					 2.05912000E-03	 3.40157000E-03	 1.85387000E-03
					 1.08650000E-03	 5.29315000E-03	 8.40743000E-04
					-7.43347000E-05	 1.34587000E-02	-7.94092000E-05
					-2.71144000E-03	 1.33775000E-02	-1.12991000E-03
					-7.11959000E-05	 1.09193000E-02	-8.81407000E-05
					-2.52931000E-03	 1.08271000E-02	-1.14476000E-03
					-5.93422000E-05	 1.19706000E-02	-7.26398000E-05
					-1.39008000E-03	 1.34414000E-02	-5.89486000E-04
					-2.62780000E-03	 1.19138000E-02	-1.61031000E-03
					-7.20420000E-05	 1.21676000E-02	-8.36614000E-05
					-2.62015000E-03	 1.20780000E-02	-1.13681000E-03
					-5.67305000E-05	 9.47358000E-03	-8.09336000E-05
					-1.30043000E-03	 1.08958000E-02	-6.00001000E-04
					-2.49320000E-03	 9.40628000E-03	-1.63000000E-03
					 2.55668000E-03	 1.33884000E-02	 9.70970000E-04
					 2.38413000E-03	 1.08435000E-02	 9.68792000E-04
					 2.50503000E-03	 1.19286000E-02	 1.46539000E-03
					 1.23957000E-03	 1.34465000E-02	 4.30725000E-04
					 2.47082000E-03	 1.20927000E-02	 9.69335000E-04
					 2.37879000E-03	 9.42421000E-03	 1.46960000E-03
					 1.15689000E-03	 1.09051000E-02	 4.23750000E-04
					-6.95819000E-05	 8.54438000E-03	-9.63799000E-05
					-2.35763000E-03	 8.45178000E-03	-1.14711000E-03
					-7.06518000E-05	 9.70925000E-03	-9.24718000E-05
					-2.44385000E-03	 9.61680000E-03	-1.15510000E-03
					-5.54254000E-05	 7.09781000E-03	-8.97449000E-05
					-1.21415000E-03	 8.52010000E-03	-5.97482000E-04
					-2.37391000E-03	 7.02710000E-03	-1.62588000E-03
					 2.21993000E-03	 8.46680000E-03	 9.55055000E-04
					 2.30227000E-03	 9.63318000E-03	 9.71015000E-04
					 2.26582000E-03	 7.04157000E-03	 1.44897000E-03
					 1.07532000E-03	 8.52863000E-03	 4.04620000E-04
					-9.32918000E-05	 1.41678000E-02	-9.25519000E-05
					-2.57682000E-03	 1.40976000E-02	 4.25463000E-05
					-8.98056000E-05	 1.17716000E-02	-9.71187000E-05
					-2.41672000E-03	 1.16912000E-02	 4.98667000E-05
					-8.64548000E-05	 1.42042000E-02	-8.57830000E-05
					-1.33248000E-03	 1.41542000E-02	-6.98771000E-05
					-2.68427000E-03	 1.41247000E-02	-5.28064000E-04
					-9.13479000E-05	 1.29500000E-02	-9.50611000E-05
					-2.49668000E-03	 1.28722000E-02	 6.80836000E-05
					-8.31011000E-05	 1.17061000E-02	-9.31325000E-05
					-1.25347000E-03	 1.17534000E-02	-4.81326000E-05
					-2.49612000E-03	 1.16169000E-02	-5.34260000E-04
					 2.38670000E-03	 1.41048000E-02	-2.28867000E-04
					 2.23562000E-03	 1.17018000E-02	-2.45765000E-04
					 2.50577000E-03	 1.41328000E-02	 3.55981000E-04
					 1.14481000E-03	 1.41577000E-02	-1.15723000E-04
					 2.31101000E-03	 1.28817000E-02	-2.59295000E-04
					 2.32714000E-03	 1.16303000E-02	 3.47068000E-04
					 1.07323000E-03	 1.17592000E-02	-1.46536000E-04
					-8.65906000E-05	 9.51579000E-03	-1.01067000E-04
					-2.26319000E-03	 9.43786000E-03	 3.22614000E-05
					-8.82602000E-05	 1.06238000E-02	-9.89503000E-05
					-2.34019000E-03	 1.05431000E-02	 3.44728000E-05
					-8.06301000E-05	 9.38059000E-03	-9.92373000E-05
					-1.17676000E-03	 9.49797000E-03	-5.11246000E-05
					-2.31269000E-03	 9.29465000E-03	-5.43394000E-04
					 2.09094000E-03	 9.44782000E-03	-2.36472000E-04
					 2.16366000E-03	 1.05538000E-02	-2.34482000E-04
					 2.15194000E-03	 9.30770000E-03	 3.43556000E-04
					 1.00377000E-03	 9.50328000E-03	-1.51497000E-04
					-8.93941000E-05	 1.23356000E-02	-1.12081000E-04
					-2.03606000E-03	 1.23610000E-02	 4.15725000E-04
					-8.87376000E-05	 1.03650000E-02	-1.09589000E-04
					-2.08190000E-03	 1.03871000E-02	 4.37779000E-04
					-9.33263000E-05	 1.34172000E-02	-1.00934000E-04
					-1.06258000E-03	 1.23407000E-02	 6.43535000E-05
					-2.35349000E-03	 1.33948000E-02	 3.84531000E-04
					-8.91413000E-05	 1.13582000E-02	-1.10993000E-04
					-2.05941000E-03	 1.13810000E-02	 4.75026000E-04
					-9.10726000E-05	 1.11954000E-02	-1.02277000E-04
					-1.08574000E-03	 1.03674000E-02	 1.22060000E-04
					-2.28546000E-03	 1.11647000E-02	 4.05982000E-04
					 1.85469000E-03	 1.23618000E-02	-6.40157000E-04
					 1.90256000E-03	 1.03922000E-02	-6.56917000E-04
					 2.16446000E-03	 1.33996000E-02	-5.87739000E-04
					 8.83047000E-04	 1.23408000E-02	-2.88628000E-04
					 1.87885000E-03	 1.13843000E-02	-6.97171000E-04
					 2.10224000E-03	 1.11725000E-02	-6.11896000E-04
					 9.07766000E-04	 1.03698000E-02	-3.41273000E-04
					-8.63926000E-05	 8.35025000E-03	-1.06498000E-04
					-2.13570000E-03	 8.36229000E-03	 4.21244000E-04
					-8.80102000E-05	 9.36393000E-03	-1.07950000E-04
					-2.10968000E-03	 9.38445000E-03	 4.06745000E-04
					-8.82606000E-05	 9.03001000E-03	-1.03839000E-04
					-1.10795000E-03	 8.34790000E-03	 1.40709000E-04
					-2.22626000E-03	 8.99630000E-03	 3.80934000E-04
					 1.96170000E-03	 8.37047000E-03	-6.33975000E-04
					 1.93224000E-03	 9.39112000E-03	-6.22274000E-04
					 2.05034000E-03	 9.00414000E-03	-5.89975000E-04
					 9.34874000E-04	 8.35173000E-03	-3.53870000E-04
					-6.64784000E-05	 1.10418000E-02	-1.32113000E-04
					-1.26331000E-03	 1.10906000E-02	-3.23683000E-04
					-6.50849000E-05	 9.78008000E-03	-1.19462000E-04
					-1.37948000E-03	 9.83522000E-03	-3.22061000E-04
					-8.06581000E-05	 1.14392000E-02	-1.24207000E-04
					-6.66017000E-04	 1.10504000E-02	-2.68862000E-04
					-1.66473000E-03	 1.14841000E-02	 9.16853000E-05
					-6.60115000E-05	 1.04267000E-02	-1.25346000E-04
					-1.32117000E-03	 1.04804000E-02	-2.65735000E-04
					-7.98905000E-05	 9.79681000E-03	-1.16112000E-04
					-7.20730000E-04	 9.79094000E-03	-2.05168000E-04
					-1.77412000E-03	 9.84021000E-03	 1.05927000E-04
					 1.12758000E-03	 1.10886000E-02	 5.87238000E-05
					 1.24609000E-03	 9.83690000E-03	 8.27575000E-05
					 1.50074000E-03	 1.14827000E-02	-3.39601000E-04
					 5.32263000E-04	 1.10492000E-02	 4.16671000E-06
					 1.18599000E-03	 1.04805000E-02	 1.43988000E-05
					 1.61172000E-03	 9.84333000E-03	-3.37516000E-04
					 5.89451000E-04	 9.79193000E-03	-3.40017000E-05
					-6.34544000E-05	 8.41252000E-03	-1.06073000E-04
					-1.48741000E-03	 8.46591000E-03	-3.05409000E-04
					-6.41325000E-05	 9.11060000E-03	-1.13520000E-04
					-1.43299000E-03	 9.16588000E-03	-3.82439000E-04
					-7.78135000E-05	 8.04967000E-03	-1.06341000E-04
					-7.73657000E-04	 8.42297000E-03	-1.25213000E-04
					-1.89396000E-03	 8.07833000E-03	 1.08080000E-04
					 1.35766000E-03	 8.47154000E-03	 9.32026000E-05
					 1.30151000E-03	 9.16935000E-03	 1.55215000E-04
					 1.73591000E-03	 8.08613000E-03	-3.20069000E-04
					 6.46029000E-04	 8.42611000E-03	-8.68873000E-05
					-3.84261000E-05	 1.16520000E-02	-1.37678000E-04
					-8.37101000E-04	 1.16464000E-02	-6.59007000E-04
					-3.76347000E-05	 1.08602000E-02	-1.22714000E-04
					-8.58659000E-04	 1.08718000E-02	-6.73068000E-04
					-5.20535000E-05	 1.11927000E-02	-1.35263000E-04
					-4.41402000E-04	 1.16513000E-02	-3.94927000E-04
					-9.53438000E-04	 1.12086000E-02	-5.75918000E-04
					-3.75101000E-05	 1.12513000E-02	-1.30181000E-04
					-8.46391000E-04	 1.12572000E-02	-6.55456000E-04
					-5.07526000E-05	 1.02591000E-02	-1.21104000E-04
					-4.50526000E-04	 1.08683000E-02	-3.85069000E-04
					-1.01272000E-03	 1.02837000E-02	-5.85810000E-04
					 7.54756000E-04	 1.16396000E-02	 3.83793000E-04
					 7.77217000E-04	 1.08726000E-02	 4.27686000E-04
					 8.45273000E-04	 1.12040000E-02	 3.03512000E-04
					 3.62883000E-04	 1.16462000E-02	 1.20060000E-04
					 7.64831000E-04	 1.12545000E-02	 3.94812000E-04
					 9.06428000E-04	 1.02843000E-02	 3.42603000E-04
					 3.72864000E-04	 1.08683000E-02	 1.39655000E-04
					-3.86578000E-05	 1.00460000E-02	-1.09743000E-04
					-8.41993000E-04	 1.00827000E-02	-6.63109000E-04
					-3.80687000E-05	 1.04563000E-02	-1.15835000E-04
					-8.51102000E-04	 1.04780000E-02	-6.90352000E-04
					-5.01157000E-05	 9.27211000E-03	-1.08332000E-04
					-4.42287000E-04	 1.00657000E-02	-3.54687000E-04
					-1.05880000E-03	 9.30403000E-03	-5.69924000E-04
					 7.59473000E-04	 1.00886000E-02	 4.42974000E-04
					 7.69209000E-04	 1.04813000E-02	 4.58767000E-04
					 9.54786000E-04	 9.30860000E-03	 3.53098000E-04
					 3.62945000E-04	 1.00692000E-02	 1.34564000E-04
					 0.00000000E+00	 0.00000000E+00	 0.00000000E+00
					 0.00000000E+00	 0.00000000E+00	 0.00000000E+00
					-3.25456000E-05	-3.39943000E-03	 1.78610000E-04
					-7.79093000E-04	-3.64160000E-03	 3.69449000E-03
					 0.00000000E+00	 0.00000000E+00	 0.00000000E+00
					 0.00000000E+00	 0.00000000E+00	 0.00000000E+00
					-2.44968000E-06	-3.90981000E-03	 1.74057000E-04
					-2.93453000E-04	-4.17327000E-03	 3.73742000E-03
					 0.00000000E+00	 0.00000000E+00	 0.00000000E+00
					-2.89240000E-05	-6.14186000E-04	 8.51358000E-05
					-4.05755000E-04	-3.43880000E-03	 1.91172000E-03
					-6.95690000E-04	-9.46672000E-04	 1.86674000E-03
					 0.00000000E+00	 0.00000000E+00	 0.00000000E+00
					 0.00000000E+00	 0.00000000E+00	 0.00000000E+00
					-1.72851000E-05	-3.73234000E-03	 1.75145000E-04
					-5.33299000E-04	-3.98533000E-03	 3.69035000E-03
					 0.00000000E+00	 0.00000000E+00	 0.00000000E+00
					-1.30203000E-06	-9.88818000E-04	 7.69560000E-05
					-1.48764000E-04	-3.95633000E-03	 1.90307000E-03
					-1.39184000E-04	-1.32080000E-03	 1.80932000E-03
					 0.00000000E+00	 0.00000000E+00	 0.00000000E+00
					 7.13508000E-04	-3.55614000E-03	-3.34298000E-03
					 0.00000000E+00	 0.00000000E+00	 0.00000000E+00
					 2.88361000E-04	-4.08289000E-03	-3.39496000E-03
					 0.00000000E+00	 0.00000000E+00	 0.00000000E+00
					 6.37504000E-04	-8.78082000E-04	-1.68743000E-03
					 3.40826000E-04	-3.39613000E-03	-1.55711000E-03
					 0.00000000E+00	 0.00000000E+00	 0.00000000E+00
					 4.97907000E-04	-3.89668000E-03	-3.34644000E-03
					 0.00000000E+00	 0.00000000E+00	 0.00000000E+00
					 1.37491000E-04	-1.25363000E-03	-1.64550000E-03
					 1.42415000E-04	-3.91138000E-03	-1.55868000E-03
					 0.00000000E+00	 0.00000000E+00	 0.00000000E+00
					 0.00000000E+00	 0.00000000E+00	 0.00000000E+00
					 2.79693000E-05	-3.98066000E-03	 1.73778000E-04
					 1.95323000E-04	-4.22434000E-03	 3.69134000E-03
					 0.00000000E+00	 0.00000000E+00	 0.00000000E+00
					 0.00000000E+00	 0.00000000E+00	 0.00000000E+00
					 1.27994000E-05	-4.02325000E-03	 1.72237000E-04
					-5.18937000E-05	-4.27140000E-03	 3.74462000E-03
					 0.00000000E+00	 0.00000000E+00	 0.00000000E+00
					 2.61427000E-05	-8.90339000E-04	 8.21157000E-05
					 1.12138000E-04	-4.02099000E-03	 1.85023000E-03
					 4.26511000E-04	-1.21292000E-03	 1.86402000E-03
					 0.00000000E+00	 0.00000000E+00	 0.00000000E+00
					-1.43479000E-04	-4.13173000E-03	-3.34786000E-03
					 0.00000000E+00	 0.00000000E+00	 0.00000000E+00
					 7.48862000E-05	-4.18556000E-03	-3.40423000E-03
					 0.00000000E+00	 0.00000000E+00	 0.00000000E+00
					-3.74849000E-04	-1.14431000E-03	-1.69074000E-03
					-5.73063000E-05	-3.97538000E-03	-1.50628000E-03
					-3.10219000E-05	-1.36240000E-02	 3.26197000E-04
					-9.23009000E-04	-1.37779000E-02	 6.15369000E-03
					 3.41732000E-06	-1.44224000E-02	 3.29159000E-04
					-7.08469000E-04	-1.45754000E-02	 6.19216000E-03
					-3.52227000E-05	-7.89302000E-03	 2.58648000E-04
					-4.76779000E-04	-1.36818000E-02	 3.18584000E-03
					-8.56997000E-04	-8.12096000E-03	 5.16313000E-03
					-1.48053000E-05	-1.40419000E-02	 3.26047000E-04
					-8.15557000E-04	-1.41927000E-02	 6.15926000E-03
					-3.68567000E-06	-8.54233000E-03	 2.54850000E-04
					-3.45562000E-04	-1.44783000E-02	 3.19285000E-03
					-4.82388000E-04	-8.77036000E-03	 5.19355000E-03
					 8.59473000E-04	-1.36460000E-02	-5.50363000E-03
					 7.06523000E-04	-1.44432000E-02	-5.53456000E-03
					 7.83116000E-04	-8.01058000E-03	-4.65124000E-03
					 4.14094000E-04	-1.36168000E-02	-2.53452000E-03
					 7.83064000E-04	-1.40651000E-02	-5.50646000E-03
					 4.71880000E-04	-8.65758000E-03	-4.68842000E-03
					 3.54850000E-04	-1.44137000E-02	-2.53173000E-03
					 3.53173000E-05	-1.50406000E-02	 3.34766000E-04
					-4.62068000E-04	-1.51717000E-02	 6.16000000E-03
					 1.90555000E-05	-1.47466000E-02	 3.33288000E-04
					-5.84482000E-04	-1.49242000E-02	 6.23080000E-03
					 2.88761000E-05	-8.85029000E-03	 2.56403000E-04
					-2.22170000E-04	-1.50827000E-02	 3.12973000E-03
					-9.49045000E-05	-9.06853000E-03	 5.16152000E-03
					 5.52152000E-04	-1.50504000E-02	-5.49236000E-03
					 6.28662000E-04	-1.47688000E-02	-5.56881000E-03
					 1.58860000E-04	-8.95844000E-03	-4.65038000E-03
					 2.98279000E-04	-1.50238000E-02	-2.45611000E-03
					 3.37068000E-05	-2.62833000E-02	 4.42107000E-04
					-1.19027000E-03	-2.62339000E-02	 6.36827000E-03
					 6.73625000E-05	-2.75484000E-02	 4.74376000E-04
					-1.28990000E-03	-2.76058000E-02	 6.43179000E-03
					-6.61495000E-06	-1.99641000E-02	 3.85391000E-04
					-5.74327000E-04	-2.62764000E-02	 3.37753000E-03
					-1.01668000E-03	-2.00419000E-02	 6.53159000E-03
					 5.19705000E-05	-2.69006000E-02	 4.64226000E-04
					-1.24224000E-03	-2.69166000E-02	 6.35479000E-03
					 2.66677000E-05	-2.09620000E-02	 4.00782000E-04
					-6.34635000E-04	-2.76000000E-02	 3.36424000E-03
					-9.68166000E-04	-2.10490000E-02	 6.58694000E-03
					 1.21522000E-03	-2.61456000E-02	-5.46605000E-03
					 1.41974000E-03	-2.74185000E-02	-5.49925000E-03
					 9.92515000E-04	-1.99084000E-02	-5.75769000E-03
					 6.27576000E-04	-2.62348000E-02	-2.48135000E-03
					 1.31500000E-03	-2.67577000E-02	-5.43694000E-03
					 1.02028000E-03	-2.08943000E-02	-5.78461000E-03
					 7.44525000E-04	-2.75084000E-02	-2.43490000E-03
					 9.45208000E-05	-2.89785000E-02	 4.97799000E-04
					-1.48124000E-03	-2.91513000E-02	 6.41987000E-03
					 8.12880000E-05	-2.82574000E-02	 4.83104000E-04
					-1.38801000E-03	-2.82435000E-02	 6.51746000E-03
					 6.72918000E-05	-2.19484000E-02	 4.13920000E-04
					-6.61896000E-04	-2.90924000E-02	 3.27421000E-03
					-9.36977000E-04	-2.20568000E-02	 6.56068000E-03
					 1.62695000E-03	-2.88739000E-02	-5.46754000E-03
					 1.52367000E-03	-2.81211000E-02	-5.56872000E-03
					 1.03070000E-03	-2.18690000E-02	-5.73579000E-03
					 8.52679000E-04	-2.89594000E-02	-2.32244000E-03
					 1.87274000E-04	-3.63626000E-02	 5.63561000E-04
					-1.67714000E-03	-3.60753000E-02	 4.31697000E-03