<?xml version="1.0"?>
<VTKFile type="UnstructuredGrid" version="0.1" byte_order="LittleEndian">
	<UnstructuredGrid>
		<Piece NumberOfPoints="522" NumberOfCells="64">
			<Points>
				<DataArray type="Float64" NumberOfComponents="3" format="ascii">
					 1.00000000E+00	 1.00000000E+00	-5.96046000E-08
					 1.00000000E+00	 5.00000000E-01	-5.96046000E-08
					 1.00000000E+00	 5.00000000E-01	 1.00000000E+00
					 1.00000000E+00	 1.00000000E+00	 1.00000000E+00
					 5.00000000E-01	 1.00000000E+00	-5.96046000E-08
					 5.00000000E-01	 5.00000000E-01	-5.96046000E-08
					 5.00000000E-01	 5.00000000E-01	 1.00000000E+00
					 5.00000000E-01	 1.00000000E+00	 1.00000000E+00
					 1.00000000E+00	 7.50000000E-01	-5.96046000E-08
					 1.00000000E+00	 5.00000000E-01	 5.00000000E-01
					 1.00000000E+00	 7.50000000E-01	 1.00000000E+00
					 1.00000000E+00	 1.00000000E+00	 5.00000000E-01
					 7.50000000E-01	 1.00000000E+00	-5.96046000E-08
					 7.50000000E-01	 5.00000000E-01	-5.96046000E-08
					 7.50000000E-01	 5.00000000E-01	 1.00000000E+00
					 7.50000000E-01	 1.00000000E+00	 1.00000000E+00
					 5.00000000E-01	 7.50000000E-01	-5.96046000E-08
					 5.00000000E-01	 5.00000000E-01	 5.00000000E-01
					 5.00000000E-01	 7.50000000E-01	 1.00000000E+00
					 5.00000000E-01	 1.00000000E+00	 5.00000000E-01
					 1.00000000E+00	-1.49012000E-08	-5.96046000E-08
					 1.00000000E+00	-1.49012000E-08	 1.00000000E+00
					 5.00000000E-01	-1.49012000E-08	-5.96046000E-08
					 5.00000000E-01	-1.49012000E-08	 1.00000000E+00
					 1.00000000E+00	 2.50000000E-01	-5.96046000E-08
					 1.00000000E+00	-1.49012000E-08	 5.00000000E-01
					 1.00000000E+00	 2.50000000E-01	 1.00000000E+00
					 7.50000000E-01	-1.49012000E-08	-5.96046000E-08
					 7.50000000E-01	-1.49012000E-08	 1.00000000E+00
					 5.00000000E-01	 2.50000000E-01	-5.96046000E-08
					 5.00000000E-01	-1.49012000E-08	 5.00000000E-01
					 5.00000000E-01	 2.50000000E-01	 1.00000000E+00
					-7.45058000E-09	 1.00000000E+00	-5.96046000E-08
					-7.45058000E-09	 5.00000000E-01	-5.96046000E-08
					-7.45058000E-09	 5.00000000E-01	 1.00000000E+00
					-7.45058000E-09	 1.00000000E+00	 1.00000000E+00
					 2.50000000E-01	 1.00000000E+00	-5.96046000E-08
					 2.50000000E-01	 5.00000000E-01	-5.96046000E-08
					 2.50000000E-01	 5.00000000E-01	 1.00000000E+00
					 2.50000000E-01	 1.00000000E+00	 1.00000000E+00
					-7.45058000E-09	 7.50000000E-01	-5.96046000E-08
					-7.45058000E-09	 5.00000000E-01	 5.00000000E-01
					-7.45058000E-09	 7.50000000E-01	 1.00000000E+00
					-7.45058000E-09	 1.00000000E+00	 5.00000000E-01
					-7.45058000E-09	-1.49012000E-08	-5.96046000E-08
					-7.45058000E-09	-1.49012000E-08	 1.00000000E+00
					 2.50000000E-01	-1.49012000E-08	-5.96046000E-08
					 2.50000000E-01	-1.49012000E-08	 1.00000000E+00
					-7.45058000E-09	 2.50000000E-01	-5.96046000E-08
					-7.45058000E-09	-1.49012000E-08	 5.00000000E-01
					-7.45058000E-09	 2.50000000E-01	 1.00000000E+00
					 1.00000000E+00	 5.00000000E-01	 2.00000000E+00
					 1.00000000E+00	 1.00000000E+00	 2.00000000E+00
					 5.00000000E-01	 5.00000000E-01	 2.00000000E+00
					 5.00000000E-01	 1.00000000E+00	 2.00000000E+00
					 1.00000000E+00	 5.00000000E-01	 1.50000000E+00
					 1.00000000E+00	 7.50000000E-01	 2.00000000E+00
					 1.00000000E+00	 1.00000000E+00	 1.50000000E+00
					 7.50000000E-01	 5.00000000E-01	 2.00000000E+00
					 7.50000000E-01	 1.00000000E+00	 2.00000000E+00
					 5.00000000E-01	 5.00000000E-01	 1.50000000E+00
					 5.00000000E-01	 7.50000000E-01	 2.00000000E+00
					 5.00000000E-01	 1.00000000E+00	 1.50000000E+00
					 1.00000000E+00	-1.49012000E-08	 2.00000000E+00
					 5.00000000E-01	-1.49012000E-08	 2.00000000E+00
					 1.00000000E+00	-1.49012000E-08	 1.50000000E+00
					 1.00000000E+00	 2.50000000E-01	 2.00000000E+00
					 7.50000000E-01	-1.49012000E-08	 2.00000000E+00
					 5.00000000E-01	-1.49012000E-08	 1.50000000E+00
					 5.00000000E-01	 2.50000000E-01	 2.00000000E+00
					-7.45058000E-09	 5.00000000E-01	 2.00000000E+00
					-7.45058000E-09	 1.00000000E+00	 2.00000000E+00
					 2.50000000E-01	 5.00000000E-01	 2.00000000E+00
					 2.50000000E-01	 1.00000000E+00	 2.00000000E+00
					-7.45058000E-09	 5.00000000E-01	 1.50000000E+00
					-7.45058000E-09	 7.50000000E-01	 2.00000000E+00
					-7.45058000E-09	 1.00000000E+00	 1.50000000E+00
					-7.45058000E-09	-1.49012000E-08	 2.00000000E+00
					 2.50000000E-01	-1.49012000E-08	 2.00000000E+00
					-7.45058000E-09	-1.49012000E-08	 1.50000000E+00
					-7.45058000E-09	 2.50000000E-01	 2.00000000E+00
					 1.00000000E+00	 5.00000000E-01	 3.00000000E+00
					 1.00000000E+00	 1.00000000E+00	 3.00000000E+00
					 5.00000000E-01	 5.00000000E-01	 3.00000000E+00
					 5.00000000E-01	 1.00000000E+00	 3.00000000E+00
					 1.00000000E+00	 5.00000000E-01	 2.50000000E+00
					 1.00000000E+00	 7.50000000E-01	 3.00000000E+00
					 1.00000000E+00	 1.00000000E+00	 2.50000000E+00
					 7.50000000E-01	 5.00000000E-01	 3.00000000E+00
					 7.50000000E-01	 1.00000000E+00	 3.00000000E+00
					 5.00000000E-01	 5.00000000E-01	 2.50000000E+00
					 5.00000000E-01	 7.50000000E-01	 3.00000000E+00
					 5.00000000E-01	 1.00000000E+00	 2.50000000E+00
					 1.00000000E+00	-1.49012000E-08	 3.00000000E+00
					 5.00000000E-01	-1.49012000E-08	 3.00000000E+00
					 1.00000000E+00	-1.49012000E-08	 2.50000000E+00
					 1.00000000E+00	 2.50000000E-01	 3.00000000E+00
					 7.50000000E-01	-1.49012000E-08	 3.00000000E+00
					 5.00000000E-01	-1.49012000E-08	 2.50000000E+00
					 5.00000000E-01	 2.50000000E-01	 3.00000000E+00
					-7.45058000E-09	 5.00000000E-01	 3.00000000E+00
					-7.45058000E-09	 1.00000000E+00	 3.00000000E+00
					 2.50000000E-01	 5.00000000E-01	 3.00000000E+00
					 2.50000000E-01	 1.00000000E+00	 3.00000000E+00
					-7.45058000E-09	 5.00000000E-01	 2.50000000E+00
					-7.45058000E-09	 7.50000000E-01	 3.00000000E+00
					-7.45058000E-09	 1.00000000E+00	 2.50000000E+00
					-7.45058000E-09	-1.49012000E-08	 3.00000000E+00
					 2.50000000E-01	-1.49012000E-08	 3.00000000E+00
					-7.45058000E-09	-1.49012000E-08	 2.50000000E+00
					-7.45058000E-09	 2.50000000E-01	 3.00000000E+00
					 1.00000000E+00	 5.00000000E-01	 4.00000000E+00
					 1.00000000E+00	 1.00000000E+00	 4.00000000E+00
					 5.00000000E-01	 5.00000000E-01	 4.00000000E+00
					 5.00000000E-01	 1.00000000E+00	 4.00000000E+00
					 1.00000000E+00	 5.00000000E-01	 3.50000000E+00
					 1.00000000E+00	 7.50000000E-01	 4.00000000E+00
					 1.00000000E+00	 1.00000000E+00	 3.50000000E+00
					 7.50000000E-01	 5.00000000E-01	 4.00000000E+00
					 7.50000000E-01	 1.00000000E+00	 4.00000000E+00
					 5.00000000E-01	 5.00000000E-01	 3.50000000E+00
					 5.00000000E-01	 7.50000000E-01	 4.00000000E+00
					 5.00000000E-01	 1.00000000E+00	 3.50000000E+00
					 1.00000000E+00	-1.49012000E-08	 4.00000000E+00
					 5.00000000E-01	-1.49012000E-08	 4.00000000E+00
					 1.00000000E+00	-1.49012000E-08	 3.50000000E+00
					 1.00000000E+00	 2.50000000E-01	 4.00000000E+00
					 7.50000000E-01	-1.49012000E-08	 4.00000000E+00
					 5.00000000E-01	-1.49012000E-08	 3.50000000E+00
					 5.00000000E-01	 2.50000000E-01	 4.00000000E+00
					-7.45058000E-09	 5.00000000E-01	 4.00000000E+00
					-7.45058000E-09	 1.00000000E+00	 4.00000000E+00
					 2.50000000E-01	 5.00000000E-01	 4.00000000E+00
					 2.50000000E-01	 1.00000000E+00	 4.00000000E+00
					-7.45058000E-09	 5.00000000E-01	 3.50000000E+00
					-7.45058000E-09	 7.50000000E-01	 4.00000000E+00
					-7.45058000E-09	 1.00000000E+00	 3.50000000E+00
					-7.45058000E-09	-1.49012000E-08	 4.00000000E+00
					 2.50000000E-01	-1.49012000E-08	 4.00000000E+00
					-7.45058000E-09	-1.49012000E-08	 3.50000000E+00
					-7.45058000E-09	 2.50000000E-01	 4.00000000E+00
					 1.00000000E+00	 5.00000000E-01	 5.00000000E+00
					 1.00000000E+00	 1.00000000E+00	 5.00000000E+00
					 5.00000000E-01	 5.00000000E-01	 5.00000000E+00
					 5.00000000E-01	 1.00000000E+00	 5.00000000E+00
					 1.00000000E+00	 5.00000000E-01	 4.50000000E+00
					 1.00000000E+00	 7.50000000E-01	 5.00000000E+00
					 1.00000000E+00	 1.00000000E+00	 4.50000000E+00
					 7.50000000E-01	 5.00000000E-01	 5.00000000E+00
					 7.50000000E-01	 1.00000000E+00	 5.00000000E+00
					 5.00000000E-01	 5.00000000E-01	 4.50000000E+00
					 5.00000000E-01	 7.50000000E-01	 5.00000000E+00
					 5.00000000E-01	 1.00000000E+00	 4.50000000E+00
					 1.00000000E+00	-1.49012000E-08	 5.00000000E+00
					 5.00000000E-01	-1.49012000E-08	 5.00000000E+00
					 1.00000000E+00	-1.49012000E-08	 4.50000000E+00
					 1.00000000E+00	 2.50000000E-01	 5.00000000E+00
					 7.50000000E-01	-1.49012000E-08	 5.00000000E+00
					 5.00000000E-01	-1.49012000E-08	 4.50000000E+00
					 5.00000000E-01	 2.50000000E-01	 5.00000000E+00
					-7.45058000E-09	 5.00000000E-01	 5.00000000E+00
					-7.45058000E-09	 1.00000000E+00	 5.00000000E+00
					 2.50000000E-01	 5.00000000E-01	 5.00000000E+00
					 2.50000000E-01	 1.00000000E+00	 5.00000000E+00
					-7.45058000E-09	 5.00000000E-01	 4.50000000E+00
					-7.45058000E-09	 7.50000000E-01	 5.00000000E+00
					-7.45058000E-09	 1.00000000E+00	 4.50000000E+00
					-7.45058000E-09	-1.49012000E-08	 5.00000000E+00
					 2.50000000E-01	-1.49012000E-08	 5.00000000E+00
					-7.45058000E-09	-1.49012000E-08	 4.50000000E+00
					-7.45058000E-09	 2.50000000E-01	 5.00000000E+00
					 1.00000000E+00	 5.00000000E-01	 6.00000000E+00
					 1.00000000E+00	 1.00000000E+00	 6.00000000E+00
					 5.00000000E-01	 5.00000000E-01	 6.00000000E+00
					 5.00000000E-01	 1.00000000E+00	 6.00000000E+00
					 1.00000000E+00	 5.00000000E-01	 5.50000000E+00
					 1.00000000E+00	 7.50000000E-01	 6.00000000E+00
					 1.00000000E+00	 1.00000000E+00	 5.50000000E+00
					 7.50000000E-01	 5.00000000E-01	 6.00000000E+00
					 7.50000000E-01	 1.00000000E+00	 6.00000000E+00
					 5.00000000E-01	 5.00000000E-01	 5.50000000E+00
					 5.00000000E-01	 7.50000000E-01	 6.00000000E+00
					 5.00000000E-01	 1.00000000E+00	 5.50000000E+00
					 1.00000000E+00	-1.49012000E-08	 6.00000000E+00
[...]
			<PointData>
				<DataArray type="Float32" Name="U" NumberOfComponents="3" ComponentName0="D1" ComponentName1="D2" ComponentName2="D3" format="ascii">
					 0.00000000E+00	 0.00000000E+00	 0.00000000E+00
					 0.00000000E+00	 0.00000000E+00	 0.00000000E+00
					-3.40587000E-06	-1.46837000E-03	-2.66593000E-05
					 8.83870000E-06	-1.61561000E-03	 1.73109000E-03
					 0.00000000E+00	 0.00000000E+00	 0.00000000E+00
					 0.00000000E+00	 0.00000000E+00	 0.00000000E+00
					-8.24403000E-06	-1.29136000E-03	-3.10711000E-05
					 3.22218000E-04	-1.44742000E-03	 1.72464000E-03
					 0.00000000E+00	 0.00000000E+00	 0.00000000E+00
					-2.19059000E-06	-1.92453000E-04	-1.06264000E-05
					 1.70711000E-06	-1.49385000E-03	 8.47480000E-04
					-1.39096000E-04	-3.38326000E-04	 7.60133000E-04
					 0.00000000E+00	 0.00000000E+00	 0.00000000E+00
					 0.00000000E+00	 0.00000000E+00	 0.00000000E+00
					-5.69817000E-06	-1.42627000E-03	-2.86977000E-05
					 1.67027000E-04	-1.57831000E-03	 1.75562000E-03
					 0.00000000E+00	 0.00000000E+00	 0.00000000E+00
					-6.79904000E-06	-1.83264000E-04	-1.24889000E-05
					 1.55894000E-04	-1.32040000E-03	 8.70982000E-04
					 1.26253000E-04	-3.33088000E-04	 7.23626000E-04
					 0.00000000E+00	 0.00000000E+00	 0.00000000E+00
					-1.54298000E-05	-1.61650000E-03	-1.78417000E-03
					 0.00000000E+00	 0.00000000E+00	 0.00000000E+00
					-3.38694000E-04	-1.44991000E-03	-1.78617000E-03
					 0.00000000E+00	 0.00000000E+00	 0.00000000E+00
					 1.37362000E-04	-3.42234000E-04	-7.83035000E-04
					-8.72405000E-06	-1.49463000E-03	-9.00306000E-04
					 0.00000000E+00	 0.00000000E+00	 0.00000000E+00
					-1.77887000E-04	-1.58001000E-03	-1.81331000E-03
					 0.00000000E+00	 0.00000000E+00	 0.00000000E+00
					-1.37967000E-04	-3.40283000E-04	-7.50401000E-04
					-1.72498000E-04	-1.32209000E-03	-9.32905000E-04
					 0.00000000E+00	 0.00000000E+00	 0.00000000E+00
					 0.00000000E+00	 0.00000000E+00	 0.00000000E+00
					-1.27725000E-05	-8.05236000E-04	-3.28155000E-05
					 6.27595000E-04	-9.60202000E-04	 1.72494000E-03
					 0.00000000E+00	 0.00000000E+00	 0.00000000E+00
					 0.00000000E+00	 0.00000000E+00	 0.00000000E+00
					-1.04813000E-05	-1.09529000E-03	-3.24979000E-05
					 4.72743000E-04	-1.24763000E-03	 1.67494000E-03
					 0.00000000E+00	 0.00000000E+00	 0.00000000E+00
					-1.18406000E-05	 7.15676000E-05	-1.58170000E-05
					 3.10183000E-04	-8.35392000E-04	 9.18641000E-04
					 3.74324000E-04	-8.80629000E-05	 7.53840000E-04
					 0.00000000E+00	 0.00000000E+00	 0.00000000E+00
					-6.52994000E-04	-9.61564000E-04	-1.78922000E-03
					 0.00000000E+00	 0.00000000E+00	 0.00000000E+00
					-4.94103000E-04	-1.24982000E-03	-1.73819000E-03
					 0.00000000E+00	 0.00000000E+00	 0.00000000E+00
					-3.96432000E-04	-9.72243000E-05	-7.87608000E-04
					-3.35664000E-04	-8.36027000E-04	-9.84221000E-04
					-2.69426000E-05	-7.56528000E-03	-6.48043000E-05
					 4.07179000E-04	-7.79606000E-03	 4.22700000E-03
					-2.84261000E-05	-6.90783000E-03	-6.89785000E-05
					 8.45028000E-04	-7.14270000E-03	 4.21291000E-03
					-1.09673000E-05	-3.87403000E-03	-4.36170000E-05
					 1.90762000E-04	-7.62807000E-03	 2.06751000E-03
					 2.02666000E-04	-4.06968000E-03	 2.89893000E-03
					-2.80603000E-05	-7.29023000E-03	-6.89647000E-05
					 6.25437000E-04	-7.52331000E-03	 4.25178000E-03
					-1.40313000E-05	-3.46812000E-03	-4.98552000E-05
					 4.08792000E-04	-6.97313000E-03	 2.09367000E-03
					 5.79029000E-04	-3.66476000E-03	 2.88096000E-03
					-4.64121000E-04	-7.75950000E-03	-4.35856000E-03
					-9.05387000E-04	-7.10304000E-03	-4.35319000E-03
					-2.27710000E-04	-4.05862000E-03	-2.98470000E-03
					-2.45781000E-04	-7.60937000E-03	-2.19763000E-03
					-6.84284000E-04	-7.48468000E-03	-4.39166000E-03
					-6.10052000E-04	-3.65157000E-03	-2.97848000E-03
					-4.66759000E-04	-6.95212000E-03	-2.23226000E-03
					-2.92499000E-05	-5.81458000E-03	-6.94569000E-05
					 1.28491000E-03	-6.04902000E-03	 4.22467000E-03
					-2.85467000E-05	-6.41387000E-03	-6.80315000E-05
					 1.06571000E-03	-6.65006000E-03	 4.17547000E-03
					-1.67969000E-05	-2.68215000E-03	-5.17179000E-05
					 6.26434000E-04	-5.87999000E-03	 2.14280000E-03
					 9.55205000E-04	-2.88133000E-03	 2.89285000E-03
					-1.34651000E-03	-6.00273000E-03	-4.36621000E-03
					-1.12697000E-03	-6.60818000E-03	-4.31411000E-03
					-9.91521000E-04	-2.86381000E-03	-2.99350000E-03
					-6.85440000E-04	-5.85394000E-03	-2.28251000E-03
					-5.13765000E-05	-1.95758000E-02	-1.66077000E-04
					 8.30434000E-04	-1.98541000E-02	 7.23861000E-03
					-5.51683000E-05	-1.84438000E-02	-1.54044000E-04
					 1.31295000E-03	-1.87350000E-02	 7.25703000E-03
					-4.16481000E-05	-1.27437000E-02	-1.02377000E-04
					 3.93294000E-04	-1.96518000E-02	 3.49878000E-03
					 6.15731000E-04	-1.30042000E-02	 5.71281000E-03
					-5.37881000E-05	-1.90702000E-02	-1.60784000E-04
					 1.07100000E-03	-1.93587000E-02	 7.28095000E-03
					-4.47210000E-05	-1.18493000E-02	-9.97750000E-05
					 6.29360000E-04	-1.85263000E-02	 3.54846000E-03
					 1.08451000E-03	-1.21130000E-02	 5.71203000E-03
					-9.38190000E-04	-1.97521000E-02	-7.57959000E-03
					-1.42544000E-03	-1.86259000E-02	-7.57356000E-03
					-7.00997000E-04	-1.29383000E-02	-5.92493000E-03
					-4.97679000E-04	-1.96016000E-02	-3.83249000E-03
					-1.18191000E-03	-1.92519000E-02	-7.61209000E-03
					-1.17555000E-03	-1.20440000E-02	-5.91983000E-03
					-7.40131000E-04	-1.84719000E-02	-3.85860000E-03
					-5.45285000E-05	-1.68396000E-02	-1.34606000E-04
					 1.79225000E-03	-1.71329000E-02	 7.27350000E-03
					-5.56634000E-05	-1.77040000E-02	-1.45448000E-04
					 1.55179000E-03	-1.79963000E-02	 7.23295000E-03
					-4.55231000E-05	-1.04845000E-02	-9.25727000E-05
					 8.68072000E-04	-1.69239000E-02	 3.59833000E-03
					 1.55916000E-03	-1.07467000E-02	 5.72479000E-03
					-1.90165000E-03	-1.70183000E-02	-7.55055000E-03
					-1.66425000E-03	-1.78850000E-02	-7.53160000E-03
					-1.65117000E-03	-1.06721000E-02	-5.91901000E-03
					-9.76937000E-04	-1.68669000E-02	-3.86955000E-03
					-4.72302000E-05	-3.85814000E-02	-3.86452000E-04
					 1.71630000E-03	-3.88468000E-02	 9.88390000E-03
					-4.71645000E-05	-3.66300000E-02	-3.39255000E-04
					 2.06962000E-03	-3.69144000E-02	 9.95478000E-03
					-5.16257000E-05	-2.82151000E-02	-2.60982000E-04
					 8.38770000E-04	-3.86663000E-02	 4.61435000E-03
					 1.17575000E-03	-2.84824000E-02	 8.67898000E-03
					-4.72800000E-05	-3.76479000E-02	-3.63033000E-04
					 1.89213000E-03	-3.79286000E-02	 1.00087000E-02
					-5.39857000E-05	-2.67546000E-02	-2.34402000E-04
					 1.01174000E-03	-3.67272000E-02	 4.76111000E-03
					 1.61887000E-03	-2.70437000E-02	 8.72206000E-03
					-1.82460000E-03	-3.86423000E-02	-1.06617000E-02
					-2.17374000E-03	-3.66908000E-02	-1.06380000E-02
					-1.28876000E-03	-2.83328000E-02	-9.20726000E-03
					-9.36954000E-04	-3.85705000E-02	-5.38737000E-03
					-1.99969000E-03	-3.77093000E-02	-1.07410000E-02
					-1.73290000E-03	-2.68803000E-02	-9.19612000E-03
					-1.10913000E-03	-3.66161000E-02	-5.44040000E-03
					-4.44241000E-05	-3.43412000E-02	-2.86963000E-04
					 2.41468000E-03	-3.46333000E-02	 9.98380000E-03
					-4.64116000E-05	-3.55301000E-02	-3.14607000E-04
					 2.24114000E-03	-3.58158000E-02	 9.90639000E-03
					-5.25381000E-05	-2.48676000E-02	-1.99843000E-04
					 1.18651000E-03	-3.44446000E-02	 4.86636000E-03
					 2.04710000E-03	-2.51651000E-02	 8.74298000E-03
					-2.50761000E-03	-3.44007000E-02	-1.05617000E-02
					-2.34049000E-03	-3.55896000E-02	-1.05389000E-02
					-2.15415000E-03	-2.49945000E-02	-9.14652000E-03
					-1.27623000E-03	-3.43262000E-02	-5.44138000E-03
					-3.01260000E-05	-6.28104000E-02	-7.04120000E-04
					 3.15532000E-03	-6.30152000E-02	 1.10537000E-02
					-2.43702000E-05	-5.95699000E-02	-6.12183000E-04
					 3.26902000E-03	-5.97794000E-02	 1.11639000E-02
					-4.00950000E-05	-5.03202000E-02	-5.38416000E-04
					 1.56218000E-03	-6.28970000E-02	 5.03681000E-03
					 2.41569000E-03	-5.05556000E-02	 1.06574000E-02
					-2.59871000E-05	-6.12028000E-02	-6.58373000E-04
					 3.21338000E-03	-6.14116000E-02	 1.12109000E-02
					-3.83254000E-05	-4.77440000E-02	-4.67534000E-04
					 1.62320000E-03	-5.96629000E-02	 5.23825000E-03
					 2.64199000E-03	-4.79932000E-02	 1.07556000E-02
					-3.23106000E-03	-6.27269000E-02	-1.24607000E-02
					-3.32704000E-03	-5.94729000E-02	-1.23882000E-02
					-2.51279000E-03	-5.03066000E-02	-1.17376000E-02
					-1.62703000E-03	-6.27604000E-02	-6.44510000E-03
					-3.27939000E-03	-6.11070000E-02	-1.25264000E-02
					-2.73005000E-03	-4.77223000E-02	-1.16944000E-02
					-1.67544000E-03	-5.95098000E-02	-6.46272000E-03
					-1.94753000E-05	-5.62181000E-02	-5.18899000E-04
					 3.38472000E-03	-5.64318000E-02	 1.12383000E-02
					-2.27553000E-05	-5.79067000E-02	-5.65655000E-04
					 3.32570000E-03	-5.81157000E-02	 1.11190000E-02
					-3.50391000E-05	-4.49503000E-02	-3.94813000E-04
					 1.68421000E-03	-5.63149000E-02	 5.40617000E-03
					 2.86390000E-03	-4.52082000E-02	 1.08007000E-02
					-3.42457000E-03	-5.61229000E-02	-1.22778000E-02
					-3.37572000E-03	-5.78108000E-02	-1.22519000E-02
					-2.93843000E-03	-4.49292000E-02	-1.15945000E-02
					-1.72371000E-03	-5.61564000E-02	-6.44398000E-03
					-2.22269000E-05	-8.82193000E-02	-1.01914000E-03
					 4.37415000E-03	-8.84102000E-02	 1.11080000E-02
					-5.87763000E-06	-8.38162000E-02	-9.06684000E-04
					 4.41402000E-03	-8.40031000E-02	 1.12236000E-02
					-2.22510000E-05	-7.55128000E-02	-8.64398000E-04
					 2.17493000E-03	-8.83110000E-02	 4.96788000E-03
					 3.82144000E-03	-7.57149000E-02	 1.11442000E-02
					-1.31734000E-05	-8.60211000E-02	-9.63939000E-04
					 4.39507000E-03	-8.62102000E-02	 1.12359000E-02
					-1.15538000E-05	-7.16484000E-02	-7.59862000E-04
					 2.20510000E-03	-8.39078000E-02	 5.15292000E-03
					 3.88022000E-03	-7.18474000E-02	 1.12564000E-02
					-4.42463000E-03	-8.80724000E-02	-1.31534000E-02
					-4.42799000E-03	-8.36599000E-02	-1.30444000E-02
					-3.87603000E-03	-7.53941000E-02	-1.28726000E-02
					-2.22165000E-03	-8.81444000E-02	-7.00896000E-03
					-4.42591000E-03	-8.58653000E-02	-1.31700000E-02
					-3.90808000E-03	-7.15166000E-02	-1.27770000E-02
					-2.21793000E-03	-8.37343000E-02	-6.96851000E-03
					 9.35677000E-06	-7.93823000E-02	-7.88666000E-04
					 4.46452000E-03	-7.95645000E-02	 1.13381000E-02
					 1.08580000E-06	-8.16024000E-02	-8.47758000E-04
					 4.43904000E-03	-8.17862000E-02	 1.12110000E-02
					-2.67493000E-06	-6.77295000E-02	-6.52680000E-04
					 2.23670000E-03	-7.94728000E-02	 5.33860000E-03
					 3.94814000E-03	-6.79257000E-02	 1.13549000E-02
					-4.44389000E-03	-7.92235000E-02	-1.29228000E-02
					-4.43683000E-03	-8.14473000E-02	-1.29136000E-02
					-3.95110000E-03	-6.75981000E-02	-1.26627000E-02
					-2.21730000E-03	-7.92973000E-02	-6.91885000E-03
					-1.67473000E-05	-1.13519000E-01	-1.34391000E-03
					 5.16689000E-03	-1.13703000E-01	 1.09250000E-02
					 1.52559000E-05	-1.08343000E-01	-1.20999000E-03
					 5.19914000E-03	-1.08519000E-01	 1.10603000E-02
					-2.27572000E-05	-1.00883000E-01	-1.17913000E-03
					 2.57451000E-03	-1.13607000E-01	 4.74043000E-03
					 4.81572000E-03	-1.01069000E-01	 1.10325000E-02
					-1.71225000E-06	-1.10932000E-01	-1.27596000E-03
					 5.18231000E-03	-1.11112000E-01	 1.10350000E-02
					 1.82803000E-06	-9.60436000E-02	-1.05637000E-03
					 2.60851000E-03	-1.08428000E-01	 4.91546000E-03
					 4.85389000E-03	-9.62237000E-02	 1.11571000E-02
					-5.20073000E-03	-1.13359000E-01	-1.36125000E-02
					-5.16940000E-03	-1.08175000E-01	-1.34790000E-02
					-4.86192000E-03	-1.00728000E-01	-1.34004000E-02
					-2.60808000E-03	-1.13441000E-01	-7.42674000E-03
					-5.18660000E-03	-1.10766000E-01	-1.35871000E-02
					-4.85171000E-03	-9.58816000E-02	-1.32798000E-02
					-2.57848000E-03	-1.08260000E-01	-7.33421000E-03
					 4.66402000E-05	-1.03157000E-01	-1.07362000E-03
					 5.24620000E-03	-1.03326000E-01	 1.11930000E-02
					 3.19538000E-05	-1.05751000E-01	-1.14368000E-03
					 5.22433000E-03	-1.05924000E-01	 1.10858000E-02
					 2.58262000E-05	-9.11834000E-02	-9.25815000E-04
					 2.64536000E-03	-1.03239000E-01	 5.08879000E-03
					 4.90512000E-03	-9.13586000E-02	 1.12847000E-02
					-5.15408000E-03	-1.02982000E-01	-1.33378000E-02
					-5.16122000E-03	-1.05583000E-01	-1.33719000E-02
					-4.85622000E-03	-9.10134000E-02	-1.31465000E-02
					-2.55247000E-03	-1.03070000E-01	-7.23343000E-03
					 1.73303000E-05	-1.38429000E-01	-1.66209000E-03
					 5.48871000E-03	-1.38626000E-01	 1.06221000E-02
					 3.29171000E-05	-1.32950000E-01	-1.50936000E-03
					 5.50143000E-03	-1.33152000E-01	 1.07697000E-02
					-4.48664000E-06	-1.26062000E-01	-1.50619000E-03
					 2.75431000E-03	-1.38528000E-01	 4.47154000E-03
					 5.39439000E-03	-1.26244000E-01	 1.07798000E-02
					 2.74897000E-05	-1.35691000E-01	-1.58263000E-03
					 5.49530000E-03	-1.35891000E-01	 1.07027000E-02
					 2.62591000E-05	-1.20665000E-01	-1.36166000E-03
					 2.76720000E-03	-1.33055000E-01	 4.62452000E-03
					 5.42398000E-03	-1.20846000E-01	 1.09228000E-02
					-5.48760000E-03	-1.38259000E-01	-1.39169000E-02
					-5.44510000E-03	-1.32751000E-01	-1.37564000E-02
					-5.42131000E-03	-1.25899000E-01	-1.37742000E-02
					-2.72927000E-03	-1.38346000E-01	-7.78573000E-03
					-5.46642000E-03	-1.35501000E-01	-1.38399000E-02
					-5.37694000E-03	-1.20485000E-01	-1.36241000E-02
					-2.70472000E-03	-1.32849000E-01	-7.63440000E-03
					 4.52670000E-05	-1.27473000E-01	-1.38362000E-03
					 5.53411000E-03	-1.27659000E-01	 1.08905000E-02
					 3.77849000E-05	-1.30209000E-01	-1.44341000E-03
					 5.51833000E-03	-1.30408000E-01	 1.08279000E-02
					 5.54655000E-05	-1.15266000E-01	-1.23119000E-03
					 2.78605000E-03	-1.27569000E-01	 4.75173000E-03
					 5.46721000E-03	-1.15436000E-01	 1.10497000E-02
					-5.42523000E-03	-1.27269000E-01	-1.36214000E-02
					-5.43525000E-03	-1.30006000E-01	-1.36803000E-02
					-5.34546000E-03	-1.15085000E-01	-1.34858000E-02
					-2.69122000E-03	-1.27370000E-01	-7.50854000E-03
					 0.00000000E+00	 0.00000000E+00	 0.00000000E+00
					 0.00000000E+00	 0.00000000E+00	 0.00000000E+00
					 8.30337000E-05	-8.07610000E-03	-2.87882000E-05
					-1.28873000E-03	-8.55783000E-03	 7.58312000E-03
					 0.00000000E+00	 0.00000000E+00	 0.00000000E+00
					 0.00000000E+00	 0.00000000E+00	 0.00000000E+00
					 9.03184000E-05	-8.96119000E-03	 2.68534000E-05
					-3.32684000E-04	-9.48768000E-03	 7.73676000E-03
					 0.00000000E+00	 0.00000000E+00	 0.00000000E+00
					 2.20762000E-05	-1.81141000E-03	-3.41842000E-06
					-6.02152000E-04	-8.14525000E-03	 3.70721000E-03
					-1.29747000E-03	-2.48600000E-03	 3.92548000E-03
					 0.00000000E+00	 0.00000000E+00	 0.00000000E+00
					 0.00000000E+00	 0.00000000E+00	 0.00000000E+00
					 8.57259000E-05	-8.68235000E-03	-9.87554000E-07
					-8.04581000E-04	-9.18592000E-03	 7.61959000E-03
					 0.00000000E+00	 0.00000000E+00	 0.00000000E+00
					 2.40996000E-05	-2.48970000E-03	 2.32669000E-05
					-1.19865000E-04	-9.04523000E-03	 3.76447000E-03
					-1.47789000E-04	-3.17418000E-03	 3.85246000E-03
					 0.00000000E+00	 0.00000000E+00	 0.00000000E+00
					 1.43930000E-03	-8.41447000E-03	-7.66142000E-03
					 0.00000000E+00	 0.00000000E+00	 0.00000000E+00
					 5.06716000E-04	-9.32430000E-03	-7.70774000E-03
					 0.00000000E+00	 0.00000000E+00	 0.00000000E+00
					 1.32922000E-03	-2.42753000E-03	-3.93747000E-03
					 7.64439000E-04	-8.07348000E-03	-3.77124000E-03
					 0.00000000E+00	 0.00000000E+00	 0.00000000E+00
					 9.66096000E-04	-9.03091000E-03	-7.64466000E-03
					 0.00000000E+00	 0.00000000E+00	 0.00000000E+00
					 1.89486000E-04	-3.09947000E-03	-3.80681000E-03
					 2.98444000E-04	-8.96424000E-03	-3.71968000E-03
					 0.00000000E+00	 0.00000000E+00	 0.00000000E+00
					 0.00000000E+00	 0.00000000E+00	 0.00000000E+00
					 1.03831000E-04	-8.91916000E-03	 9.80421000E-05
					 6.36814000E-04	-9.41074000E-03	 7.70972000E-03
					 0.00000000E+00	 0.00000000E+00	 0.00000000E+00
					 0.00000000E+00	 0.00000000E+00	 0.00000000E+00
					 9.55644000E-05	-9.10402000E-03	 5.69580000E-05
					 1.44054000E-04	-9.61013000E-03	 7.77506000E-03
					 0.00000000E+00	 0.00000000E+00	 0.00000000E+00
					 3.69168000E-05	-2.14907000E-03	 6.41870000E-05
					 3.71653000E-04	-8.99196000E-03	 3.73517000E-03
					 1.03144000E-03	-2.82371000E-03	 3.99554000E-03
					 0.00000000E+00	 0.00000000E+00	 0.00000000E+00
					-4.32169000E-04	-9.23472000E-03	-7.53578000E-03
					 0.00000000E+00	 0.00000000E+00	 0.00000000E+00
					 4.04630000E-05	-9.44314000E-03	-7.68461000E-03
					 0.00000000E+00	 0.00000000E+00	 0.00000000E+00
					-9.61457000E-04	-2.72764000E-03	-3.86871000E-03
					-1.62950000E-04	-8.90666000E-03	-3.54671000E-03
					 2.73128000E-04	-2.98593000E-02	-2.22567000E-04
					-1.41882000E-03	-3.02986000E-02	 1.25971000E-02
					 2.85988000E-04	-3.12798000E-02	-1.49207000E-04
					-8.72947000E-04	-3.17225000E-02	 1.27177000E-02
					 1.72406000E-04	-1.76264000E-02	-9.83073000E-05
					-5.73495000E-04	-3.00216000E-02	 6.11809000E-03
					-1.36823000E-03	-1.81548000E-02	 1.04842000E-02
					 2.78930000E-04	-3.06261000E-02	-1.89240000E-04
					-1.14528000E-03	-3.10642000E-02	 1.26286000E-02
					 1.79697000E-04	-1.87801000E-02	-3.11903000E-05
					-2.87259000E-04	-3.14430000E-02	 6.18725000E-03
					-5.88332000E-04	-1.93109000E-02	 1.06041000E-02
					 1.96312000E-03	-2.99380000E-02	-1.30627000E-02
					 1.43515000E-03	-3.13616000E-02	-1.30368000E-02
					 1.69917000E-03	-1.79064000E-02	-1.07066000E-02
					 1.11822000E-03	-2.98443000E-02	-6.56932000E-03
					 1.69993000E-03	-3.07094000E-02	-1.30238000E-02
					 9.39556000E-04	-1.90496000E-02	-1.06927000E-02
					 8.60885000E-04	-3.12675000E-02	-6.48772000E-03
					 2.95511000E-04	-3.21725000E-02	-6.17296000E-05
					-3.00374000E-04	-3.25934000E-02	 1.27520000E-02
					 2.90866000E-04	-3.17798000E-02	-1.05374000E-04
					-5.86147000E-04	-3.22466000E-02	 1.28185000E-02
					 1.91450000E-04	-1.91627000E-02	 5.34874000E-05
					-9.17804000E-06	-3.23201000E-02	 6.16808000E-03
					 2.08831000E-04	-1.96883000E-02	 1.06336000E-02
					 9.10128000E-04	-3.22432000E-02	-1.28981000E-02
					 1.17226000E-03	-3.18593000E-02	-1.30551000E-02
					 1.81141000E-04	-1.94252000E-02	-1.05506000E-02
					 6.05404000E-04	-3.21524000E-02	-6.29211000E-03
					 5.33674000E-04	-5.88211000E-02	-6.01762000E-04
					-1.53764000E-03	-5.90714000E-02	 1.43082000E-02
					 5.46461000E-04	-6.08134000E-02	-5.11271000E-04
					-1.40236000E-03	-6.11644000E-02	 1.44330000E-02
					 3.95601000E-04	-4.38610000E-02	-3.93133000E-04
					-5.00662000E-04	-5.89305000E-02	 6.80928000E-03
					-1.46737000E-03	-4.42340000E-02	 1.38105000E-02
					 5.41099000E-04	-5.98359000E-02	-5.52279000E-04
					-1.47249000E-03	-6.01456000E-02	 1.43277000E-02
					 4.07141000E-04	-4.55638000E-02	-3.14215000E-04
					-4.52025000E-04	-6.09769000E-02	 6.85920000E-03
					-1.14038000E-03	-4.59454000E-02	 1.39384000E-02
					 2.56589000E-03	-5.86570000E-02	-1.55023000E-02
					 2.49236000E-03	-6.06518000E-02	-1.54798000E-02
					 2.25213000E-03	-4.38108000E-02	-1.46114000E-02
					 1.55502000E-03	-5.87288000E-02	-8.00329000E-03
					 2.52667000E-03	-5.96629000E-02	-1.54515000E-02
					 1.95562000E-03	-4.55048000E-02	-1.45837000E-02
					 1.52110000E-03	-6.07282000E-02	-7.90333000E-03
					 5.54645000E-04	-6.27062000E-02	-4.20498000E-04
					-1.35719000E-03	-6.31743000E-02	 1.44829000E-02
					 5.50706000E-04	-6.17860000E-02	-4.69195000E-04
					-1.38246000E-03	-6.20672000E-02	 1.45507000E-02
					 4.25811000E-04	-4.69561000E-02	-2.27438000E-04
					-3.68716000E-04	-6.29303000E-02	 6.83370000E-03
					-8.42274000E-04	-4.73666000E-02	 1.39744000E-02
					 2.42187000E-03	-6.25712000E-02	-1.53749000E-02
					 2.45724000E-03	-6.16160000E-02	-1.55149000E-02
					 1.65343000E-03	-4.68957000E-02	-1.44505000E-02
					 1.47886000E-03	-6.26442000E-02	-7.72004000E-03
					 9.12940000E-04	-8.83150000E-02	-1.02417000E-03
					-2.01484000E-03	-8.83596000E-02	 1.34615000E-02