# vtk DataFile Version 3.0

ASCII
DATASET UNSTRUCTURED_GRID

POINTS 522 double
	 1.00000000E+00	 1.00000000E+00	-5.96046000E-08
	 1.00000000E+00	 5.00000000E-01	-5.96046000E-08
	 1.00000000E+00	 5.00000000E-01	 1.00000000E+00
	 1.00000000E+00	 1.00000000E+00	 1.00000000E+00
	 5.00000000E-01	 1.00000000E+00	-5.96046000E-08
	 5.00000000E-01	 5.00000000E-01	-5.96046000E-08
	 5.00000000E-01	 5.00000000E-01	 1.00000000E+00
	 5.00000000E-01	 1.00000000E+00	 1.00000000E+00
	 1.00000000E+00	 7.50000000E-01	-5.96046000E-08
	 1.00000000E+00	 5.00000000E-01	 5.00000000E-01
	 1.00000000E+00	 7.50000000E-01	 1.00000000E+00
	 1.00000000E+00	 1.00000000E+00	 5.00000000E-01
	 7.50000000E-01	 1.00000000E+00	-5.96046000E-08
	 7.50000000E-01	 5.00000000E-01	-5.96046000E-08
	 7.50000000E-01	 5.00000000E-01	 1.00000000E+00
	 7.50000000E-01	 1.00000000E+00	 1.00000000E+00
	 5.00000000E-01	 7.50000000E-01	-5.96046000E-08
	 5.00000000E-01	 5.00000000E-01	 5.00000000E-01
	 5.00000000E-01	 7.50000000E-01	 1.00000000E+00
	 5.00000000E-01	 1.00000000E+00	 5.00000000E-01
	 1.00000000E+00	-1.49012000E-08	-5.96046000E-08
	 1.00000000E+00	-1.49012000E-08	 1.00000000E+00
	 5.00000000E-01	-1.49012000E-08	-5.96046000E-08
	 5.00000000E-01	-1.49012000E-08	 1.00000000E+00
	 1.00000000E+00	 2.50000000E-01	-5.96046000E-08
	 1.00000000E+00	-1.49012000E-08	 5.00000000E-01
	 1.00000000E+00	 2.50000000E-01	 1.00000000E+00
	 7.50000000E-01	-1.49012000E-08	-5.96046000E-08
	 7.50000000E-01	-1.49012000E-08	 1.00000000E+00
	 5.00000000E-01	 2.50000000E-01	-5.96046000E-08
	 5.00000000E-01	-1.49012000E-08	 5.00000000E-01
	 5.00000000E-01	 2.50000000E-01	 1.00000000E+00
	-7.45058000E-09	 1.00000000E+00	-5.96046000E-08
	-7.45058000E-09	 5.00000000E-01	-5.96046000E-08
	-7.45058000E-09	 5.00000000E-01	 1.00000000E+00
	-7.45058000E-09	 1.00000000E+00	 1.00000000E+00
	 2.50000000E-01	 1.00000000E+00	-5.96046000E-08
	 2.50000000E-01	 5.00000000E-01	-5.96046000E-08
	 2.50000000E-01	 5.00000000E-01	 1.00000000E+00
	 2.50000000E-01	 1.00000000E+00	 1.00000000E+00
	-7.45058000E-09	 7.50000000E-01	-5.96046000E-08
	-7.45058000E-09	 5.00000000E-01	 5.00000000E-01
	-7.45058000E-09	 7.50000000E-01	 1.00000000E+00
	-7.45058000E-09	 1.00000000E+00	 5.00000000E-01
	-7.45058000E-09	-1.49012000E-08	-5.96046000E-08
	-7.45058000E-09	-1.49012000E-08	 1.00000000E+00
	 2.50000000E-01	-1.49012000E-08	-5.96046000E-08
	 2.50000000E-01	-1.49012000E-08	 1.00000000E+00
	-7.45058000E-09	 2.50000000E-01	-5.96046000E-08
	-7.45058000E-09	-1.49012000E-08	 5.00000000E-01
	-7.45058000E-09	 2.50000000E-01	 1.00000000E+00
	 1.00000000E+00	 5.00000000E-01	 2.00000000E+00
	 1.00000000E+00	 1.00000000E+00	 2.00000000E+00
	 5.00000000E-01	 5.00000000E-01	 2.00000000E+00
	 5.00000000E-01	 1.00000000E+00	 2.00000000E+00
	 1.00000000E+00	 5.00000000E-01	 1.50000000E+00
	 1.00000000E+00	 7.50000000E-01	 2.00000000E+00
	 1.00000000E+00	 1.00000000E+00	 1.50000000E+00
	 7.50000000E-01	 5.00000000E-01	 2.00000000E+00
	 7.50000000E-01	 1.00000000E+00	 2.00000000E+00
	 5.00000000E-01	 5.00000000E-01	 1.50000000E+00
	 5.00000000E-01	 7.50000000E-01	 2.00000000E+00
	 5.00000000E-01	 1.00000000E+00	 1.50000000E+00
	 1.00000000E+00	-1.49012000E-08	 2.00000000E+00
	 5.00000000E-01	-1.49012000E-08	 2.00000000E+00
	 1.00000000E+00	-1.49012000E-08	 1.50000000E+00
	 1.00000000E+00	 2.50000000E-01	 2.00000000E+00
	 7.50000000E-01	-1.49012000E-08	 2.00000000E+00
	 5.00000000E-01	-1.49012000E-08	 1.50000000E+00
	 5.00000000E-01	 2.50000000E-01	 2.00000000E+00
	-7.45058000E-09	 5.00000000E-01	 2.00000000E+00
	-7.45058000E-09	 1.00000000E+00	 2.00000000E+00
	 2.50000000E-01	 5.00000000E-01	 2.00000000E+00
	 2.50000000E-01	 1.00000000E+00	 2.00000000E+00
	-7.45058000E-09	 5.00000000E-01	 1.50000000E+00
	-7.45058000E-09	 7.50000000E-01	 2.00000000E+00
	-7.45058000E-09	 1.00000000E+00	 1.50000000E+00
	-7.45058000E-09	-1.49012000E-08	 2.00000000E+00
	 2.50000000E-01	-1.49012000E-08	 2.00000000E+00
	-7.45058000E-09	-1.49012000E-08	 1.50000000E+00
	-7.45058000E-09	 2.50000000E-01	 2.00000000E+00
	 1.00000000E+00	 5.00000000E-01	 3.00000000E+00
	 1.00000000E+00	 1.00000000E+00	 3.00000000E+00
	 5.00000000E-01	 5.00000000E-01	 3.00000000E+00
	 5.00000000E-01	 1.00000000E+00	 3.00000000E+00
	 1.00000000E+00	 5.00000000E-01	 2.50000000E+00
	 1.00000000E+00	 7.50000000E-01	 3.00000000E+00
	 1.00000000E+00	 1.00000000E+00	 2.50000000E+00
	 7.50000000E-01	 5.00000000E-01	 3.00000000E+00
	 7.50000000E-01	 1.00000000E+00	 3.00000000E+00
	 5.00000000E-01	 5.00000000E-01	 2.50000000E+00
	 5.00000000E-01	 7.50000000E-01	 3.00000000E+00
	 5.00000000E-01	 1.00000000E+00	 2.50000000E+00
	 1.00000000E+00	-1.49012000E-08	 3.00000000E+00
	 5.00000000E-01	-1.49012000E-08	 3.00000000E+00
	 1.00000000E+00	-1.49012000E-08	 2.50000000E+00
	 1.00000000E+00	 2.50000000E-01	 3.00000000E+00
	 7.50000000E-01	-1.49012000E-08	 3.00000000E+00
	 5.00000000E-01	-1.49012000E-08	 2.50000000E+00
	 5.00000000E-01	 2.50000000E-01	 3.00000000E+00
	-7.45058000E-09	 5.00000000E-01	 3.00000000E+00
	-7.45058000E-09	 1.00000000E+00	 3.00000000E+00
	 2.50000000E-01	 5.00000000E-01	 3.00000000E+00
	 2.50000000E-01	 1.00000000E+00	 3.00000000E+00
	-7.45058000E-09	 5.00000000E-01	 2.50000000E+00
	-7.45058000E-09	 7.50000000E-01	 3.00000000E+00
	-7.45058000E-09	 1.00000000E+00	 2.50000000E+00
	-7.45058000E-09	-1.49012000E-08	 3.00000000E+00
	 2.50000000E-01	-1.49012000E-08	 3.00000000E+00
	-7.45058000E-09	-1.49012000E-08	 2.50000000E+00
	-7.45058000E-09	 2.50000000E-01	 3.00000000E+00
	 1.00000000E+00	 5.00000000E-01	 4.00000000E+00
	 1.00000000E+00	 1.00000000E+00	 4.00000000E+00
	 5.00000000E-01	 5.00000000E-01	 4.00000000E+00
	 5.00000000E-01	 1.00000000E+00	 4.00000000E+00
	 1.00000000E+00	 5.00000000E-01	 3.50000000E+00
	 1.00000000E+00	 7.50000000E-01	 4.00000000E+00
	 1.00000000E+00	 1.00000000E+00	 3.50000000E+00
	 7.50000000E-01	 5.00000000E-01	 4.00000000E+00
	 7.50000000E-01	 1.00000000E+00	 4.00000000E+00
	 5.00000000E-01	 5.00000000E-01	 3.50000000E+00
	 5.00000000E-01	 7.50000000E-01	 4.00000000E+00
	 5.00000000E-01	 1.00000000E+00	 3.50000000E+00
	 1.00000000E+00	-1.49012000E-08	 4.00000000E+00
	 5.00000000E-01	-1.49012000E-08	 4.00000000E+00
	 1.00000000E+00	-1.49012000E-08	 3.50000000E+00
	 1.00000000E+00	 2.50000000E-01	 4.00000000E+00
	 7.50000000E-01	-1.49012000E-08	 4.00000000E+00
	 5.00000000E-01	-1.49012000E-08	 3.50000000E+00
	 5.00000000E-01	 2.50000000E-01	 4.00000000E+00
	-7.45058000E-09	 5.00000000E-01	 4.00000000E+00
	-7.45058000E-09	 1.00000000E+00	 4.00000000E+00
	 2.50000000E-01	 5.00000000E-01	 4.00000000E+00
	 2.50000000E-01	 1.00000000E+00	 4.00000000E+00
	-7.45058000E-09	 5.00000000E-01	 3.50000000E+00
	-7.45058000E-09	 7.50000000E-01	 4.00000000E+00
	-7.45058000E-09	 1.00000000E+00	 3.50000000E+00
	-7.45058000E-09	-1.49012000E-08	 4.00000000E+00
	 2.50000000E-01	-1.49012000E-08	 4.00000000E+00
	-7.45058000E-09	-1.49012000E-08	 3.50000000E+00
	-7.45058000E-09	 2.50000000E-01	 4.00000000E+00
	 1.00000000E+00	 5.00000000E-01	 5.00000000E+00
	 1.00000000E+00	 1.00000000E+00	 5.00000000E+00
	 5.00000000E-01	 5.00000000E-01	 5.00000000E+00
	 5.00000000E-01	 1.00000000E+00	 5.00000000E+00
	 1.00000000E+00	 5.00000000E-01	 4.50000000E+00
	 1.00000000E+00	 7.50000000E-01	 5.00000000E+00
	 1.00000000E+00	 1.00000000E+00	 4.50000000E+00
	 7.50000000E-01	 5.00000000E-01	 5.00000000E+00
	 7.50000000E-01	 1.00000000E+00	 5.00000000E+00
	 5.00000000E-01	 5.00000000E-01	 4.50000000E+00
	 5.00000000E-01	 7.50000000E-01	 5.00000000E+00
	 5.00000000E-01	 1.00000000E+00	 4.50000000E+00
	 1.00000000E+00	-1.49012000E-08	 5.00000000E+00
	 5.00000000E-01	-1.49012000E-08	 5.00000000E+00
	 1.00000000E+00	-1.49012000E-08	 4.50000000E+00
	 1.00000000E+00	 2.50000000E-01	 5.00000000E+00
	 7.50000000E-01	-1.49012000E-08	 5.00000000E+00
	 5.00000000E-01	-1.49012000E-08	 4.50000000E+00
	 5.00000000E-01	 2.50000000E-01	 5.00000000E+00
	-7.45058000E-09	 5.00000000E-01	 5.00000000E+00
	-7.45058000E-09	 1.00000000E+00	 5.00000000E+00
	 2.50000000E-01	 5.00000000E-01	 5.00000000E+00
	 2.50000000E-01	 1.00000000E+00	 5.00000000E+00
	-7.45058000E-09	 5.00000000E-01	 4.50000000E+00
	-7.45058000E-09	 7.50000000E-01	 5.00000000E+00
	-7.45058000E-09	 1.00000000E+00	 4.50000000E+00
	-7.45058000E-09	-1.49012000E-08	 5.00000000E+00
	 2.50000000E-01	-1.49012000E-08	 5.00000000E+00
	-7.45058000E-09	-1.49012000E-08	 4.50000000E+00
	-7.45058000E-09	 2.50000000E-01	 5.00000000E+00
	 1.00000000E+00	 5.00000000E-01	 6.00000000E+00
	 1.00000000E+00	 1.00000000E+00	 6.00000000E+00
	 5.00000000E-01	 5.00000000E-01	 6.00000000E+00
	 5.00000000E-01	 1.00000000E+00	 6.00000000E+00
	 1.00000000E+00	 5.00000000E-01	 5.50000000E+00
	 1.00000000E+00	 7.50000000E-01	 6.00000000E+00
	 1.00000000E+00	 1.00000000E+00	 5.50000000E+00
	 7.50000000E-01	 5.00000000E-01	 6.00000000E+00
	 7.50000000E-01	 1.00000000E+00	 6.00000000E+00
	 5.00000000E-01	 5.00000000E-01	 5.50000000E+00
	 5.00000000E-01	 7.50000000E-01	 6.00000000E+00
	 5.00000000E-01	 1.00000000E+00	 5.50000000E+00
	 1.00000000E+00	-1.49012000E-08	 6.00000000E+00
	 5.00000000E-01	-1.49012000E-08	 6.00000000E+00
	 1.00000000E+00	-1.49012000E-08	 5.50000000E+00
	 1.00000000E+00	 2.50000000E-01	 6.00000000E+00
	 7.50000000E-01	-1.49012000E-08	 6.00000000E+00
	 5.00000000E-01	-1.49012000E-08	 5.50000000E+00
	 5.00000000E-01	 2.50000000E-01	 6.00000000E+00
	-7.45058000E-09	 5.00000000E-01	 6.00000000E+00
	-7.45058000E-09	 1.00000000E+00	 6.00000000E+00
	 2.50000000E-01	 5.00000000E-01	 6.00000000E+00
	 2.50000000E-01	 1.00000000E+00	 6.00000000E+00
	-7.45058000E-09	 5.00000000E-01	 5.50000000E+00
	-7.45058000E-09	 7.50000000E-01	 6.00000000E+00
	-7.45058000E-09	 1.00000000E+00	 5.50000000E+00
	-7.45058000E-09	-1.49012000E-08	 6.00000000E+00
	 2.50000000E-01	-1.49012000E-08	 6.00000000E+00
	-7.45058000E-09	-1.49012000E-08	 5.50000000E+00
	-7.45058000E-09	 2.50000000E-01	 6.00000000E+00
	 1.00000000E+00	 5.00000000E-01	 7.00000000E+00
[...]
POINT_DATA 522
FIELD U 1
	U 3 522 double
		 0.00000000E+00	 0.00000000E+00	 0.00000000E+00
		 0.00000000E+00	 0.00000000E+00	 0.00000000E+00
		-1.40638000E-05	-4.73729000E-03	 6.63024000E-05
		 9.62674000E-05	-4.85865000E-03	 3.31801000E-03
		 0.00000000E+00	 0.00000000E+00	 0.00000000E+00
		 0.00000000E+00	 0.00000000E+00	 0.00000000E+00
		 2.65211000E-06	-4.49988000E-03	 1.83316000E-05
		 2.90056000E-04	-4.71302000E-03	 3.33816000E-03
		 0.00000000E+00	 0.00000000E+00	 0.00000000E+00
		 6.35725000E-06	-1.37809000E-03	 2.97208000E-05
		 1.78971000E-05	-4.72089000E-03	 1.54202000E-03
		-4.02493000E-04	-1.62619000E-03	 1.88349000E-03
		 0.00000000E+00	 0.00000000E+00	 0.00000000E+00
		 0.00000000E+00	 0.00000000E+00	 0.00000000E+00
		 2.03274000E-06	-4.66847000E-03	 2.73790000E-05
		 1.97880000E-04	-4.79457000E-03	 3.36379000E-03
		 0.00000000E+00	 0.00000000E+00	 0.00000000E+00
		-3.83197000E-06	-1.41488000E-03	 2.56494000E-05
		 1.44250000E-04	-4.53999000E-03	 1.59390000E-03
		 1.16827000E-04	-1.74670000E-03	 1.80573000E-03
		 0.00000000E+00	 0.00000000E+00	 0.00000000E+00
		 2.53694000E-05	-4.77113000E-03	-3.19754000E-03
		 0.00000000E+00	 0.00000000E+00	 0.00000000E+00
		-2.75870000E-04	-4.72296000E-03	-3.25494000E-03
		 0.00000000E+00	 0.00000000E+00	 0.00000000E+00
		 3.67427000E-04	-1.62712000E-03	-1.79168000E-03
		 3.77542000E-06	-4.68829000E-03	-1.44399000E-03
		 0.00000000E+00	 0.00000000E+00	 0.00000000E+00
		-1.44015000E-04	-4.77131000E-03	-3.29334000E-03
		 0.00000000E+00	 0.00000000E+00	 0.00000000E+00
		-1.09188000E-04	-1.73202000E-03	-1.72890000E-03
		-1.23951000E-04	-4.52842000E-03	-1.54804000E-03
		 0.00000000E+00	 0.00000000E+00	 0.00000000E+00
		 0.00000000E+00	 0.00000000E+00	 0.00000000E+00
		-1.27212000E-05	-4.12889000E-03	 3.27211000E-05
		 6.28384000E-04	-4.22291000E-03	 3.24983000E-03
		 0.00000000E+00	 0.00000000E+00	 0.00000000E+00
		 0.00000000E+00	 0.00000000E+00	 0.00000000E+00
		-1.59412000E-05	-4.36990000E-03	 2.32353000E-05
		 4.56992000E-04	-4.53130000E-03	 3.25888000E-03
		 0.00000000E+00	 0.00000000E+00	 0.00000000E+00
		-1.15006000E-05	-1.10558000E-03	 1.78820000E-05
		 2.84549000E-04	-4.09796000E-03	 1.60633000E-03
		 6.07916000E-04	-1.36970000E-03	 1.75972000E-03
		 0.00000000E+00	 0.00000000E+00	 0.00000000E+00
		-6.48515000E-04	-4.20602000E-03	-3.24477000E-03
		 0.00000000E+00	 0.00000000E+00	 0.00000000E+00
		-4.44689000E-04	-4.52693000E-03	-3.22766000E-03
		 0.00000000E+00	 0.00000000E+00	 0.00000000E+00
		-5.92537000E-04	-1.31901000E-03	-1.77005000E-03
		-2.77338000E-04	-4.11082000E-03	-1.58138000E-03
		 3.34867000E-05	-1.36845000E-02	-8.16821000E-05
		 2.15554000E-04	-1.37251000E-02	 4.97714000E-03
		 1.80238000E-06	-1.33639000E-02	-1.12206000E-04
		 4.35585000E-04	-1.35454000E-02	 4.93213000E-03
		 3.42602000E-05	-8.79497000E-03	-2.37112000E-06
		 1.41211000E-04	-1.36842000E-02	 2.43814000E-03
		 1.71026000E-04	-8.99047000E-03	 4.23909000E-03
		 9.94753000E-06	-1.35250000E-02	-8.98511000E-05
		 3.29307000E-04	-1.36926000E-02	 4.96125000E-03
		 1.63129000E-05	-8.53498000E-03	-2.64394000E-05
		 2.10708000E-04	-1.34344000E-02	 2.41122000E-03
		 4.27860000E-04	-8.66226000E-03	 4.22848000E-03
		-1.98303000E-04	-1.37085000E-02	-5.11963000E-03
		-3.26236000E-04	-1.34803000E-02	-5.10328000E-03
		-1.37766000E-04	-8.96574000E-03	-4.27249000E-03
		-8.23363000E-05	-1.36790000E-02	-2.57021000E-03
		-2.56177000E-04	-1.36130000E-02	-5.09798000E-03
		-4.01383000E-04	-8.67321000E-03	-4.30241000E-03
		-1.69839000E-04	-1.34048000E-02	-2.57871000E-03
		 1.15516000E-05	-1.29054000E-02	-9.52556000E-05
		 6.25709000E-04	-1.29281000E-02	 4.95311000E-03
		 1.31250000E-05	-1.31387000E-02	-1.07900000E-04
		 5.18209000E-04	-1.32630000E-02	 4.96720000E-03
		 9.75687000E-06	-7.97486000E-03	-1.62987000E-05
		 3.18741000E-04	-1.29066000E-02	 2.39917000E-03
		 7.05097000E-04	-8.09545000E-03	 4.23132000E-03
		-4.67804000E-04	-1.30089000E-02	-5.13017000E-03
		-4.00741000E-04	-1.32467000E-02	-5.14188000E-03
		-6.80194000E-04	-8.11390000E-03	-4.28425000E-03
		-2.66581000E-04	-1.29404000E-02	-2.54255000E-03
		 5.29901000E-05	-2.50066000E-02	-8.25835000E-05
		 1.75317000E-04	-2.50515000E-02	 5.98670000E-03
		 2.98742000E-05	-2.47224000E-02	-4.64946000E-05
		 3.53701000E-04	-2.49260000E-02	 6.09244000E-03
		 2.41788000E-05	-1.90326000E-02	-8.66996000E-05
		 1.22132000E-04	-2.50164000E-02	 2.96684000E-03
		 1.47917000E-04	-1.91682000E-02	 5.53408000E-03
		 4.53534000E-05	-2.48936000E-02	-8.19254000E-05
		 2.58193000E-04	-2.50026000E-02	 6.04409000E-03
		 4.53929000E-05	-1.88237000E-02	-7.39357000E-05
		 1.96663000E-04	-2.48119000E-02	 2.98767000E-03
		 3.42055000E-04	-1.89066000E-02	 5.53018000E-03
		-1.79293000E-04	-2.50417000E-02	-6.25090000E-03
		-2.24250000E-04	-2.47743000E-02	-6.20152000E-03
		-1.20124000E-04	-1.90946000E-02	-5.70405000E-03
		-6.16511000E-05	-2.50005000E-02	-3.18225000E-03
		-2.07754000E-04	-2.49262000E-02	-6.22019000E-03
		-2.89837000E-04	-1.88301000E-02	-5.70095000E-03
		-1.09855000E-04	-2.47211000E-02	-3.11919000E-03
		 2.75993000E-05	-2.43667000E-02	-2.64911000E-05
		 5.42563000E-04	-2.44825000E-02	 6.04380000E-03
		 1.91950000E-05	-2.45731000E-02	-3.98353000E-05
		 4.68825000E-04	-2.46987000E-02	 6.07913000E-03
		 5.69661000E-05	-1.83652000E-02	-6.87878000E-05
		 2.82424000E-04	-2.44019000E-02	 2.99295000E-03
		 5.50603000E-04	-1.85335000E-02	 5.55443000E-03
		-3.27343000E-04	-2.44700000E-02	-6.18008000E-03
		-2.81566000E-04	-2.46045000E-02	-6.17502000E-03
		-3.99564000E-04	-1.84768000E-02	-5.70225000E-03
		-1.58743000E-04	-2.43999000E-02	-3.11935000E-03
		 8.12368000E-05	-3.81912000E-02	-2.01333000E-04
		 4.26846000E-04	-3.83491000E-02	 6.75138000E-03
		 4.01950000E-05	-3.78536000E-02	-1.81053000E-04
		 5.18917000E-04	-3.79345000E-02	 6.82039000E-03
		 8.53519000E-05	-3.14046000E-02	-1.46200000E-04
		 2.19289000E-04	-3.82484000E-02	 3.29298000E-03
		 3.05691000E-04	-3.15290000E-02	 6.34212000E-03
		 5.49024000E-05	-3.80348000E-02	-1.75299000E-04
		 4.84591000E-04	-3.81636000E-02	 6.77079000E-03
		 4.20628000E-05	-3.10910000E-02	-9.17883000E-05
		 2.68580000E-04	-3.78758000E-02	 3.30925000E-03
		 4.49142000E-04	-3.11930000E-02	 6.49185000E-03
		-1.77752000E-04	-3.82057000E-02	-7.16041000E-03
		-3.94505000E-04	-3.78784000E-02	-7.14721000E-03
		-1.82051000E-04	-3.14103000E-02	-6.65781000E-03
		-5.71787000E-05	-3.81820000E-02	-3.69735000E-03
		-2.78000000E-04	-3.80469000E-02	-7.16574000E-03
		-3.07965000E-04	-3.11280000E-02	-6.66607000E-03
		-1.49994000E-04	-3.78551000E-02	-3.68640000E-03
		 1.75212000E-05	-3.73842000E-02	-1.67327000E-04
		 6.29515000E-04	-3.73772000E-02	 6.77455000E-03
		 4.02739000E-05	-3.76335000E-02	-1.69376000E-04
		 5.45453000E-04	-3.77091000E-02	 6.77440000E-03
		 2.83343000E-05	-3.06532000E-02	-1.05905000E-04
		 3.09921000E-04	-3.73677000E-02	 3.33582000E-03
		 5.84843000E-04	-3.07582000E-02	 6.42746000E-03
		-5.34187000E-04	-3.73236000E-02	-7.12724000E-03
		-4.63639000E-04	-3.76329000E-02	-7.16086000E-03
		-4.40800000E-04	-3.06894000E-02	-6.65413000E-03
		-2.51871000E-04	-3.73406000E-02	-3.63349000E-03
		 7.76432000E-05	-5.28207000E-02	-4.29768000E-04
		 7.19256000E-05	-5.28873000E-02	 7.42327000E-03
		 1.05193000E-04	-5.26805000E-02	-4.05819000E-04
		 2.63969000E-04	-5.27793000E-02	 7.40895000E-03
		 9.19742000E-05	-4.53107000E-02	-2.92853000E-04
		 1.23733000E-04	-5.28553000E-02	 3.47273000E-03
		 2.80313000E-04	-4.53925000E-02	 7.13836000E-03
		 8.33638000E-05	-5.27720000E-02	-4.14841000E-04
		 1.64413000E-04	-5.28660000E-02	 7.40166000E-03
		 8.29898000E-05	-4.50521000E-02	-3.18331000E-04
		 1.81997000E-04	-5.27158000E-02	 3.51801000E-03
		 3.98227000E-04	-4.51405000E-02	 7.09050000E-03
		 1.59363000E-05	-5.28410000E-02	-8.19350000E-03
		-5.61262000E-05	-5.26767000E-02	-8.22958000E-03
		-8.46982000E-05	-4.52946000E-02	-7.70759000E-03
		 1.94024000E-05	-5.28322000E-02	-4.29639000E-03
		-2.23640000E-05	-5.27925000E-02	-8.20558000E-03
		-3.01291000E-04	-4.50889000E-02	-7.69487000E-03
		 1.06763000E-05	-5.26672000E-02	-4.26546000E-03
		 1.18327000E-04	-5.24931000E-02	-3.73516000E-04
		 4.26003000E-04	-5.25585000E-02	 7.50321000E-03
		 1.16497000E-04	-5.26112000E-02	-3.69640000E-04
		 3.47445000E-04	-5.26869000E-02	 7.52137000E-03
		 5.35521000E-05	-4.46514000E-02	-2.58128000E-04
		 2.69350000E-04	-5.25238000E-02	 3.48901000E-03
		 5.65039000E-04	-4.47345000E-02	 7.14849000E-03
		-1.17611000E-04	-5.25139000E-02	-8.08963000E-03
		-9.05938000E-05	-5.26151000E-02	-8.17609000E-03
		-4.38204000E-04	-4.46341000E-02	-7.62156000E-03
		 1.01608000E-05	-5.24853000E-02	-4.21215000E-03
		 1.19457000E-04	-6.89286000E-02	-5.46939000E-04
		 1.26272000E-04	-6.90845000E-02	 7.53532000E-03
		 7.08583000E-05	-6.90432000E-02	-4.52095000E-04
		-6.40967000E-05	-6.90692000E-02	 7.65882000E-03
		 5.06141000E-05	-6.07802000E-02	-4.97030000E-04
		 8.08750000E-05	-6.90063000E-02	 3.53402000E-03
		-1.56323000E-06	-6.08391000E-02	 7.55988000E-03
		 9.59706000E-05	-6.89504000E-02	-4.99747000E-04
		 3.58872000E-05	-6.90501000E-02	 7.58134000E-03
		 6.68189000E-05	-6.08087000E-02	-4.20518000E-04
		 1.77635000E-05	-6.90488000E-02	 3.58266000E-03
		 9.32893000E-05	-6.08887000E-02	 7.63974000E-03
		 1.91947000E-04	-6.88535000E-02	-8.65766000E-03
		 2.10973000E-04	-6.89367000E-02	-8.54556000E-03
		 8.38611000E-05	-6.07453000E-02	-8.49157000E-03
		 1.70317000E-04	-6.88716000E-02	-4.62034000E-03
		 2.20525000E-04	-6.88537000E-02	-8.55534000E-03
		 4.42640000E-05	-6.07633000E-02	-8.45890000E-03
		 1.40914000E-04	-6.89992000E-02	-4.50459000E-03
		 9.96886000E-05	-6.91335000E-02	-3.15336000E-04
		-8.26259000E-05	-6.92594000E-02	 7.73087000E-03
		 8.38671000E-05	-6.90539000E-02	-3.89646000E-04
		-8.31954000E-05	-6.91684000E-02	 7.72892000E-03
		 9.40472000E-05	-6.07201000E-02	-3.74345000E-04
		-1.86986000E-05	-6.92078000E-02	 3.60953000E-03
		 1.77540000E-04	-6.08011000E-02	 7.65323000E-03
		 8.30761000E-05	-6.89388000E-02	-8.46751000E-03
		 1.49631000E-04	-6.89715000E-02	-8.54417000E-03
		-4.32431000E-05	-6.06320000E-02	-8.34840000E-03
		 1.32792000E-04	-6.90451000E-02	-4.39281000E-03
		 8.30041000E-05	-8.38908000E-02	-5.20823000E-04
		-1.23517000E-03	-8.40093000E-02	 7.62789000E-03
		 1.18528000E-04	-8.50917000E-02	-6.69685000E-04
		-1.03605000E-03	-8.51551000E-02	 7.50992000E-03
		 1.43322000E-04	-7.64430000E-02	-5.38356000E-04
		-5.25145000E-04	-8.39385000E-02	 3.68927000E-03
		-4.39522000E-04	-7.65457000E-02	 7.52942000E-03
		 1.11649000E-04	-8.45157000E-02	-5.84361000E-04
		-1.15435000E-03	-8.46116000E-02	 7.45285000E-03
		 1.42400000E-04	-7.70677000E-02	-5.63745000E-04
		-4.58402000E-04	-8.51249000E-02	 3.44901000E-03
		-4.51069000E-04	-7.71225000E-02	 7.49656000E-03
		 1.16878000E-03	-8.38945000E-02	-8.69143000E-03
		 1.26259000E-03	-8.50469000E-02	-8.73630000E-03
		 7.62813000E-04	-7.63961000E-02	-8.61423000E-03
		 6.48708000E-04	-8.38978000E-02	-4.70135000E-03
		 1.19854000E-03	-8.44719000E-02	-8.68567000E-03
		 7.61288000E-04	-7.69830000E-02	-8.61244000E-03
		 6.66984000E-04	-8.50570000E-02	-4.69714000E-03
		 1.18470000E-04	-8.61703000E-02	-6.80645000E-04
		-8.58082000E-04	-8.62555000E-02	 7.50750000E-03
		 1.15327000E-04	-8.56831000E-02	-6.46939000E-04
		-9.26304000E-04	-8.57669000E-02	 7.58959000E-03
		 1.32204000E-04	-7.76333000E-02	-4.91333000E-04
		-3.70575000E-04	-8.61830000E-02	 3.35891000E-03
		-4.42751000E-04	-7.76613000E-02	 7.62397000E-03
		 1.29943000E-03	-8.61577000E-02	-8.75142000E-03
		 1.30030000E-03	-8.55891000E-02	-8.90274000E-03
		 6.38136000E-04	-7.75653000E-02	-8.56110000E-03
		 6.66786000E-04	-8.61813000E-02	-4.55794000E-03
		 6.77422000E-04	-9.98657000E-02	-9.52341000E-04
		-2.25843000E-03	-1.00209000E-01	 8.36957000E-03
		 2.21341000E-04	-1.01823000E-01	-5.35266000E-04
		-2.11097000E-03	-1.02150000E-01	 7.88874000E-03
		 6.18256000E-05	-9.17284000E-02	-6.58948000E-04
		-7.14466000E-04	-1.00032000E-01	 3.58660000E-03
		-1.76184000E-03	-9.15955000E-02	 7.87504000E-03
		 4.47219000E-04	-1.00831000E-01	-6.92593000E-04
		-2.12901000E-03	-1.01304000E-01	 8.15245000E-03
		 1.07370000E-04	-9.33562000E-02	-6.15506000E-04
		-9.95185000E-04	-1.01995000E-01	 3.59671000E-03
		-1.47052000E-03	-9.35249000E-02	 7.76026000E-03
		 2.47735000E-03	-9.94618000E-02	-9.27353000E-03
		 2.18312000E-03	-1.01192000E-01	-8.72575000E-03
		 1.69069000E-03	-9.17583000E-02	-8.99555000E-03
		 1.59757000E-03	-9.96516000E-02	-5.21857000E-03
		 2.30884000E-03	-1.00408000E-01	-8.86546000E-03
		 1.69484000E-03	-9.31884000E-02	-8.76963000E-03
		 1.26368000E-03	-1.01506000E-01	-4.69760000E-03
		-1.75215000E-04	-1.03613000E-01	-9.07765000E-04
		-2.20636000E-03	-1.04253000E-01	 7.60772000E-03
		 2.21982000E-05	-1.02654000E-01	-6.86835000E-04
		-2.13365000E-03	-1.03043000E-01	 7.79356000E-03
		 1.29783000E-04	-9.49566000E-02	-8.04557000E-04
		-1.13915000E-03	-1.03959000E-01	 3.21729000E-03
		-1.50930000E-03	-9.50290000E-02	 7.56490000E-03
		 2.07279000E-03	-1.03028000E-01	-8.66449000E-03
		 2.07056000E-03	-1.02065000E-01	-8.63323000E-03
		 1.92100000E-03	-9.50811000E-02	-8.78724000E-03
		 8.94637000E-04	-1.03270000E-01	-4.88813000E-03
		 0.00000000E+00	 0.00000000E+00	 0.00000000E+00
		 0.00000000E+00	 0.00000000E+00	 0.00000000E+00
		-1.42164000E-04	-6.62364000E-03	-6.47539000E-05
		-1.93334000E-03	-7.10086000E-03	 6.66571000E-03
		 0.00000000E+00	 0.00000000E+00	 0.00000000E+00
		 0.00000000E+00	 0.00000000E+00	 0.00000000E+00
		-1.13875000E-04	-8.12502000E-03	-2.63595000E-04
		-9.96539000E-04	-8.35149000E-03	 6.78232000E-03
		 0.00000000E+00	 0.00000000E+00	 0.00000000E+00
		-1.57724000E-05	-1.39188000E-03	-2.48395000E-05
		-9.98076000E-04	-6.70768000E-03	 3.27519000E-03
		-1.46227000E-03	-1.91564000E-03	 3.44757000E-03
		 0.00000000E+00	 0.00000000E+00	 0.00000000E+00
		 0.00000000E+00	 0.00000000E+00	 0.00000000E+00
		-1.22678000E-04	-7.52386000E-03	-1.69927000E-04
		-1.46716000E-03	-7.95497000E-03	 6.61567000E-03
		 0.00000000E+00	 0.00000000E+00	 0.00000000E+00
		-3.57050000E-05	-2.20573000E-03	-9.07463000E-05
		-5.67847000E-04	-8.08821000E-03	 3.13077000E-03
		-4.25168000E-04	-2.74153000E-03	 3.38995000E-03
		 0.00000000E+00	 0.00000000E+00	 0.00000000E+00
		 1.72156000E-03	-7.13002000E-03	-6.99369000E-03
		 0.00000000E+00	 0.00000000E+00	 0.00000000E+00
		 8.30679000E-04	-8.50462000E-03	-7.26904000E-03
		 0.00000000E+00	 0.00000000E+00	 0.00000000E+00
		 1.37865000E-03	-1.99281000E-03	-3.51852000E-03
		 7.84427000E-04	-6.72568000E-03	-3.53765000E-03
		 0.00000000E+00	 0.00000000E+00	 0.00000000E+00
		 1.27473000E-03	-7.98156000E-03	-7.07597000E-03
		 0.00000000E+00	 0.00000000E+00	 0.00000000E+00
		 3.42837000E-04	-2.80473000E-03	-3.57065000E-03
		 3.70606000E-04	-8.15512000E-03	-3.63095000E-03
		 0.00000000E+00	 0.00000000E+00	 0.00000000E+00
		 0.00000000E+00	 0.00000000E+00	 0.00000000E+00
		-1.50396000E-04	-8.58517000E-03	-2.75587000E-04
		-2.64120000E-04	-8.99074000E-03	 6.53799000E-03
		 0.00000000E+00	 0.00000000E+00	 0.00000000E+00
		 0.00000000E+00	 0.00000000E+00	 0.00000000E+00
		-1.34178000E-04	-8.51208000E-03	-2.79033000E-04
		-6.13581000E-04	-8.75972000E-03	 6.78251000E-03
		 0.00000000E+00	 0.00000000E+00	 0.00000000E+00
		-8.06679000E-05	-2.13621000E-03	-1.28198000E-04
		-1.03466000E-04	-8.61302000E-03	 2.89721000E-03
		 5.11777000E-04	-2.79092000E-03	 3.40105000E-03
		 0.00000000E+00	 0.00000000E+00	 0.00000000E+00
		-1.72684000E-05	-8.94852000E-03	-7.23998000E-03
		 0.00000000E+00	 0.00000000E+00	 0.00000000E+00
		 4.21155000E-04	-8.83259000E-03	-7.38886000E-03
		 0.00000000E+00	 0.00000000E+00	 0.00000000E+00
		-7.36922000E-04	-2.70459000E-03	-3.74058000E-03
		-1.28071000E-04	-8.62258000E-03	-3.50022000E-03
		-2.02723000E-04	-2.63346000E-02	-6.63907000E-04
		-2.23899000E-03	-2.66422000E-02	 1.05173000E-02
		-2.09463000E-04	-2.82203000E-02	-7.34101000E-04
		-1.71708000E-03	-2.83903000E-02	 1.05621000E-02
		-9.75325000E-05	-1.53581000E-02	-3.39540000E-04
		-1.23520000E-03	-2.64423000E-02	 4.85481000E-03
		-2.15684000E-03	-1.56473000E-02	 9.01918000E-03
		-2.08343000E-04	-2.73576000E-02	-7.02051000E-04
		-1.98272000E-03	-2.75344000E-02	 1.05491000E-02
		-1.31542000E-04	-1.70245000E-02	-4.66573000E-04
		-9.63043000E-04	-2.82598000E-02	 4.78354000E-03
		-1.50391000E-03	-1.74159000E-02	 9.05227000E-03
		 1.78955000E-03	-2.66232000E-02	-1.17894000E-02
		 1.34774000E-03	-2.82692000E-02	-1.19492000E-02
		 1.81667000E-03	-1.56921000E-02	-9.75889000E-03
		 8.20331000E-04	-2.64548000E-02	-6.13693000E-03
		 1.57712000E-03	-2.74542000E-02	-1.18719000E-02
		 1.16480000E-03	-1.73255000E-02	-9.97056000E-03
		 5.72459000E-04	-2.82108000E-02	-6.21722000E-03
		-1.94678000E-04	-2.95412000E-02	-8.74355000E-04
		-1.30898000E-03	-2.97983000E-02	 1.03982000E-02
		-2.03442000E-04	-2.89207000E-02	-7.66955000E-04
		-1.50499000E-03	-2.91690000E-02	 1.04909000E-02
		-1.58516000E-04	-1.80764000E-02	-5.76740000E-04
		-7.84143000E-04	-2.96175000E-02	 4.69635000E-03
		-1.00304000E-03	-1.85413000E-02	 8.85587000E-03
		 1.00605000E-03	-2.97074000E-02	-1.19359000E-02
		 1.15875000E-03	-2.90277000E-02	-1.20217000E-02
		 5.92482000E-04	-1.84330000E-02	-9.97553000E-03
		 3.98007000E-04	-2.95826000E-02	-6.24626000E-03
		-1.71725000E-04	-5.15493000E-02	-1.18178000E-03
		-2.22013000E-03	-5.16046000E-02	 1.10087000E-02
		-1.58437000E-04	-5.36050000E-02	-1.12656000E-03
		-2.21755000E-03	-5.37714000E-02	 1.11035000E-02
		-2.35332000E-04	-3.87035000E-02	-9.34161000E-04
		-1.19350000E-03	-5.15915000E-02	 4.80302000E-03
		-2.08818000E-03	-3.89740000E-02	 1.12076000E-02
		-1.59456000E-04	-5.25404000E-02	-1.16140000E-03
		-2.23727000E-03	-5.26299000E-02	 1.10465000E-02
		-2.07101000E-04	-4.05962000E-02	-9.49030000E-04
		-1.23045000E-03	-5.36993000E-02	 4.91310000E-03
		-1.99940000E-03	-4.08755000E-02	 1.12308000E-02
		 1.71924000E-03	-5.14395000E-02	-1.34886000E-02
		 1.97309000E-03	-5.33445000E-02	-1.34747000E-02
		 1.79206000E-03	-3.86652000E-02	-1.30077000E-02
		 8.45422000E-04	-5.14838000E-02	-7.23237000E-03
		 1.81914000E-03	-5.23637000E-02	-1.34515000E-02
		 1.62847000E-03	-4.05779000E-02	-1.31095000E-02
		 9.03061000E-04	-5.34783000E-02	-7.24273000E-03
		-1.64499000E-04	-5.57715000E-02	-1.05513000E-03
		-2.21420000E-03	-5.58217000E-02	 1.11859000E-02
		-1.66868000E-04	-5.46767000E-02	-1.11774000E-03
		-2.24514000E-03	-5.47269000E-02	 1.12402000E-02
		-1.84988000E-04	-4.23434000E-02	-9.64388000E-04
		-1.21048000E-03	-5.58183000E-02	 4.84617000E-03
		-1.81395000E-03	-4.25060000E-02	 1.11293000E-02
		 2.17945000E-03	-5.56137000E-02	-1.34387000E-02
		 2.09575000E-03	-5.44840000E-02	-1.34818000E-02
		 1.45240000E-03	-4.22464000E-02	-1.30241000E-02
		 9.88077000E-04	-5.57081000E-02	-7.11140000E-03
		 1.76051000E-04	-7.54495000E-02	-1.78690000E-03
		-1.94983000E-03	-7.53223000E-02	 8.83293000E-03
		 1.91338000E-04	-7.79691000E-02	-1.65630000E-03
		-2.46395000E-03	-7.81732000E-02	 9.03534000E-03
		-3.01172000E-05	-6.39255000E-02	-1.52119000E-03
		-8.72145000E-04	-7.54324000E-02	 3.42044000E-03
		-2.12331000E-03	-6.39595000E-02	 1.01670000E-02
		 1.73616000E-04	-7.66475000E-02	-1.69888000E-03
		-2.19386000E-03	-7.66700000E-02	 8.95964000E-03
		-8.11587000E-05	-6.62344000E-02	-1.43859000E-03
		-9.68261000E-04	-7.81054000E-02	 3.62936000E-03
		-2.47809000E-03	-6.61530000E-02	 1.03223000E-02
		 2.27092000E-03	-7.51394000E-02	-1.24391000E-02
		 2.47544000E-03	-7.75690000E-02	-1.22463000E-02
		 2.08923000E-03	-6.36882000E-02	-1.32543000E-02
		 1.13823000E-03	-7.53680000E-02	-7.00718000E-03
		 2.40540000E-03	-7.63321000E-02	-1.24070000E-02
		 2.33926000E-03	-6.59769000E-02	-1.30742000E-02
		 1.30263000E-03	-7.78163000E-02	-6.91333000E-03
		 1.22352000E-04	-8.08131000E-02	-1.49679000E-03
		-2.92562000E-03	-8.15588000E-02	 9.18852000E-03
		 1.66412000E-04	-7.92904000E-02	-1.56897000E-03
		-2.67999000E-03	-8.02901000E-02	 9.09388000E-03
		-1.21766000E-04	-6.88162000E-02	-1.39676000E-03
		-1.49820000E-03	-8.11974000E-02	 3.78545000E-03
		-2.60774000E-03	-6.86020000E-02	 1.04642000E-02
		 2.90909000E-03	-8.04131000E-02	-1.21593000E-02