<?xml version="1.0"?>
<VTKFile type="UnstructuredGrid" version="0.1" byte_order="LittleEndian">
	<UnstructuredGrid>
		<Piece NumberOfPoints="522" NumberOfCells="64">
			<Points>
				<DataArray type="Float64" NumberOfComponents="3" format="ascii">
					 1.00000000E+00	 1.00000000E+00	-5.96046000E-08
					 1.00000000E+00	 5.00000000E-01	-5.96046000E-08
					 1.00000000E+00	 5.00000000E-01	 1.00000000E+00
					 1.00000000E+00	 1.00000000E+00	 1.00000000E+00
					 5.00000000E-01	 1.00000000E+00	-5.96046000E-08
					 5.00000000E-01	 5.00000000E-01	-5.96046000E-08
					 5.00000000E-01	 5.00000000E-01	 1.00000000E+00
					 5.00000000E-01	 1.00000000E+00	 1.00000000E+00
					 1.00000000E+00	 7.50000000E-01	-5.96046000E-08
					 1.00000000E+00	 5.00000000E-01	 5.00000000E-01
					 1.00000000E+00	 7.50000000E-01	 1.00000000E+00
					 1.00000000E+00	 1.00000000E+00	 5.00000000E-01
					 7.50000000E-01	 1.00000000E+00	-5.96046000E-08
					 7.50000000E-01	 5.00000000E-01	-5.96046000E-08
					 7.50000000E-01	 5.00000000E-01	 1.00000000E+00
					 7.50000000E-01	 1.00000000E+00	 1.00000000E+00
					 5.00000000E-01	 7.50000000E-01	-5.96046000E-08
					 5.00000000E-01	 5.00000000E-01	 5.00000000E-01
					 5.00000000E-01	 7.50000000E-01	 1.00000000E+00
					 5.00000000E-01	 1.00000000E+00	 5.00000000E-01
					 1.00000000E+00	-1.49012000E-08	-5.96046000E-08
					 1.00000000E+00	-1.49012000E-08	 1.00000000E+00
					 5.00000000E-01	-1.49012000E-08	-5.96046000E-08
					 5.00000000E-01	-1.49012000E-08	 1.00000000E+00
					 1.00000000E+00	 2.50000000E-01	-5.96046000E-08
					 1.00000000E+00	-1.49012000E-08	 5.00000000E-01
					 1.00000000E+00	 2.50000000E-01	 1.00000000E+00
					 7.50000000E-01	-1.49012000E-08	-5.96046000E-08
					 7.50000000E-01	-1.49012000E-08	 1.00000000E+00
					 5.00000000E-01	 2.50000000E-01	-5.96046000E-08
					 5.00000000E-01	-1.49012000E-08	 5.00000000E-01
					 5.00000000E-01	 2.50000000E-01	 1.00000000E+00
					-7.45058000E-09	 1.00000000E+00	-5.96046000E-08
					-7.45058000E-09	 5.00000000E-01	-5.96046000E-08
					-7.45058000E-09	 5.00000000E-01	 1.00000000E+00
					-7.45058000E-09	 1.00000000E+00	 1.00000000E+00
					 2.50000000E-01	 1.00000000E+00	-5.96046000E-08
					 2.50000000E-01	 5.00000000E-01	-5.96046000E-08
					 2.50000000E-01	 5.00000000E-01	 1.00000000E+00
					 2.50000000E-01	 1.00000000E+00	 1.00000000E+00
					-7.45058000E-09	 7.50000000E-01	-5.96046000E-08
					-7.45058000E-09	 5.00000000E-01	 5.00000000E-01
					-7.45058000E-09	 7.50000000E-01	 1.00000000E+00
					-7.45058000E-09	 1.00000000E+00	 5.00000000E-01
					-7.45058000E-09	-1.49012000E-08	-5.96046000E-08
					-7.45058000E-09	-1.49012000E-08	 1.00000000E+00
					 2.50000000E-01	-1.49012000E-08	-5.96046000E-08
					 2.50000000E-01	-1.49012000E-08	 1.00000000E+00
					-7.45058000E-09	 2.50000000E-01	-5.96046000E-08
					-7.45058000E-09	-1.49012000E-08	 5.00000000E-01
					-7.45058000E-09	 2.50000000E-01	 1.00000000E+00
					 1.00000000E+00	 5.00000000E-01	 2.00000000E+00
					 1.00000000E+00	 1.00000000E+00	 2.00000000E+00
					 5.00000000E-01	 5.00000000E-01	 2.00000000E+00
					 5.00000000E-01	 1.00000000E+00	 2.00000000E+00
					 1.00000000E+00	 5.00000000E-01	 1.50000000E+00
					 1.00000000E+00	 7.50000000E-01	 2.00000000E+00
					 1.00000000E+00	 1.00000000E+00	 1.50000000E+00
					 7.50000000E-01	 5.00000000E-01	 2.00000000E+00
					 7.50000000E-01	 1.00000000E+00	 2.00000000E+00
					 5.00000000E-01	 5.00000000E-01	 1.50000000E+00
					 5.00000000E-01	 7.50000000E-01	 2.00000000E+00
					 5.00000000E-01	 1.00000000E+00	 1.50000000E+00
					 1.00000000E+00	-1.49012000E-08	 2.00000000E+00
					 5.00000000E-01	-1.49012000E-08	 2.00000000E+00
					 1.00000000E+00	-1.49012000E-08	 1.50000000E+00
					 1.00000000E+00	 2.50000000E-01	 2.00000000E+00
					 7.50000000E-01	-1.49012000E-08	 2.00000000E+00
					 5.00000000E-01	-1.49012000E-08	 1.50000000E+00
					 5.00000000E-01	 2.50000000E-01	 2.00000000E+00
					-7.45058000E-09	 5.00000000E-01	 2.00000000E+00
					-7.45058000E-09	 1.00000000E+00	 2.00000000E+00
					 2.50000000E-01	 5.00000000E-01	 2.00000000E+00
					 2.50000000E-01	 1.00000000E+00	 2.00000000E+00
					-7.45058000E-09	 5.00000000E-01	 1.50000000E+00
					-7.45058000E-09	 7.50000000E-01	 2.00000000E+00
					-7.45058000E-09	 1.00000000E+00	 1.50000000E+00
					-7.45058000E-09	-1.49012000E-08	 2.00000000E+00
					 2.50000000E-01	-1.49012000E-08	 2.00000000E+00
					-7.45058000E-09	-1.49012000E-08	 1.50000000E+00
					-7.45058000E-09	 2.50000000E-01	 2.00000000E+00
					 1.00000000E+00	 5.00000000E-01	 3.00000000E+00
					 1.00000000E+00	 1.00000000E+00	 3.00000000E+00
					 5.00000000E-01	 5.00000000E-01	 3.00000000E+00
					 5.00000000E-01	 1.00000000E+00	 3.00000000E+00
					 1.00000000E+00	 5.00000000E-01	 2.50000000E+00
					 1.00000000E+00	 7.50000000E-01	 3.00000000E+00
					 1.00000000E+00	 1.00000000E+00	 2.50000000E+00
					 7.50000000E-01	 5.00000000E-01	 3.00000000E+00
					 7.50000000E-01	 1.00000000E+00	 3.00000000E+00
					 5.00000000E-01	 5.00000000E-01	 2.50000000E+00
					 5.00000000E-01	 7.50000000E-01	 3.00000000E+00
					 5.00000000E-01	 1.00000000E+00	 2.50000000E+00
					 1.00000000E+00	-1.49012000E-08	 3.00000000E+00
					 5.00000000E-01	-1.49012000E-08	 3.00000000E+00
					 1.00000000E+00	-1.49012000E-08	 2.50000000E+00
					 1.00000000E+00	 2.50000000E-01	 3.00000000E+00
					 7.50000000E-01	-1.49012000E-08	 3.00000000E+00
					 5.00000000E-01	-1.49012000E-08	 2.50000000E+00
					 5.00000000E-01	 2.50000000E-01	 3.00000000E+00
					-7.45058000E-09	 5.00000000E-01	 3.00000000E+00
					-7.45058000E-09	 1.00000000E+00	 3.00000000E+00
					 2.50000000E-01	 5.00000000E-01	 3.00000000E+00
					 2.50000000E-01	 1.00000000E+00	 3.00000000E+00
					-7.45058000E-09	 5.00000000E-01	 2.50000000E+00
					-7.45058000E-09	 7.50000000E-01	 3.00000000E+00
					-7.45058000E-09	 1.00000000E+00	 2.50000000E+00
					-7.45058000E-09	-1.49012000E-08	 3.00000000E+00
					 2.50000000E-01	-1.49012000E-08	 3.00000000E+00
					-7.45058000E-09	-1.49012000E-08	 2.50000000E+00
					-7.45058000E-09	 2.50000000E-01	 3.00000000E+00
					 1.00000000E+00	 5.00000000E-01	 4.00000000E+00
					 1.00000000E+00	 1.00000000E+00	 4.00000000E+00
					 5.00000000E-01	 5.00000000E-01	 4.00000000E+00
					 5.00000000E-01	 1.00000000E+00	 4.00000000E+00
					 1.00000000E+00	 5.00000000E-01	 3.50000000E+00
					 1.00000000E+00	 7.50000000E-01	 4.00000000E+00
					 1.00000000E+00	 1.00000000E+00	 3.50000000E+00
					 7.50000000E-01	 5.00000000E-01	 4.00000000E+00
					 7.50000000E-01	 1.00000000E+00	 4.00000000E+00
					 5.00000000E-01	 5.00000000E-01	 3.50000000E+00
					 5.00000000E-01	 7.50000000E-01	 4.00000000E+00
					 5.00000000E-01	 1.00000000E+00	 3.50000000E+00
					 1.00000000E+00	-1.49012000E-08	 4.00000000E+00
					 5.00000000E-01	-1.49012000E-08	 4.00000000E+00
					 1.00000000E+00	-1.49012000E-08	 3.50000000E+00
					 1.00000000E+00	 2.50000000E-01	 4.00000000E+00
					 7.50000000E-01	-1.49012000E-08	 4.00000000E+00
					 5.00000000E-01	-1.49012000E-08	 3.50000000E+00
					 5.00000000E-01	 2.50000000E-01	 4.00000000E+00
					-7.45058000E-09	 5.00000000E-01	 4.00000000E+00
					-7.45058000E-09	 1.00000000E+00	 4.00000000E+00
					 2.50000000E-01	 5.00000000E-01	 4.00000000E+00
					 2.50000000E-01	 1.00000000E+00	 4.00000000E+00
					-7.45058000E-09	 5.00000000E-01	 3.50000000E+00
					-7.45058000E-09	 7.50000000E-01	 4.00000000E+00
					-7.45058000E-09	 1.00000000E+00	 3.50000000E+00
					-7.45058000E-09	-1.49012000E-08	 4.00000000E+00
					 2.50000000E-01	-1.49012000E-08	 4.00000000E+00
					-7.45058000E-09	-1.49012000E-08	 3.50000000E+00
					-7.45058000E-09	 2.50000000E-01	 4.00000000E+00
					 1.00000000E+00	 5.00000000E-01	 5.00000000E+00
					 1.00000000E+00	 1.00000000E+00	 5.00000000E+00
					 5.00000000E-01	 5.00000000E-01	 5.00000000E+00
					 5.00000000E-01	 1.00000000E+00	 5.00000000E+00
					 1.00000000E+00	 5.00000000E-01	 4.50000000E+00
					 1.00000000E+00	 7.50000000E-01	 5.00000000E+00
					 1.00000000E+00	 1.00000000E+00	 4.50000000E+00
					 7.50000000E-01	 5.00000000E-01	 5.00000000E+00
					 7.50000000E-01	 1.00000000E+00	 5.00000000E+00
					 5.00000000E-01	 5.00000000E-01	 4.50000000E+00
					 5.00000000E-01	 7.50000000E-01	 5.00000000E+00
					 5.00000000E-01	 1.00000000E+00	 4.50000000E+00
					 1.00000000E+00	-1.49012000E-08	 5.00000000E+00
					 5.00000000E-01	-1.49012000E-08	 5.00000000E+00
					 1.00000000E+00	-1.49012000E-08	 4.50000000E+00
					 1.00000000E+00	 2.50000000E-01	 5.00000000E+00
					 7.50000000E-01	-1.49012000E-08	 5.00000000E+00
					 5.00000000E-01	-1.49012000E-08	 4.50000000E+00
					 5.00000000E-01	 2.50000000E-01	 5.00000000E+00
					-7.45058000E-09	 5.00000000E-01	 5.00000000E+00
					-7.45058000E-09	 1.00000000E+00	 5.00000000E+00
					 2.50000000E-01	 5.00000000E-01	 5.00000000E+00
					 2.50000000E-01	 1.00000000E+00	 5.00000000E+00
					-7.45058000E-09	 5.00000000E-01	 4.50000000E+00
					-7.45058000E-09	 7.50000000E-01	 5.00000000E+00
					-7.45058000E-09	 1.00000000E+00	 4.50000000E+00
					-7.45058000E-09	-1.49012000E-08	 5.00000000E+00
					 2.50000000E-01	-1.49012000E-08	 5.00000000E+00
					-7.45058000E-09	-1.49012000E-08	 4.50000000E+00
					-7.45058000E-09	 2.50000000E-01	 5.00000000E+00
					 1.00000000E+00	 5.00000000E-01	 6.00000000E+00
					 1.00000000E+00	 1.00000000E+00	 6.00000000E+00
					 5.00000000E-01	 5.00000000E-01	 6.00000000E+00
					 5.00000000E-01	 1.00000000E+00	 6.00000000E+00
					 1.00000000E+00	 5.00000000E-01	 5.50000000E+00
					 1.00000000E+00	 7.50000000E-01	 6.00000000E+00
					 1.00000000E+00	 1.00000000E+00	 5.50000000E+00
					 7.50000000E-01	 5.00000000E-01	 6.00000000E+00
					 7.50000000E-01	 1.00000000E+00	 6.00000000E+00
					 5.00000000E-01	 5.00000000E-01	 5.50000000E+00
					 5.00000000E-01	 7.50000000E-01	 6.00000000E+00
					 5.00000000E-01	 1.00000000E+00	 5.50000000E+00
					 1.00000000E+00	-1.49012000E-08	 6.00000000E+00
[...]
			<PointData>
				<DataArray type="Float32" Name="U" NumberOfComponents="3" ComponentName0="D1" ComponentName1="D2" ComponentName2="D3" format="ascii">
					 0.00000000E+00	 0.00000000E+00	 0.00000000E+00
					 0.00000000E+00	 0.00000000E+00	 0.00000000E+00
					 8.09831000E-06	-3.29369000E-03	 6.09318000E-06
					 3.16961000E-04	-3.40393000E-03	 2.28563000E-03
					 0.00000000E+00	 0.00000000E+00	 0.00000000E+00
					 0.00000000E+00	 0.00000000E+00	 0.00000000E+00
					 8.23486000E-06	-2.84670000E-03	 1.22786000E-05
					 5.82833000E-04	-2.97392000E-03	 2.32541000E-03
					 0.00000000E+00	 0.00000000E+00	 0.00000000E+00
					-1.66252000E-07	-9.40146000E-04	 6.03982000E-06
					 1.64457000E-04	-3.29814000E-03	 1.04587000E-03
					-8.37080000E-05	-1.12195000E-03	 1.21208000E-03
					 0.00000000E+00	 0.00000000E+00	 0.00000000E+00
					 0.00000000E+00	 0.00000000E+00	 0.00000000E+00
					 8.30615000E-06	-3.11637000E-03	 9.11936000E-06
					 4.51578000E-04	-3.23789000E-03	 2.36126000E-03
					 0.00000000E+00	 0.00000000E+00	 0.00000000E+00
					 1.85103000E-06	-8.17301000E-04	 9.01332000E-06
					 2.95048000E-04	-2.85799000E-03	 1.12232000E-03
					 2.74941000E-04	-1.01551000E-03	 1.18706000E-03
					 0.00000000E+00	 0.00000000E+00	 0.00000000E+00
					-3.01508000E-04	-3.39102000E-03	-2.27597000E-03
					 0.00000000E+00	 0.00000000E+00	 0.00000000E+00
					-5.67279000E-04	-2.95945000E-03	-2.30421000E-03
					 0.00000000E+00	 0.00000000E+00	 0.00000000E+00
					 8.25574000E-05	-1.11284000E-03	-1.20056000E-03
					-1.48066000E-04	-3.29284000E-03	-1.03378000E-03
					 0.00000000E+00	 0.00000000E+00	 0.00000000E+00
					-4.35664000E-04	-3.22355000E-03	-2.34647000E-03
					 0.00000000E+00	 0.00000000E+00	 0.00000000E+00
					-2.72147000E-04	-1.00423000E-03	-1.16966000E-03
					-2.78669000E-04	-2.85136000E-03	-1.09872000E-03
					 0.00000000E+00	 0.00000000E+00	 0.00000000E+00
					 0.00000000E+00	 0.00000000E+00	 0.00000000E+00
					 8.78285000E-06	-2.14376000E-03	 1.93610000E-05
					 8.40791000E-04	-2.26410000E-03	 2.29839000E-03
					 0.00000000E+00	 0.00000000E+00	 0.00000000E+00
					 0.00000000E+00	 0.00000000E+00	 0.00000000E+00
					 8.00487000E-06	-2.54266000E-03	 1.53598000E-05
					 7.08985000E-04	-2.66516000E-03	 2.26521000E-03
					 0.00000000E+00	 0.00000000E+00	 0.00000000E+00
					 4.70909000E-06	-3.93041000E-04	 1.22778000E-05
					 4.25595000E-04	-2.15445000E-03	 1.16112000E-03
					 6.12917000E-04	-5.98238000E-04	 1.21779000E-03
					 0.00000000E+00	 0.00000000E+00	 0.00000000E+00
					-8.23847000E-04	-2.24851000E-03	-2.26281000E-03
					 0.00000000E+00	 0.00000000E+00	 0.00000000E+00
					-6.93887000E-04	-2.65046000E-03	-2.23751000E-03
					 0.00000000E+00	 0.00000000E+00	 0.00000000E+00
					-6.04161000E-04	-5.85589000E-04	-1.19416000E-03
					-4.07990000E-04	-2.14664000E-03	-1.12362000E-03
					 1.09096000E-05	-1.04843000E-02	-1.65216000E-05
					 1.03983000E-03	-1.05571000E-02	 3.58927000E-03
					 1.61665000E-05	-9.39691000E-03	 2.79820000E-06
					 1.16157000E-03	-9.47284000E-03	 3.62466000E-03
					 9.66324000E-06	-6.54411000E-03	-2.43926000E-06
					 5.23689000E-04	-1.05111000E-02	 1.69939000E-03
					 6.73437000E-04	-6.65990000E-03	 3.06680000E-03
					 1.30144000E-05	-9.95123000E-03	-6.46396000E-06
					 1.10047000E-03	-1.00247000E-02	 3.66026000E-03
					 1.11246000E-05	-5.78218000E-03	 6.27253000E-06
					 5.88896000E-04	-9.42610000E-03	 1.77823000E-03
					 8.70685000E-04	-5.89824000E-03	 3.09515000E-03
					-1.02072000E-03	-1.05256000E-02	-3.62107000E-03
					-1.12997000E-03	-9.43630000E-03	-3.61845000E-03
					-6.57043000E-04	-6.64041000E-03	-3.07194000E-03
					-5.03412000E-04	-1.04955000E-02	-1.73282000E-03
					-1.07613000E-03	-9.98995000E-03	-3.67175000E-03
					-8.49643000E-04	-5.87443000E-03	-3.08282000E-03
					-5.57082000E-04	-9.40788000E-03	-1.77256000E-03
					 2.37763000E-05	-8.19553000E-03	 2.22635000E-05
					 1.28278000E-03	-8.27185000E-03	 3.62766000E-03
					 2.00759000E-05	-8.80679000E-03	 1.21782000E-05
					 1.22241000E-03	-8.88182000E-03	 3.59276000E-03
					 1.44747000E-05	-4.82328000E-03	 2.03690000E-05
					 6.54511000E-04	-8.22403000E-03	 1.82364000E-03
					 1.07223000E-03	-4.93998000E-03	 3.09071000E-03
					-1.23544000E-03	-8.23457000E-03	-3.58372000E-03
					-1.18249000E-03	-8.84505000E-03	-3.56849000E-03
					-1.04390000E-03	-4.91308000E-03	-3.05072000E-03
					-6.07554000E-04	-8.20586000E-03	-1.77911000E-03
					 3.71429000E-05	-1.92732000E-02	-3.03462000E-05
					 1.90506000E-03	-1.92981000E-02	 3.91954000E-03
					 4.15958000E-05	-1.73945000E-02	-1.29700000E-05
					 1.92378000E-03	-1.74220000E-02	 3.94537000E-03
					 2.89290000E-05	-1.48295000E-02	-2.41967000E-05
					 9.72336000E-04	-1.92811000E-02	 1.87462000E-03
					 1.47812000E-03	-1.48831000E-02	 3.83588000E-03
					 3.99714000E-05	-1.83370000E-02	-2.27977000E-05
					 1.91389000E-03	-1.83643000E-02	 3.99093000E-03
					 3.29147000E-05	-1.33570000E-02	-1.48713000E-06
					 9.83205000E-04	-1.74052000E-02	 1.95590000E-03
					 1.53280000E-03	-1.34079000E-02	 3.86776000E-03
					-1.83427000E-03	-1.92605000E-02	-3.98492000E-03
					-1.84611000E-03	-1.73800000E-02	-3.97403000E-03
					-1.41615000E-03	-1.48368000E-02	-3.88791000E-03
					-8.98660000E-04	-1.92658000E-02	-1.93581000E-03
					-1.83859000E-03	-1.83233000E-02	-4.04096000E-03
					-1.46564000E-03	-1.33662000E-02	-3.87296000E-03
					-9.01709000E-04	-1.73850000E-02	-1.98254000E-03
					 4.44009000E-05	-1.54938000E-02	 8.50084000E-06
					 1.94591000E-03	-1.55259000E-02	 3.96344000E-03
					 4.29056000E-05	-1.64476000E-02	-1.95002000E-06
					 1.93508000E-03	-1.64767000E-02	 3.89764000E-03
					 3.60627000E-05	-1.18307000E-02	 1.72540000E-05
					 9.95699000E-04	-1.55080000E-02	 2.03370000E-03
					 1.58158000E-03	-1.18876000E-02	 3.87515000E-03
					-1.86247000E-03	-1.54772000E-02	-3.94705000E-03
					-1.85531000E-03	-1.64330000E-02	-3.90294000E-03
					-1.50801000E-03	-1.18489000E-02	-3.84082000E-03
					-9.07889000E-04	-1.54813000E-02	-2.01709000E-03
					 4.10357000E-05	-2.80837000E-02	-6.42916000E-05
					 2.66790000E-03	-2.80865000E-02	 3.75118000E-03
					 5.02542000E-05	-2.55101000E-02	-2.92288000E-05
					 2.59818000E-03	-2.54957000E-02	 3.79617000E-03
					 3.19326000E-05	-2.37129000E-02	-5.09723000E-05
					 1.35142000E-03	-2.80969000E-02	 1.77086000E-03
					 2.29123000E-03	-2.37189000E-02	 3.90363000E-03
					 4.49353000E-05	-2.67886000E-02	-4.54119000E-05
					 2.63192000E-03	-2.67811000E-02	 3.82167000E-03
					 4.17618000E-05	-2.14645000E-02	-2.34787000E-05
					 1.32286000E-03	-2.55139000E-02	 1.85699000E-03
					 2.28793000E-03	-2.14707000E-02	 3.94209000E-03
					-2.57190000E-03	-2.80194000E-02	-3.87402000E-03
					-2.47970000E-03	-2.54464000E-02	-3.85118000E-03
					-2.23426000E-03	-2.36853000E-02	-3.99821000E-03
					-1.26443000E-03	-2.80613000E-02	-1.89909000E-03
					-2.52588000E-03	-2.67221000E-02	-3.90687000E-03
					-2.20826000E-03	-2.14279000E-02	-3.98775000E-03
					-1.21557000E-03	-2.54890000E-02	-1.91440000E-03
					 6.00575000E-05	-2.30086000E-02	-1.04362000E-06
					 2.53344000E-03	-2.29773000E-02	 3.80524000E-03
					 5.52847000E-05	-2.42482000E-02	-1.49439000E-05
					 2.56802000E-03	-2.42273000E-02	 3.77444000E-03
					 5.21644000E-05	-1.92229000E-02	 7.86935000E-06
					 1.29379000E-03	-2.30020000E-02	 1.90444000E-03
					 2.29140000E-03	-1.92249000E-02	 3.96391000E-03
					-2.39259000E-03	-2.29520000E-02	-3.80641000E-03
					-2.43704000E-03	-2.41895000E-02	-3.80272000E-03
					-2.19185000E-03	-1.91761000E-02	-3.95313000E-03
					-1.16631000E-03	-2.29923000E-02	-1.90541000E-03
					 6.84953000E-05	-3.53956000E-02	-6.37944000E-05
					 3.10769000E-03	-3.53539000E-02	 2.89972000E-03
					 7.80882000E-05	-3.24299000E-02	-4.72284000E-05
					 2.97602000E-03	-3.23836000E-02	 2.90358000E-03
					 5.85986000E-05	-3.20834000E-02	-6.10549000E-05
					 1.58479000E-03	-3.53927000E-02	 1.43491000E-03
					 2.95244000E-03	-3.20689000E-02	 3.36166000E-03
					 7.49072000E-05	-3.38945000E-02	-5.49398000E-05
					 3.04491000E-03	-3.38470000E-02	 2.91286000E-03
					 6.59155000E-05	-2.92628000E-02	-3.64463000E-05
					 1.52788000E-03	-3.24272000E-02	 1.45214000E-03
					 2.81866000E-03	-2.92305000E-02	 3.39576000E-03
					-2.97892000E-03	-3.53307000E-02	-3.03217000E-03
					-2.83269000E-03	-3.23495000E-02	-3.00136000E-03
					-2.83002000E-03	-3.20123000E-02	-3.49275000E-03
					-1.45031000E-03	-3.53842000E-02	-1.56268000E-03
					-2.90648000E-03	-3.38180000E-02	-3.02751000E-03
					-2.68248000E-03	-2.91861000E-02	-3.46890000E-03
					-1.37654000E-03	-3.24094000E-02	-1.54808000E-03
					 8.26986000E-05	-2.95920000E-02	-2.40645000E-05
					 2.84462000E-03	-2.95592000E-02	 2.93290000E-03
					 8.04213000E-05	-3.09920000E-02	-3.73746000E-05
					 2.90828000E-03	-3.09499000E-02	 2.89384000E-03
					 7.06985000E-05	-2.65729000E-02	-1.90700000E-05
					 1.46751000E-03	-2.95970000E-02	 1.49603000E-03
					 2.69116000E-03	-2.65358000E-02	 3.40429000E-03
					-2.69339000E-03	-2.95058000E-02	-2.98416000E-03
					-2.76154000E-03	-3.09064000E-02	-2.97154000E-03
					-2.54502000E-03	-2.65019000E-02	-3.43344000E-03
					-1.30747000E-03	-2.95661000E-02	-1.54706000E-03
					 6.48558000E-05	-4.03927000E-02	-7.45705000E-05
					 3.09430000E-03	-4.04516000E-02	 2.63572000E-03
					 7.71681000E-05	-3.73240000E-02	-4.74440000E-05
					 3.18107000E-03	-3.73772000E-02	 2.63815000E-03
					 6.84246000E-05	-3.79955000E-02	-7.05054000E-05
					 1.58029000E-03	-4.04131000E-02	 1.32038000E-03
					 3.11386000E-03	-3.79974000E-02	 2.61735000E-03
					 6.84982000E-05	-3.88698000E-02	-6.22578000E-05
					 3.13539000E-03	-3.89268000E-02	 2.63784000E-03
					 8.00912000E-05	-3.49706000E-02	-5.09044000E-05
					 1.62697000E-03	-3.73387000E-02	 1.34043000E-03
					 3.08078000E-03	-3.49750000E-02	 2.60133000E-03
					-2.94501000E-03	-4.03965000E-02	-2.78691000E-03
					-3.01590000E-03	-3.73431000E-02	-2.73494000E-03
					-2.98164000E-03	-3.79684000E-02	-2.75418000E-03
					-1.44354000E-03	-4.03815000E-02	-1.47294000E-03
					-2.98129000E-03	-3.88841000E-02	-2.76404000E-03
					-2.92168000E-03	-3.49387000E-02	-2.70539000E-03
					-1.46870000E-03	-3.73219000E-02	-1.43666000E-03
					 9.50026000E-05	-3.41874000E-02	-2.93447000E-05
					 3.27278000E-03	-3.42315000E-02	 2.67566000E-03
					 8.67161000E-05	-3.57647000E-02	-3.55740000E-05
					 3.22796000E-03	-3.58160000E-02	 2.62881000E-03
					 9.26710000E-05	-3.19917000E-02	-2.50211000E-05
					 1.67995000E-03	-3.41970000E-02	 1.39568000E-03
					 3.04879000E-03	-3.19974000E-02	 2.64510000E-03
					-3.08006000E-03	-3.42034000E-02	-2.72860000E-03
					-3.04802000E-03	-3.57839000E-02	-2.69840000E-03
					-2.85816000E-03	-3.19620000E-02	-2.70382000E-03
					-1.49075000E-03	-3.41856000E-02	-1.44994000E-03
					 9.20782000E-05	-4.66498000E-02	-9.02912000E-05
					 3.28529000E-03	-4.67346000E-02	 3.46857000E-03
					 9.71913000E-05	-4.33744000E-02	-6.93331000E-05
					 3.42215000E-03	-4.34639000E-02	 3.51739000E-03
					 7.77912000E-05	-4.31886000E-02	-8.25223000E-05
					 1.68767000E-03	-4.66769000E-02	 1.64853000E-03
					 3.14955000E-03	-4.32632000E-02	 3.01128000E-03
					 9.65792000E-05	-4.50340000E-02	-7.90951000E-05
					 3.35540000E-03	-4.51232000E-02	 3.51278000E-03
					 8.13289000E-05	-4.00321000E-02	-5.37185000E-05
					 1.75492000E-03	-4.34007000E-02	 1.70677000E-03
					 3.30001000E-03	-4.01085000E-02	 3.04284000E-03
					-3.11827000E-03	-4.66915000E-02	-3.66907000E-03
					-3.24307000E-03	-4.34111000E-02	-3.66204000E-03
					-2.99034000E-03	-4.32074000E-02	-3.18569000E-03
					-1.51092000E-03	-4.66514000E-02	-1.83781000E-03
					-3.17611000E-03	-4.50702000E-02	-3.68698000E-03
					-3.13015000E-03	-4.00639000E-02	-3.14799000E-03
					-1.56863000E-03	-4.33740000E-02	-1.84690000E-03
					 1.05832000E-04	-3.99669000E-02	-2.18813000E-05
					 3.55775000E-03	-4.00637000E-02	 3.56182000E-03
					 9.91438000E-05	-4.16844000E-02	-4.82811000E-05
					 3.48671000E-03	-4.17763000E-02	 3.53382000E-03
					 9.13918000E-05	-3.67385000E-02	-2.75377000E-05
					 1.83014000E-03	-3.99972000E-02	 1.76182000E-03
					 3.45000000E-03	-3.68064000E-02	 3.07190000E-03
					-3.38031000E-03	-3.99853000E-02	-3.61664000E-03
					-3.31448000E-03	-4.17207000E-02	-3.63174000E-03
					-3.26895000E-03	-3.67615000E-02	-3.11989000E-03
					-1.62856000E-03	-3.99555000E-02	-1.81438000E-03
					 5.04139000E-05	-5.47158000E-02	-9.50041000E-05
					 3.51977000E-03	-5.47268000E-02	 3.80258000E-03
					 1.36488000E-04	-5.13414000E-02	-8.98305000E-05
					 3.56067000E-03	-5.13295000E-02	 3.88685000E-03
					 8.04953000E-05	-5.06513000E-02	-8.76602000E-05
					 1.78979000E-03	-5.47170000E-02	 1.83730000E-03
					 3.43426000E-03	-5.07032000E-02	 3.72966000E-03
					 8.34669000E-05	-5.30181000E-02	-9.88683000E-05
					 3.53345000E-03	-5.30147000E-02	 3.84084000E-03
					 1.15213000E-04	-4.72827000E-02	-8.35733000E-05
					 1.85902000E-03	-5.13306000E-02	 1.88854000E-03
					 3.50245000E-03	-4.73223000E-02	 3.79486000E-03
					-3.35830000E-03	-5.47354000E-02	-4.07078000E-03
					-3.31553000E-03	-5.13838000E-02	-4.12336000E-03
					-3.24535000E-03	-5.06483000E-02	-3.96279000E-03
					-1.67517000E-03	-5.47338000E-02	-2.05294000E-03
					-3.34033000E-03	-5.30686000E-02	-4.10825000E-03
					-3.29910000E-03	-4.73000000E-02	-3.99727000E-03
					-1.59556000E-03	-5.13720000E-02	-2.08319000E-03
					 2.09665000E-04	-4.79238000E-02	-5.92522000E-06
					 3.62094000E-03	-4.79668000E-02	 3.98716000E-03
					 1.85865000E-04	-4.96395000E-02	-5.89071000E-05
					 3.59628000E-03	-4.96476000E-02	 3.94179000E-03
					 1.41915000E-04	-4.38449000E-02	-1.10379000E-05
					 1.92913000E-03	-4.79489000E-02	 1.97826000E-03
					 3.58525000E-03	-4.39202000E-02	 3.87908000E-03
					-3.28817000E-03	-4.79100000E-02	-4.05066000E-03
					-3.29975000E-03	-4.96574000E-02	-4.10317000E-03
					-3.36238000E-03	-4.38254000E-02	-3.93403000E-03
					-1.53343000E-03	-4.79167000E-02	-2.00830000E-03
					 0.00000000E+00	 0.00000000E+00	 0.00000000E+00
					 0.00000000E+00	 0.00000000E+00	 0.00000000E+00
					-6.20311000E-06	-1.72999000E-02	-3.84833000E-04
					-2.74833000E-03	-1.85135000E-02	 1.61192000E-02
					 0.00000000E+00	 0.00000000E+00	 0.00000000E+00
					 0.00000000E+00	 0.00000000E+00	 0.00000000E+00
					-4.56596000E-05	-1.89404000E-02	-4.69040000E-04
					-6.48985000E-04	-2.02356000E-02	 1.62267000E-02
					 0.00000000E+00	 0.00000000E+00	 0.00000000E+00
					 3.60250000E-05	-3.77084000E-03	-1.18924000E-04
					-1.37878000E-03	-1.75296000E-02	 7.71720000E-03
					-2.75281000E-03	-5.25764000E-03	 8.31028000E-03
					 0.00000000E+00	 0.00000000E+00	 0.00000000E+00
					 0.00000000E+00	 0.00000000E+00	 0.00000000E+00
					-2.35041000E-05	-1.84801000E-02	-4.39128000E-04
					-1.67900000E-03	-1.97365000E-02	 1.61156000E-02
					 0.00000000E+00	 0.00000000E+00	 0.00000000E+00
					-1.87096000E-05	-5.16181000E-03	-1.59890000E-04
					-3.48533000E-04	-1.91970000E-02	 7.67049000E-03
					-2.99393000E-04	-6.64937000E-03	 8.04824000E-03
					 0.00000000E+00	 0.00000000E+00	 0.00000000E+00
					 2.68902000E-03	-1.79401000E-02	-1.69825000E-02
					 0.00000000E+00	 0.00000000E+00	 0.00000000E+00
					 5.58775000E-04	-1.96454000E-02	-1.72685000E-02
					 0.00000000E+00	 0.00000000E+00	 0.00000000E+00
					 2.79894000E-03	-5.08290000E-03	-8.59125000E-03
					 1.34921000E-03	-1.72439000E-02	-8.51393000E-03
					 0.00000000E+00	 0.00000000E+00	 0.00000000E+00
					 1.61562000E-03	-1.91451000E-02	-1.70930000E-02
					 0.00000000E+00	 0.00000000E+00	 0.00000000E+00
					 2.66314000E-04	-6.49213000E-03	-8.39836000E-03
					 2.55614000E-04	-1.89017000E-02	-8.64182000E-03
					 0.00000000E+00	 0.00000000E+00	 0.00000000E+00
					 0.00000000E+00	 0.00000000E+00	 0.00000000E+00
					-8.79961000E-05	-1.85031000E-02	-4.70408000E-04
					 1.45387000E-03	-1.97098000E-02	 1.60398000E-02
					 0.00000000E+00	 0.00000000E+00	 0.00000000E+00
					 0.00000000E+00	 0.00000000E+00	 0.00000000E+00
					-6.73268000E-05	-1.90808000E-02	-4.80340000E-04
					 3.84820000E-04	-2.03321000E-02	 1.61849000E-02
					 0.00000000E+00	 0.00000000E+00	 0.00000000E+00
					-8.03827000E-05	-4.33472000E-03	-1.64892000E-04
					 6.83188000E-04	-1.87270000E-02	 7.52568000E-03
					 2.16748000E-03	-5.79009000E-03	 8.26725000E-03
					 0.00000000E+00	 0.00000000E+00	 0.00000000E+00
					-1.58484000E-03	-1.91374000E-02	-1.70663000E-02
					 0.00000000E+00	 0.00000000E+00	 0.00000000E+00
					-5.04132000E-04	-1.97435000E-02	-1.72420000E-02
					 0.00000000E+00	 0.00000000E+00	 0.00000000E+00
					-2.29617000E-03	-5.63620000E-03	-8.63650000E-03
					-8.42293000E-04	-1.84469000E-02	-8.49099000E-03
					-5.22699000E-05	-6.53976000E-02	-1.75106000E-03
					-2.84615000E-03	-6.69745000E-02	 2.72284000E-02
					-7.42508000E-05	-6.74135000E-02	-1.85650000E-03
					-1.34380000E-03	-6.90027000E-02	 2.71908000E-02
					-2.82276000E-05	-3.82145000E-02	-9.16890000E-04
					-1.44993000E-03	-6.60165000E-02	 1.26305000E-02
					-2.82070000E-03	-3.97303000E-02	 2.23987000E-02
					-6.38828000E-05	-6.65736000E-02	-1.81791000E-03
					-2.09665000E-03	-6.81541000E-02	 2.71845000E-02
					-6.92529000E-05	-4.00640000E-02	-1.01930000E-03
					-7.02746000E-04	-6.80405000E-02	 1.25459000E-02
					-9.89727000E-04	-4.15802000E-02	 2.23793000E-02
					 2.72334000E-03	-6.52851000E-02	-3.08371000E-02
					 1.18724000E-03	-6.73048000E-02	-3.10105000E-02
					 2.72222000E-03	-3.86437000E-02	-2.43550000E-02
					 1.33675000E-03	-6.51843000E-02	-1.61588000E-02
					 1.95846000E-03	-6.64647000E-02	-3.09226000E-02
					 8.50232000E-04	-4.04748000E-02	-2.45407000E-02
					 5.56079000E-04	-6.72057000E-02	-1.62809000E-02
					-9.93645000E-05	-6.79246000E-02	-1.86637000E-03
					 1.90238000E-04	-6.94767000E-02	 2.71120000E-02
					-8.73319000E-05	-6.78336000E-02	-1.87182000E-03
					-5.74154000E-04	-6.94456000E-02	 2.72340000E-02
					-1.11829000E-04	-4.00538000E-02	-1.02298000E-03
					 3.64167000E-05	-6.85206000E-02	 1.24119000E-02
					 8.48657000E-04	-4.15580000E-02	 2.22942000E-02
					-3.51654000E-04	-6.78023000E-02	-3.09498000E-02
					 4.14318000E-04	-6.77182000E-02	-3.10865000E-02
					-1.02343000E-03	-4.04787000E-02	-2.44582000E-02
					-2.23424000E-04	-6.77094000E-02	-1.61642000E-02
					 5.26826000E-05	-1.33394000E-01	-4.24377000E-03
					-3.11702000E-03	-1.35127000E-01	 3.26346000E-02
					 3.69231000E-05	-1.36102000E-01	-4.35352000E-03
					-2.26286000E-03	-1.37952000E-01	 3.25933000E-02
					-1.52042000E-05	-9.74420000E-02	-2.86241000E-03
					-1.52754000E-03	-1.34141000E-01	 1.41127000E-02
					-2.94862000E-03	-9.91517000E-02	 3.05809000E-02
					 4.64622000E-05	-1.34862000E-01	-4.30498000E-03
					-2.69049000E-03	-1.36662000E-01	 3.25487000E-02
					-3.82959000E-05	-9.97727000E-02	-2.97007000E-03
					-1.13554000E-03	-1.36908000E-01	 1.39663000E-02
					-1.77617000E-03	-1.01491000E-01	 3.05569000E-02
					 3.16751000E-03	-1.32476000E-01	-4.11834000E-02
					 2.32308000E-03	-1.35178000E-01	-4.13931000E-02
					 2.90168000E-03	-9.69242000E-02	-3.64069000E-02
					 1.61606000E-03	-1.32834000E-01	-2.26092000E-02
					 2.74278000E-03	-1.33933000E-01	-4.12471000E-02
					 1.69929000E-03	-9.92349000E-02	-3.65932000E-02
					 1.18289000E-03	-1.35546000E-01	-2.27115000E-02
					 1.75475000E-05	-1.37979000E-01	-4.39463000E-03
					-1.50625000E-03	-1.39946000E-01	 3.24748000E-02
					 2.69258000E-05	-1.37163000E-01	-4.38431000E-03
					-1.88948000E-03	-1.38951000E-01	 3.26667000E-02
					-5.43894000E-05	-1.00912000E-01	-2.99776000E-03
					-7.11469000E-04	-1.38841000E-01	 1.37482000E-02
					-6.17643000E-04	-1.02646000E-01	 3.04564000E-02
					 1.49173000E-03	-1.37075000E-01	-4.13808000E-02
					 1.90716000E-03	-1.36220000E-01	-4.15302000E-02
					 4.77800000E-04	-1.00370000E-01	-3.65459000E-02
					 7.46700000E-04	-1.37450000E-01	-2.25967000E-02
					 3.70264000E-04	-2.12205000E-01	-7.54682000E-03
					-3.31338000E-03	-2.13876000E-01	 3.28613000E-02