<?xml version="1.0"?>
<VTKFile type="UnstructuredGrid" version="0.1" byte_order="LittleEndian">
	<UnstructuredGrid>
		<Piece NumberOfPoints="522" NumberOfCells="64">
			<Points>
				<DataArray type="Float64" NumberOfComponents="3" format="ascii">
					 1.00000000E+00	 1.00000000E+00	-5.96046000E-08
					 1.00000000E+00	 5.00000000E-01	-5.96046000E-08
					 1.00000000E+00	 5.00000000E-01	 1.00000000E+00
					 1.00000000E+00	 1.00000000E+00	 1.00000000E+00
					 5.00000000E-01	 1.00000000E+00	-5.96046000E-08
					 5.00000000E-01	 5.00000000E-01	-5.96046000E-08
					 5.00000000E-01	 5.00000000E-01	 1.00000000E+00
					 5.00000000E-01	 1.00000000E+00	 1.00000000E+00
					 1.00000000E+00	 7.50000000E-01	-5.96046000E-08
					 1.00000000E+00	 5.00000000E-01	 5.00000000E-01
					 1.00000000E+00	 7.50000000E-01	 1.00000000E+00
					 1.00000000E+00	 1.00000000E+00	 5.00000000E-01
					 7.50000000E-01	 1.00000000E+00	-5.96046000E-08
					 7.50000000E-01	 5.00000000E-01	-5.96046000E-08
					 7.50000000E-01	 5.00000000E-01	 1.00000000E+00
					 7.50000000E-01	 1.00000000E+00	 1.00000000E+00
					 5.00000000E-01	 7.50000000E-01	-5.96046000E-08
					 5.00000000E-01	 5.00000000E-01	 5.00000000E-01
					 5.00000000E-01	 7.50000000E-01	 1.00000000E+00
					 5.00000000E-01	 1.00000000E+00	 5.00000000E-01
					 1.00000000E+00	-1.49012000E-08	-5.96046000E-08
					 1.00000000E+00	-1.49012000E-08	 1.00000000E+00
					 5.00000000E-01	-1.49012000E-08	-5.96046000E-08
					 5.00000000E-01	-1.49012000E-08	 1.00000000E+00
					 1.00000000E+00	 2.50000000E-01	-5.96046000E-08
					 1.00000000E+00	-1.49012000E-08	 5.00000000E-01
					 1.00000000E+00	 2.50000000E-01	 1.00000000E+00
					 7.50000000E-01	-1.49012000E-08	-5.96046000E-08
					 7.50000000E-01	-1.49012000E-08	 1.00000000E+00
					 5.00000000E-01	 2.50000000E-01	-5.96046000E-08
					 5.00000000E-01	-1.49012000E-08	 5.00000000E-01
					 5.00000000E-01	 2.50000000E-01	 1.00000000E+00
					-7.45058000E-09	 1.00000000E+00	-5.96046000E-08
					-7.45058000E-09	 5.00000000E-01	-5.96046000E-08
					-7.45058000E-09	 5.00000000E-01	 1.00000000E+00
					-7.45058000E-09	 1.00000000E+00	 1.00000000E+00
					 2.50000000E-01	 1.00000000E+00	-5.96046000E-08
					 2.50000000E-01	 5.00000000E-01	-5.96046000E-08
					 2.50000000E-01	 5.00000000E-01	 1.00000000E+00
					 2.50000000E-01	 1.00000000E+00	 1.00000000E+00
					-7.45058000E-09	 7.50000000E-01	-5.96046000E-08
					-7.45058000E-09	 5.00000000E-01	 5.00000000E-01
					-7.45058000E-09	 7.50000000E-01	 1.00000000E+00
					-7.45058000E-09	 1.00000000E+00	 5.00000000E-01
					-7.45058000E-09	-1.49012000E-08	-5.96046000E-08
					-7.45058000E-09	-1.49012000E-08	 1.00000000E+00
					 2.50000000E-01	-1.49012000E-08	-5.96046000E-08
					 2.50000000E-01	-1.49012000E-08	 1.00000000E+00
					-7.45058000E-09	 2.50000000E-01	-5.96046000E-08
					-7.45058000E-09	-1.49012000E-08	 5.00000000E-01
					-7.45058000E-09	 2.50000000E-01	 1.00000000E+00
					 1.00000000E+00	 5.00000000E-01	 2.00000000E+00
					 1.00000000E+00	 1.00000000E+00	 2.00000000E+00
					 5.00000000E-01	 5.00000000E-01	 2.00000000E+00
					 5.00000000E-01	 1.00000000E+00	 2.00000000E+00
					 1.00000000E+00	 5.00000000E-01	 1.50000000E+00
					 1.00000000E+00	 7.50000000E-01	 2.00000000E+00
					 1.00000000E+00	 1.00000000E+00	 1.50000000E+00
					 7.50000000E-01	 5.00000000E-01	 2.00000000E+00
					 7.50000000E-01	 1.00000000E+00	 2.00000000E+00
					 5.00000000E-01	 5.00000000E-01	 1.50000000E+00
					 5.00000000E-01	 7.50000000E-01	 2.00000000E+00
					 5.00000000E-01	 1.00000000E+00	 1.50000000E+00
					 1.00000000E+00	-1.49012000E-08	 2.00000000E+00
					 5.00000000E-01	-1.49012000E-08	 2.00000000E+00
					 1.00000000E+00	-1.49012000E-08	 1.50000000E+00
					 1.00000000E+00	 2.50000000E-01	 2.00000000E+00
					 7.50000000E-01	-1.49012000E-08	 2.00000000E+00
					 5.00000000E-01	-1.49012000E-08	 1.50000000E+00
					 5.00000000E-01	 2.50000000E-01	 2.00000000E+00
					-7.45058000E-09	 5.00000000E-01	 2.00000000E+00
					-7.45058000E-09	 1.00000000E+00	 2.00000000E+00
					 2.50000000E-01	 5.00000000E-01	 2.00000000E+00
					 2.50000000E-01	 1.00000000E+00	 2.00000000E+00
					-7.45058000E-09	 5.00000000E-01	 1.50000000E+00
					-7.45058000E-09	 7.50000000E-01	 2.00000000E+00
					-7.45058000E-09	 1.00000000E+00	 1.50000000E+00
					-7.45058000E-09	-1.49012000E-08	 2.00000000E+00
					 2.50000000E-01	-1.49012000E-08	 2.00000000E+00
					-7.45058000E-09	-1.49012000E-08	 1.50000000E+00
					-7.45058000E-09	 2.50000000E-01	 2.00000000E+00
					 1.00000000E+00	 5.00000000E-01	 3.00000000E+00
					 1.00000000E+00	 1.00000000E+00	 3.00000000E+00
					 5.00000000E-01	 5.00000000E-01	 3.00000000E+00
					 5.00000000E-01	 1.00000000E+00	 3.00000000E+00
					 1.00000000E+00	 5.00000000E-01	 2.50000000E+00
					 1.00000000E+00	 7.50000000E-01	 3.00000000E+00
					 1.00000000E+00	 1.00000000E+00	 2.50000000E+00
					 7.50000000E-01	 5.00000000E-01	 3.00000000E+00
					 7.50000000E-01	 1.00000000E+00	 3.00000000E+00
					 5.00000000E-01	 5.00000000E-01	 2.50000000E+00
					 5.00000000E-01	 7.50000000E-01	 3.00000000E+00
					 5.00000000E-01	 1.00000000E+00	 2.50000000E+00
					 1.00000000E+00	-1.49012000E-08	 3.00000000E+00
					 5.00000000E-01	-1.49012000E-08	 3.00000000E+00
					 1.00000000E+00	-1.49012000E-08	 2.50000000E+00
					 1.00000000E+00	 2.50000000E-01	 3.00000000E+00
					 7.50000000E-01	-1.49012000E-08	 3.00000000E+00
					 5.00000000E-01	-1.49012000E-08	 2.50000000E+00
					 5.00000000E-01	 2.50000000E-01	 3.00000000E+00
					-7.45058000E-09	 5.00000000E-01	 3.00000000E+00
					-7.45058000E-09	 1.00000000E+00	 3.00000000E+00
					 2.50000000E-01	 5.00000000E-01	 3.00000000E+00
					 2.50000000E-01	 1.00000000E+00	 3.00000000E+00
					-7.45058000E-09	 5.00000000E-01	 2.50000000E+00
					-7.45058000E-09	 7.50000000E-01	 3.00000000E+00
					-7.45058000E-09	 1.00000000E+00	 2.50000000E+00
					-7.45058000E-09	-1.49012000E-08	 3.00000000E+00
					 2.50000000E-01	-1.49012000E-08	 3.00000000E+00
					-7.45058000E-09	-1.49012000E-08	 2.50000000E+00
					-7.45058000E-09	 2.50000000E-01	 3.00000000E+00
					 1.00000000E+00	 5.00000000E-01	 4.00000000E+00
					 1.00000000E+00	 1.00000000E+00	 4.00000000E+00
					 5.00000000E-01	 5.00000000E-01	 4.00000000E+00
					 5.00000000E-01	 1.00000000E+00	 4.00000000E+00
					 1.00000000E+00	 5.00000000E-01	 3.50000000E+00
					 1.00000000E+00	 7.50000000E-01	 4.00000000E+00
					 1.00000000E+00	 1.00000000E+00	 3.50000000E+00
					 7.50000000E-01	 5.00000000E-01	 4.00000000E+00
					 7.50000000E-01	 1.00000000E+00	 4.00000000E+00
					 5.00000000E-01	 5.00000000E-01	 3.50000000E+00
					 5.00000000E-01	 7.50000000E-01	 4.00000000E+00
					 5.00000000E-01	 1.00000000E+00	 3.50000000E+00
					 1.00000000E+00	-1.49012000E-08	 4.00000000E+00
					 5.00000000E-01	-1.49012000E-08	 4.00000000E+00
					 1.00000000E+00	-1.49012000E-08	 3.50000000E+00
					 1.00000000E+00	 2.50000000E-01	 4.00000000E+00
					 7.50000000E-01	-1.49012000E-08	 4.00000000E+00
					 5.00000000E-01	-1.49012000E-08	 3.50000000E+00
					 5.00000000E-01	 2.50000000E-01	 4.00000000E+00
					-7.45058000E-09	 5.00000000E-01	 4.00000000E+00
					-7.45058000E-09	 1.00000000E+00	 4.00000000E+00
					 2.50000000E-01	 5.00000000E-01	 4.00000000E+00
					 2.50000000E-01	 1.00000000E+00	 4.00000000E+00
					-7.45058000E-09	 5.00000000E-01	 3.50000000E+00
					-7.45058000E-09	 7.50000000E-01	 4.00000000E+00
					-7.45058000E-09	 1.00000000E+00	 3.50000000E+00
					-7.45058000E-09	-1.49012000E-08	 4.00000000E+00
					 2.50000000E-01	-1.49012000E-08	 4.00000000E+00
					-7.45058000E-09	-1.49012000E-08	 3.50000000E+00
					-7.45058000E-09	 2.50000000E-01	 4.00000000E+00
					 1.00000000E+00	 5.00000000E-01	 5.00000000E+00
					 1.00000000E+00	 1.00000000E+00	 5.00000000E+00
					 5.00000000E-01	 5.00000000E-01	 5.00000000E+00
					 5.00000000E-01	 1.00000000E+00	 5.00000000E+00
					 1.00000000E+00	 5.00000000E-01	 4.50000000E+00
					 1.00000000E+00	 7.50000000E-01	 5.00000000E+00
					 1.00000000E+00	 1.00000000E+00	 4.50000000E+00
					 7.50000000E-01	 5.00000000E-01	 5.00000000E+00
					 7.50000000E-01	 1.00000000E+00	 5.00000000E+00
					 5.00000000E-01	 5.00000000E-01	 4.50000000E+00
					 5.00000000E-01	 7.50000000E-01	 5.00000000E+00
					 5.00000000E-01	 1.00000000E+00	 4.50000000E+00
					 1.00000000E+00	-1.49012000E-08	 5.00000000E+00
					 5.00000000E-01	-1.49012000E-08	 5.00000000E+00
					 1.00000000E+00	-1.49012000E-08	 4.50000000E+00
					 1.00000000E+00	 2.50000000E-01	 5.00000000E+00
					 7.50000000E-01	-1.49012000E-08	 5.00000000E+00
					 5.00000000E-01	-1.49012000E-08	 4.50000000E+00
					 5.00000000E-01	 2.50000000E-01	 5.00000000E+00
					-7.45058000E-09	 5.00000000E-01	 5.00000000E+00
					-7.45058000E-09	 1.00000000E+00	 5.00000000E+00
					 2.50000000E-01	 5.00000000E-01	 5.00000000E+00
					 2.50000000E-01	 1.00000000E+00	 5.00000000E+00
					-7.45058000E-09	 5.00000000E-01	 4.50000000E+00
					-7.45058000E-09	 7.50000000E-01	 5.00000000E+00
					-7.45058000E-09	 1.00000000E+00	 4.50000000E+00
					-7.45058000E-09	-1.49012000E-08	 5.00000000E+00
					 2.50000000E-01	-1.49012000E-08	 5.00000000E+00
					-7.45058000E-09	-1.49012000E-08	 4.50000000E+00
					-7.45058000E-09	 2.50000000E-01	 5.00000000E+00
					 1.00000000E+00	 5.00000000E-01	 6.00000000E+00
					 1.00000000E+00	 1.00000000E+00	 6.00000000E+00
					 5.00000000E-01	 5.00000000E-01	 6.00000000E+00
					 5.00000000E-01	 1.00000000E+00	 6.00000000E+00
					 1.00000000E+00	 5.00000000E-01	 5.50000000E+00
					 1.00000000E+00	 7.50000000E-01	 6.00000000E+00
					 1.00000000E+00	 1.00000000E+00	 5.50000000E+00
					 7.50000000E-01	 5.00000000E-01	 6.00000000E+00
					 7.50000000E-01	 1.00000000E+00	 6.00000000E+00
					 5.00000000E-01	 5.00000000E-01	 5.50000000E+00
					 5.00000000E-01	 7.50000000E-01	 6.00000000E+00
					 5.00000000E-01	 1.00000000E+00	 5.50000000E+00
					 1.00000000E+00	-1.49012000E-08	 6.00000000E+00
[...]
			<PointData>
				<DataArray type="Float32" Name="U" NumberOfComponents="3" ComponentName0="D1" ComponentName1="D2" ComponentName2="D3" format="ascii">
					 0.00000000E+00	 0.00000000E+00	 0.00000000E+00
					 0.00000000E+00	 0.00000000E+00	 0.00000000E+00
					-1.80164000E-05	 1.03402000E-03	-7.59003000E-06
					 6.79047000E-04	 1.03473000E-03	-8.16096000E-04
					 0.00000000E+00	 0.00000000E+00	 0.00000000E+00
					 0.00000000E+00	 0.00000000E+00	 0.00000000E+00
					-2.01442000E-05	 1.73961000E-03	-2.29178000E-05
					 6.78517000E-04	 1.73545000E-03	-8.55822000E-04
					 0.00000000E+00	 0.00000000E+00	 0.00000000E+00
					-4.21198000E-06	 3.67664000E-04	-2.12327000E-06
					 3.33004000E-04	 1.02605000E-03	-4.35446000E-04
					 3.96391000E-04	 4.47781000E-04	-5.58942000E-04
					 0.00000000E+00	 0.00000000E+00	 0.00000000E+00
					 0.00000000E+00	 0.00000000E+00	 0.00000000E+00
					-1.91294000E-05	 1.39630000E-03	-1.54160000E-05
					 6.77351000E-04	 1.39051000E-03	-7.67217000E-04
					 0.00000000E+00	 0.00000000E+00	 0.00000000E+00
					-6.05728000E-06	 7.07400000E-04	-1.03005000E-05
					 3.27487000E-04	 1.72830000E-03	-3.90979000E-04
					 2.86972000E-04	 7.77878000E-04	-5.67753000E-04
					 0.00000000E+00	 0.00000000E+00	 0.00000000E+00
					-7.12059000E-04	 1.03472000E-03	 7.99730000E-04
					 0.00000000E+00	 0.00000000E+00	 0.00000000E+00
					-7.15909000E-04	 1.73118000E-03	 8.09882000E-04
					 0.00000000E+00	 0.00000000E+00	 0.00000000E+00
					-4.01414000E-04	 4.48059000E-04	 5.53799000E-04
					-3.68391000E-04	 1.02662000E-03	 4.20060000E-04
					 0.00000000E+00	 0.00000000E+00	 0.00000000E+00
					-7.12337000E-04	 1.38792000E-03	 7.35652000E-04
					 0.00000000E+00	 0.00000000E+00	 0.00000000E+00
					-2.95800000E-04	 7.71822000E-04	 5.45761000E-04
					-3.66916000E-04	 1.72602000E-03	 3.45265000E-04
					 0.00000000E+00	 0.00000000E+00	 0.00000000E+00
					 0.00000000E+00	 0.00000000E+00	 0.00000000E+00
					-2.21750000E-05	 2.42807000E-03	-3.82778000E-05
					 6.61082000E-04	 2.41531000E-03	-8.44875000E-04
					 0.00000000E+00	 0.00000000E+00	 0.00000000E+00
					 0.00000000E+00	 0.00000000E+00	 0.00000000E+00
					-2.08708000E-05	 2.09028000E-03	-3.02823000E-05
					 6.70045000E-04	 2.08563000E-03	-9.37966000E-04
					 0.00000000E+00	 0.00000000E+00	 0.00000000E+00
					-9.99761000E-06	 9.50762000E-04	-1.89399000E-05
					 3.21681000E-04	 2.41250000E-03	-3.08109000E-04
					 1.41430000E-04	 1.00245000E-03	-5.75730000E-04
					 0.00000000E+00	 0.00000000E+00	 0.00000000E+00
					-7.03025000E-04	 2.40815000E-03	 7.69065000E-04
					 0.00000000E+00	 0.00000000E+00	 0.00000000E+00
					-7.09192000E-04	 2.08027000E-03	 8.77841000E-04
					 0.00000000E+00	 0.00000000E+00	 0.00000000E+00
					-1.58546000E-04	 9.91066000E-04	 5.35923000E-04
					-3.65307000E-04	 2.40813000E-03	 2.31869000E-04
					-4.80458000E-05	 1.61777000E-03	-3.38541000E-05
					 1.73964000E-03	 1.59925000E-03	-6.92392000E-04
					-4.95742000E-05	 3.41448000E-03	-5.08503000E-05
					 1.76271000E-03	 3.40176000E-03	-7.09473000E-04
					-3.30779000E-05	 1.44062000E-03	-1.87030000E-05
					 8.45744000E-04	 1.61466000E-03	-4.53894000E-04
					 1.17225000E-03	 1.44883000E-03	-7.90321000E-04
					-4.89263000E-05	 2.50966000E-03	-4.22440000E-05
					 1.75168000E-03	 2.49552000E-03	-6.14041000E-04
					-3.53194000E-05	 2.66404000E-03	-3.53152000E-05
					 8.57614000E-04	 3.41529000E-03	-3.85103000E-04
					 1.19936000E-03	 2.66654000E-03	-8.10671000E-04
					-1.83465000E-03	 1.59688000E-03	 6.23088000E-04
					-1.86161000E-03	 3.39854000E-03	 6.06306000E-04
					-1.23641000E-03	 1.44664000E-03	 7.50941000E-04
					-9.41562000E-04	 1.61366000E-03	 3.85755000E-04
					-1.84861000E-03	 2.49218000E-03	 5.27891000E-04
					-1.26849000E-03	 2.66256000E-03	 7.38848000E-04
					-9.56569000E-04	 3.41347000E-03	 2.82977000E-04
					-5.04855000E-05	 5.24159000E-03	-6.81413000E-05
					 1.79865000E-03	 5.23477000E-03	-7.25750000E-04
					-5.01212000E-05	 4.32310000E-03	-5.94984000E-05
					 1.78099000E-03	 4.30955000E-03	-7.99547000E-04
					-3.71262000E-05	 3.90775000E-03	-5.30819000E-05
					 8.71057000E-04	 5.24557000E-03	-3.18498000E-04
					 1.22297000E-03	 3.91314000E-03	-8.23085000E-04
					-1.90021000E-03	 5.23286000E-03	 5.88308000E-04
					-1.88156000E-03	 4.30716000E-03	 6.79475000E-04
					-1.29676000E-03	 3.90882000E-03	 7.16435000E-04
					-9.72091000E-04	 5.24420000E-03	 1.81798000E-04
					-8.04974000E-05	 2.09352000E-03	-7.43297000E-05
					 2.45279000E-03	 2.05774000E-03	-5.41933000E-04
					-7.89166000E-05	 4.63316000E-03	-8.61904000E-05
					 2.48357000E-03	 4.61052000E-03	-5.60522000E-04
					-6.54825000E-05	 1.77266000E-03	-5.20545000E-05
					 1.18224000E-03	 2.07828000E-03	-3.13605000E-04
					 2.21233000E-03	 1.74003000E-03	-6.28294000E-04
					-8.03641000E-05	 3.35810000E-03	-8.05414000E-05
					 2.46841000E-03	 3.33398000E-03	-5.32824000E-04
					-6.51034000E-05	 4.04734000E-03	-6.84079000E-05
					 1.20389000E-03	 4.62489000E-03	-3.09296000E-04
					 2.22454000E-03	 4.03026000E-03	-6.45645000E-04
					-2.61373000E-03	 2.05616000E-03	 3.92876000E-04
					-2.64302000E-03	 4.61086000E-03	 3.88232000E-04
					-2.34229000E-03	 1.73910000E-03	 5.23039000E-04
					-1.34312000E-03	 2.07726000E-03	 1.65125000E-04
					-2.62948000E-03	 3.33291000E-03	 3.71242000E-04
					-2.35513000E-03	 4.02896000E-03	 5.07866000E-04
					-1.36203000E-03	 4.62437000E-03	 1.36983000E-04
					-7.48429000E-05	 7.21923000E-03	-9.80331000E-05
					 2.53796000E-03	 7.20082000E-03	-5.65120000E-04
					-7.68786000E-05	 5.92308000E-03	-9.18805000E-05
					 2.51121000E-03	 5.90087000E-03	-5.88243000E-04
					-6.33309000E-05	 6.35162000E-03	-8.41302000E-05
					 1.23165000E-03	 7.21399000E-03	-2.92596000E-04
					 2.26644000E-03	 6.34581000E-03	-6.59510000E-04
					-2.69136000E-03	 7.20720000E-03	 3.69725000E-04
					-2.66797000E-03	 5.90380000E-03	 4.05224000E-04
					-2.39490000E-03	 6.34748000E-03	 4.90579000E-04
					-1.38221000E-03	 7.21665000E-03	 9.65111000E-05
					-8.12327000E-05	 2.91814000E-03	-1.23034000E-04
					 2.34241000E-03	 2.83493000E-03	 1.42433000E-05
					-7.99010000E-05	 5.41535000E-03	-1.19610000E-04
					 2.49317000E-03	 5.33554000E-03	 1.35626000E-06
					-8.56596000E-05	 2.55386000E-03	-9.99690000E-05
					 1.12985000E-03	 2.89585000E-03	 5.51583000E-06
					 2.47088000E-03	 2.49504000E-03	-3.52391000E-04
					-8.08041000E-05	 4.14688000E-03	-1.20779000E-04
					 2.41802000E-03	 4.06681000E-03	-1.96908000E-05
					-8.37824000E-05	 5.14438000E-03	-1.03503000E-04
					 1.20730000E-03	 5.39484000E-03	-2.56353000E-05
					 2.55043000E-03	 5.09485000E-03	-3.68672000E-04
					-2.50778000E-03	 2.83410000E-03	-2.56905000E-04
					-2.65622000E-03	 5.33975000E-03	-2.37599000E-04
					-2.64434000E-03	 2.49221000E-03	 1.53710000E-04
					-1.29316000E-03	 2.89499000E-03	-2.50821000E-04
					-2.58263000E-03	 4.06849000E-03	-2.18464000E-04
					-2.72118000E-03	 5.09667000E-03	 1.63230000E-04
					-1.36804000E-03	 5.39668000E-03	-2.12771000E-04
					-7.66910000E-05	 8.06806000E-03	-1.16879000E-04
					 2.65660000E-03	 7.99019000E-03	 1.93420000E-05
					-7.85014000E-05	 6.72294000E-03	-1.18713000E-04
					 2.57457000E-03	 6.64308000E-03	 1.87017000E-05
					-7.96273000E-05	 7.82521000E-03	-1.07924000E-04
					 1.28967000E-03	 8.04865000E-03	-2.59100000E-05
					 2.65014000E-03	 7.77857000E-03	-3.60744000E-04
					-2.81326000E-03	 8.00037000E-03	-2.50619000E-04
					-2.73504000E-03	 6.65012000E-03	-2.53877000E-04
					-2.81403000E-03	 7.78798000E-03	 1.46762000E-04
					-1.44387000E-03	 8.05384000E-03	-2.06736000E-04
					-7.33668000E-05	 2.02160000E-03	-1.52647000E-04
					 1.88045000E-03	 1.87620000E-03	 1.52618000E-03
					-7.43733000E-05	 4.12991000E-03	-1.44862000E-04
					 2.17644000E-03	 3.97724000E-03	 1.52775000E-03
					-7.53970000E-05	 2.86878000E-03	-1.39216000E-04
					 9.06037000E-04	 1.98712000E-03	 7.34673000E-04
					 2.12504000E-03	 2.75436000E-03	 6.64220000E-04
					-7.39218000E-05	 3.03795000E-03	-1.49012000E-04
					 2.02799000E-03	 2.88715000E-03	 1.49383000E-03
					-7.50354000E-05	 5.18768000E-03	-1.33311000E-04
					 1.05140000E-03	 4.09240000E-03	 7.07308000E-04
					 2.35766000E-03	 5.07052000E-03	 6.53503000E-04
					-2.03234000E-03	 1.88441000E-03	-1.83087000E-03
					-2.32673000E-03	 3.99234000E-03	-1.81661000E-03
					-2.27918000E-03	 2.75806000E-03	-9.38966000E-04
					-1.05416000E-03	 1.99241000E-03	-1.03947000E-03
					-2.17958000E-03	 2.89930000E-03	-1.79128000E-03
					-2.50963000E-03	 5.07899000E-03	-9.16940000E-04
					-1.20040000E-03	 4.10124000E-03	-9.96744000E-04
					-7.26752000E-05	 6.52453000E-03	-1.37409000E-04
					 2.47791000E-03	 6.37761000E-03	 1.54240000E-03
					-7.41671000E-05	 5.28954000E-03	-1.40805000E-04
					 2.32702000E-03	 5.13725000E-03	 1.55894000E-03
					-7.25307000E-05	 7.73673000E-03	-1.27559000E-04
					 1.20031000E-03	 6.48982000E-03	 6.93745000E-04
					 2.59676000E-03	 7.62276000E-03	 6.75342000E-04
					-2.62134000E-03	 6.39389000E-03	-1.81606000E-03
					-2.47473000E-03	 5.15388000E-03	-1.83970000E-03
					-2.74188000E-03	 7.63359000E-03	-9.27846000E-04
					-1.34494000E-03	 6.49831000E-03	-9.68154000E-04
					-6.61607000E-05	-3.06199000E-03	-1.97196000E-04
					 1.54259000E-03	-3.18940000E-03	 3.40019000E-03
					-6.97612000E-05	-1.32520000E-03	-1.80523000E-04
					 1.78657000E-03	-1.46189000E-03	 3.43217000E-03
					-7.12592000E-05	 4.52430000E-05	-1.71773000E-04
					 7.40904000E-04	-3.09401000E-03	 1.59315000E-03
					 1.68711000E-03	-9.24022000E-05	 2.50473000E-03
					-6.76278000E-05	-2.22388000E-03	-1.88702000E-04
					 1.66453000E-03	-2.35791000E-03	 3.39650000E-03
					-7.44349000E-05	 1.95713000E-03	-1.59415000E-04
					 8.59152000E-04	-1.36172000E-03	 1.59572000E-03
					 1.98028000E-03	 1.80926000E-03	 2.52387000E-03
					-1.68125000E-03	-3.16503000E-03	-3.79682000E-03
					-1.92774000E-03	-1.42863000E-03	-3.79596000E-03
					-1.83636000E-03	-7.86807000E-05	-2.85020000E-03
					-8.74917000E-04	-3.08149000E-03	-1.98837000E-03
					-1.80439000E-03	-2.32858000E-03	-3.77598000E-03
					-2.13127000E-03	 1.83250000E-03	-2.84435000E-03
					-9.98871000E-04	-1.34442000E-03	-1.95741000E-03
					-7.03782000E-05	 6.49106000E-04	-1.60116000E-04
					 2.03146000E-03	 5.14142000E-04	 3.43745000E-03
					-7.12006000E-05	-3.69672000E-04	-1.71425000E-04
					 1.90828000E-03	-5.06907000E-04	 3.47331000E-03
					-7.45644000E-05	 4.15549000E-03	-1.46367000E-04
					 9.79561000E-04	 6.13686000E-04	 1.57090000E-03
					 2.27730000E-03	 4.01226000E-03	 2.53164000E-03
					-2.16953000E-03	 5.47589000E-04	-3.76077000E-03
					-2.04938000E-03	-4.71947000E-04	-3.81933000E-03
					-2.42448000E-03	 4.03737000E-03	-2.82561000E-03
					-1.11929000E-03	 6.29623000E-04	-1.89172000E-03
					-5.68076000E-05	-1.16765000E-02	-2.51473000E-04
					 1.39553000E-03	-1.17355000E-02	 4.38993000E-03
					-5.60272000E-05	-1.01899000E-02	-2.31432000E-04
					 1.47160000E-03	-1.02507000E-02	 4.42052000E-03
					-6.05562000E-05	-7.09115000E-03	-2.23849000E-04
					 6.69802000E-04	-1.16974000E-02	 2.05139000E-03
					 1.45045000E-03	-7.18501000E-03	 4.02423000E-03
					-5.66796000E-05	-1.09401000E-02	-2.41964000E-04
					 1.43339000E-03	-1.10007000E-02	 4.39753000E-03
					-6.18412000E-05	-5.50127000E-03	-2.05746000E-04
					 7.08642000E-04	-1.02126000E-02	 2.06656000E-03
					 1.60836000E-03	-5.60041000E-03	 4.06107000E-03
					-1.51124000E-03	-1.16909000E-02	-4.89305000E-03
					-1.58249000E-03	-1.02034000E-02	-4.88344000E-03
					-1.57463000E-03	-7.14800000E-03	-4.47369000E-03
					-7.83985000E-04	-1.16755000E-02	-2.55411000E-03
					-1.54774000E-03	-1.09543000E-02	-4.88172000E-03
					-1.73180000E-03	-5.55904000E-03	-4.47495000E-03
					-8.20197000E-04	-1.01892000E-02	-2.52933000E-03
					-5.39291000E-05	-8.62749000E-03	-2.11008000E-04
					 1.54248000E-03	-8.69217000E-03	 4.42233000E-03
					-5.49514000E-05	-9.41873000E-03	-2.21226000E-04
					 1.50732000E-03	-9.47979000E-03	 4.44477000E-03
					-6.10382000E-05	-3.75682000E-03	-1.82938000E-04
					 7.46315000E-04	-8.65149000E-03	 2.05423000E-03
					 1.76257000E-03	-3.85804000E-03	 4.06310000E-03
					-1.64625000E-03	-8.64875000E-03	-4.84444000E-03
					-1.61385000E-03	-9.43298000E-03	-4.88739000E-03
					-1.88119000E-03	-3.81919000E-03	-4.43190000E-03
					-8.53081000E-04	-8.63152000E-03	-2.47602000E-03
					-3.72980000E-05	-2.13480000E-02	-3.08939000E-04
					 1.39123000E-03	-2.13804000E-02	 4.50307000E-03
					-4.33847000E-05	-1.99059000E-02	-2.81739000E-04
					 1.38706000E-03	-1.99403000E-02	 4.52268000E-03
					-5.04316000E-05	-1.64961000E-02	-2.81424000E-04
					 6.75790000E-04	-2.13660000E-02	 2.09307000E-03
					 1.37514000E-03	-1.65357000E-02	 4.50575000E-03
					-3.92308000E-05	-2.06285000E-02	-2.94416000E-04
					 1.38918000E-03	-2.06622000E-02	 4.51808000E-03
					-5.12482000E-05	-1.50543000E-02	-2.56680000E-04
					 6.68326000E-04	-1.99258000E-02	 2.11806000E-03
					 1.40393000E-03	-1.50972000E-02	 4.52892000E-03
					-1.47360000E-03	-2.13265000E-02	-5.11451000E-03
					-1.47356000E-03	-1.98771000E-02	-5.07896000E-03
					-1.48145000E-03	-1.64892000E-02	-5.06485000E-03
					-7.52113000E-04	-2.13387000E-02	-2.70914000E-03
					-1.47260000E-03	-2.06017000E-02	-5.10045000E-03
					-1.50584000E-03	-1.50442000E-02	-5.03804000E-03
					-7.54850000E-04	-1.98927000E-02	-2.67972000E-03
					-4.93738000E-05	-1.84597000E-02	-2.63685000E-04
					 1.37433000E-03	-1.84922000E-02	 4.51828000E-03
					-4.76594000E-05	-1.91790000E-02	-2.71447000E-04
					 1.38011000E-03	-1.92122000E-02	 4.51989000E-03
					-5.11609000E-05	-1.35888000E-02	-2.38692000E-04
					 6.61336000E-04	-1.84784000E-02	 2.12477000E-03
					 1.42156000E-03	-1.36335000E-02	 4.52767000E-03
					-1.46491000E-03	-1.84381000E-02	-5.03851000E-03
					-1.46993000E-03	-1.91516000E-02	-5.05563000E-03
					-1.51744000E-03	-1.35874000E-02	-5.00059000E-03
					-7.58044000E-04	-1.84509000E-02	-2.65016000E-03
					 0.00000000E+00	 0.00000000E+00	 0.00000000E+00
					 0.00000000E+00	 0.00000000E+00	 0.00000000E+00
					 8.32319000E-05	-2.45980000E-03	-8.45368000E-05
					-1.19663000E-03	-2.59418000E-03	 2.62203000E-03
					 0.00000000E+00	 0.00000000E+00	 0.00000000E+00
					 0.00000000E+00	 0.00000000E+00	 0.00000000E+00
					 7.95934000E-05	-3.60510000E-03	-4.22028000E-05
					-9.18854000E-04	-3.74265000E-03	 2.70196000E-03
					 0.00000000E+00	 0.00000000E+00	 0.00000000E+00
					 3.63626000E-05	-5.39148000E-04	-4.45016000E-05
					-5.60303000E-04	-2.47228000E-03	 1.32216000E-03
					-7.83759000E-04	-7.80090000E-04	 1.42437000E-03
					 0.00000000E+00	 0.00000000E+00	 0.00000000E+00
					 0.00000000E+00	 0.00000000E+00	 0.00000000E+00
					 8.05543000E-05	-3.08777000E-03	-6.09480000E-05
					-1.05535000E-03	-3.21796000E-03	 2.56181000E-03
					 0.00000000E+00	 0.00000000E+00	 0.00000000E+00
					 2.76669000E-05	-1.14756000E-03	-1.83164000E-05
					-4.18447000E-04	-3.61592000E-03	 1.27684000E-03
					-4.04979000E-04	-1.37639000E-03	 1.42060000E-03
					 0.00000000E+00	 0.00000000E+00	 0.00000000E+00
					 1.36067000E-03	-2.58874000E-03	-2.79017000E-03
					 0.00000000E+00	 0.00000000E+00	 0.00000000E+00
					 1.07739000E-03	-3.73214000E-03	-2.78733000E-03
					 0.00000000E+00	 0.00000000E+00	 0.00000000E+00
					 8.51385000E-04	-7.96471000E-04	-1.51694000E-03
					 7.26734000E-04	-2.46892000E-03	-1.49117000E-03
					 0.00000000E+00	 0.00000000E+00	 0.00000000E+00
					 1.21491000E-03	-3.21016000E-03	-2.68313000E-03
					 0.00000000E+00	 0.00000000E+00	 0.00000000E+00
					 4.56304000E-04	-1.38091000E-03	-1.45996000E-03
					 5.77173000E-04	-3.61128000E-03	-1.36196000E-03
					 0.00000000E+00	 0.00000000E+00	 0.00000000E+00
					 0.00000000E+00	 0.00000000E+00	 0.00000000E+00
					 7.86137000E-05	-4.45545000E-03	 3.22882000E-06
					-6.20411000E-04	-4.57799000E-03	 2.70781000E-03
					 0.00000000E+00	 0.00000000E+00	 0.00000000E+00
					 0.00000000E+00	 0.00000000E+00	 0.00000000E+00
					 7.84414000E-05	-4.08276000E-03	-2.27153000E-05
					-7.71834000E-04	-4.21056000E-03	 2.81459000E-03
					 0.00000000E+00	 0.00000000E+00	 0.00000000E+00
					 2.65840000E-05	-1.40053000E-03	 8.49940000E-06
					-2.71024000E-04	-4.45950000E-03	 1.19213000E-03
					 2.47216000E-05	-1.61001000E-03	 1.47748000E-03
					 0.00000000E+00	 0.00000000E+00	 0.00000000E+00
					 7.72905000E-04	-4.55940000E-03	-2.70380000E-03
					 0.00000000E+00	 0.00000000E+00	 0.00000000E+00
					 9.25595000E-04	-4.20104000E-03	-2.86220000E-03
					 0.00000000E+00	 0.00000000E+00	 0.00000000E+00
					 2.12032000E-05	-1.59938000E-03	-1.46308000E-03
					 4.28453000E-04	-4.45251000E-03	-1.18643000E-03
					 2.03784000E-04	-8.52254000E-03	-1.27816000E-04
					-2.54548000E-03	-8.65573000E-03	 4.33870000E-03
					 2.09968000E-04	-1.11521000E-02	-9.59827000E-05
					-2.30897000E-03	-1.12838000E-02	 4.37914000E-03
					 1.44211000E-04	-5.10052000E-03	-1.09282000E-04
					-1.17121000E-03	-8.56549000E-03	 2.20484000E-03
					-1.83480000E-03	-5.26470000E-03	 3.54570000E-03
					 2.06921000E-04	-9.86125000E-03	-1.12664000E-04
					-2.42626000E-03	-9.99193000E-03	 4.24659000E-03
					 1.43172000E-04	-6.95835000E-03	-6.69488000E-05
					-1.04504000E-03	-1.11921000E-02	 2.13126000E-03
					-1.58184000E-03	-7.11216000E-03	 3.59593000E-03
					 2.95950000E-03	-8.59840000E-03	-4.59659000E-03
					 2.72751000E-03	-1.12421000E-02	-4.57266000E-03
					 2.12550000E-03	-5.23512000E-03	-3.76598000E-03
					 1.57957000E-03	-8.53414000E-03	-2.46236000E-03
					 2.84516000E-03	-9.94925000E-03	-4.47094000E-03
					 1.86918000E-03	-7.08757000E-03	-3.73186000E-03
					 1.46913000E-03	-1.11711000E-02	-2.32111000E-03
					 2.08368000E-04	-1.35597000E-02	-6.02791000E-05
					-2.06306000E-03	-1.36726000E-02	 4.40319000E-03
					 2.09634000E-04	-1.23776000E-02	-7.80017000E-05
					-2.18537000E-03	-1.25321000E-02	 4.50783000E-03
					 1.42679000E-04	-8.55376000E-03	-2.20840000E-05
					-9.34202000E-04	-1.35877000E-02	 2.04454000E-03
					-1.31496000E-03	-8.69997000E-03	 3.63101000E-03
					 2.50634000E-03	-1.36534000E-02	-4.52677000E-03
					 2.61779000E-03	-1.24718000E-02	-4.66971000E-03
					 1.60921000E-03	-8.68310000E-03	-3.67633000E-03
					 1.35791000E-03	-1.35795000E-02	-2.16143000E-03
					 3.15139000E-04	-1.80922000E-02	-1.80370000E-04
					-3.56722000E-03	-1.81175000E-02	 5.42983000E-03
					 3.32429000E-04	-2.18794000E-02	-1.58927000E-04
					-3.42839000E-03	-2.20237000E-02	 5.47316000E-03
					 2.60039000E-04	-1.28603000E-02	-1.48208000E-04
					-1.61735000E-03	-1.80896000E-02	 2.62080000E-03
					-3.16457000E-03	-1.29569000E-02	 5.01170000E-03
					 3.25015000E-04	-2.00000000E-02	-1.65597000E-04
					-3.50112000E-03	-2.01032000E-02	 5.39762000E-03
					 2.71207000E-04	-1.61745000E-02	-1.27548000E-04
					-1.57371000E-03	-2.19416000E-02	 2.58612000E-03
					-2.95922000E-03	-1.62940000E-02	 5.05051000E-03
					 4.16457000E-03	-1.80721000E-02	-5.77610000E-03
					 4.09352000E-03	-2.18940000E-02	-5.81060000E-03
					 3.68356000E-03	-1.28842000E-02	-5.30858000E-03
					 2.23608000E-03	-1.80697000E-02	-2.96989000E-03
					 4.12817000E-03	-1.99959000E-02	-5.74331000E-03
					 3.50746000E-03	-1.62170000E-02	-5.30818000E-03
					 2.21521000E-03	-2.18796000E-02	-2.92405000E-03
					 3.39754000E-04	-2.55990000E-02	-1.39839000E-04
					-3.41335000E-03	-2.58654000E-02	 5.46842000E-03
					 3.37542000E-04	-2.37656000E-02	-1.52235000E-04
					-3.42311000E-03	-2.38394000E-02	 5.55959000E-03
					 2.85091000E-04	-1.93212000E-02	-1.03554000E-04
					-1.50567000E-03	-2.57281000E-02	 2.49988000E-03
					-2.81188000E-03	-1.94710000E-02	 5.05803000E-03
					 4.05003000E-03	-2.56492000E-02	-5.79382000E-03
					 4.07318000E-03	-2.37773000E-02	-5.88386000E-03
					 3.34600000E-03	-1.93709000E-02	-5.27078000E-03
					 2.18679000E-03	-2.56260000E-02	-2.82437000E-03
					 4.93715000E-04	-2.96225000E-02	-2.72659000E-04
					-3.61478000E-03	-2.94358000E-02	 4.83116000E-03