<?xml version="1.0"?>
<VTKFile type="UnstructuredGrid" version="0.1" byte_order="LittleEndian">
	<UnstructuredGrid>
		<Piece NumberOfPoints="522" NumberOfCells="64">
			<Points>
				<DataArray type="Float64" NumberOfComponents="3" format="ascii">
					 1.00000000E+00	 1.00000000E+00	-5.96046000E-08
					 1.00000000E+00	 5.00000000E-01	-5.96046000E-08
					 1.00000000E+00	 5.00000000E-01	 1.00000000E+00
					 1.00000000E+00	 1.00000000E+00	 1.00000000E+00
					 5.00000000E-01	 1.00000000E+00	-5.96046000E-08
					 5.00000000E-01	 5.00000000E-01	-5.96046000E-08
					 5.00000000E-01	 5.00000000E-01	 1.00000000E+00
					 5.00000000E-01	 1.00000000E+00	 1.00000000E+00
					 1.00000000E+00	 7.50000000E-01	-5.96046000E-08
					 1.00000000E+00	 5.00000000E-01	 5.00000000E-01
					 1.00000000E+00	 7.50000000E-01	 1.00000000E+00
					 1.00000000E+00	 1.00000000E+00	 5.00000000E-01
					 7.50000000E-01	 1.00000000E+00	-5.96046000E-08
					 7.50000000E-01	 5.00000000E-01	-5.96046000E-08
					 7.50000000E-01	 5.00000000E-01	 1.00000000E+00
					 7.50000000E-01	 1.00000000E+00	 1.00000000E+00
					 5.00000000E-01	 7.50000000E-01	-5.96046000E-08
					 5.00000000E-01	 5.00000000E-01	 5.00000000E-01
					 5.00000000E-01	 7.50000000E-01	 1.00000000E+00
					 5.00000000E-01	 1.00000000E+00	 5.00000000E-01
					 1.00000000E+00	-1.49012000E-08	-5.96046000E-08
					 1.00000000E+00	-1.49012000E-08	 1.00000000E+00
					 5.00000000E-01	-1.49012000E-08	-5.96046000E-08
					 5.00000000E-01	-1.49012000E-08	 1.00000000E+00
					 1.00000000E+00	 2.50000000E-01	-5.96046000E-08
					 1.00000000E+00	-1.49012000E-08	 5.00000000E-01
					 1.00000000E+00	 2.50000000E-01	 1.00000000E+00
					 7.50000000E-01	-1.49012000E-08	-5.96046000E-08
					 7.50000000E-01	-1.49012000E-08	 1.00000000E+00
					 5.00000000E-01	 2.50000000E-01	-5.96046000E-08
					 5.00000000E-01	-1.49012000E-08	 5.00000000E-01
					 5.00000000E-01	 2.50000000E-01	 1.00000000E+00
					-7.45058000E-09	 1.00000000E+00	-5.96046000E-08
					-7.45058000E-09	 5.00000000E-01	-5.96046000E-08
					-7.45058000E-09	 5.00000000E-01	 1.00000000E+00
					-7.45058000E-09	 1.00000000E+00	 1.00000000E+00
					 2.50000000E-01	 1.00000000E+00	-5.96046000E-08
					 2.50000000E-01	 5.00000000E-01	-5.96046000E-08
					 2.50000000E-01	 5.00000000E-01	 1.00000000E+00
					 2.50000000E-01	 1.00000000E+00	 1.00000000E+00
					-7.45058000E-09	 7.50000000E-01	-5.96046000E-08
					-7.45058000E-09	 5.00000000E-01	 5.00000000E-01
					-7.45058000E-09	 7.50000000E-01	 1.00000000E+00
					-7.45058000E-09	 1.00000000E+00	 5.00000000E-01
					-7.45058000E-09	-1.49012000E-08	-5.96046000E-08
					-7.45058000E-09	-1.49012000E-08	 1.00000000E+00
					 2.50000000E-01	-1.49012000E-08	-5.96046000E-08
					 2.50000000E-01	-1.49012000E-08	 1.00000000E+00
					-7.45058000E-09	 2.50000000E-01	-5.96046000E-08
					-7.45058000E-09	-1.49012000E-08	 5.00000000E-01
					-7.45058000E-09	 2.50000000E-01	 1.00000000E+00
					 1.00000000E+00	 5.00000000E-01	 2.00000000E+00
					 1.00000000E+00	 1.00000000E+00	 2.00000000E+00
					 5.00000000E-01	 5.00000000E-01	 2.00000000E+00
					 5.00000000E-01	 1.00000000E+00	 2.00000000E+00
					 1.00000000E+00	 5.00000000E-01	 1.50000000E+00
					 1.00000000E+00	 7.50000000E-01	 2.00000000E+00
					 1.00000000E+00	 1.00000000E+00	 1.50000000E+00
					 7.50000000E-01	 5.00000000E-01	 2.00000000E+00
					 7.50000000E-01	 1.00000000E+00	 2.00000000E+00
					 5.00000000E-01	 5.00000000E-01	 1.50000000E+00
					 5.00000000E-01	 7.50000000E-01	 2.00000000E+00
					 5.00000000E-01	 1.00000000E+00	 1.50000000E+00
					 1.00000000E+00	-1.49012000E-08	 2.00000000E+00
					 5.00000000E-01	-1.49012000E-08	 2.00000000E+00
					 1.00000000E+00	-1.49012000E-08	 1.50000000E+00
					 1.00000000E+00	 2.50000000E-01	 2.00000000E+00
					 7.50000000E-01	-1.49012000E-08	 2.00000000E+00
					 5.00000000E-01	-1.49012000E-08	 1.50000000E+00
					 5.00000000E-01	 2.50000000E-01	 2.00000000E+00
					-7.45058000E-09	 5.00000000E-01	 2.00000000E+00
					-7.45058000E-09	 1.00000000E+00	 2.00000000E+00
					 2.50000000E-01	 5.00000000E-01	 2.00000000E+00
					 2.50000000E-01	 1.00000000E+00	 2.00000000E+00
					-7.45058000E-09	 5.00000000E-01	 1.50000000E+00
					-7.45058000E-09	 7.50000000E-01	 2.00000000E+00
					-7.45058000E-09	 1.00000000E+00	 1.50000000E+00
					-7.45058000E-09	-1.49012000E-08	 2.00000000E+00
					 2.50000000E-01	-1.49012000E-08	 2.00000000E+00
					-7.45058000E-09	-1.49012000E-08	 1.50000000E+00
					-7.45058000E-09	 2.50000000E-01	 2.00000000E+00
					 1.00000000E+00	 5.00000000E-01	 3.00000000E+00
					 1.00000000E+00	 1.00000000E+00	 3.00000000E+00
					 5.00000000E-01	 5.00000000E-01	 3.00000000E+00
					 5.00000000E-01	 1.00000000E+00	 3.00000000E+00
					 1.00000000E+00	 5.00000000E-01	 2.50000000E+00
					 1.00000000E+00	 7.50000000E-01	 3.00000000E+00
					 1.00000000E+00	 1.00000000E+00	 2.50000000E+00
					 7.50000000E-01	 5.00000000E-01	 3.00000000E+00
					 7.50000000E-01	 1.00000000E+00	 3.00000000E+00
					 5.00000000E-01	 5.00000000E-01	 2.50000000E+00
					 5.00000000E-01	 7.50000000E-01	 3.00000000E+00
					 5.00000000E-01	 1.00000000E+00	 2.50000000E+00
					 1.00000000E+00	-1.49012000E-08	 3.00000000E+00
					 5.00000000E-01	-1.49012000E-08	 3.00000000E+00
					 1.00000000E+00	-1.49012000E-08	 2.50000000E+00
					 1.00000000E+00	 2.50000000E-01	 3.00000000E+00
					 7.50000000E-01	-1.49012000E-08	 3.00000000E+00
					 5.00000000E-01	-1.49012000E-08	 2.50000000E+00
					 5.00000000E-01	 2.50000000E-01	 3.00000000E+00
					-7.45058000E-09	 5.00000000E-01	 3.00000000E+00
					-7.45058000E-09	 1.00000000E+00	 3.00000000E+00
					 2.50000000E-01	 5.00000000E-01	 3.00000000E+00
					 2.50000000E-01	 1.00000000E+00	 3.00000000E+00
					-7.45058000E-09	 5.00000000E-01	 2.50000000E+00
					-7.45058000E-09	 7.50000000E-01	 3.00000000E+00
					-7.45058000E-09	 1.00000000E+00	 2.50000000E+00
					-7.45058000E-09	-1.49012000E-08	 3.00000000E+00
					 2.50000000E-01	-1.49012000E-08	 3.00000000E+00
					-7.45058000E-09	-1.49012000E-08	 2.50000000E+00
					-7.45058000E-09	 2.50000000E-01	 3.00000000E+00
					 1.00000000E+00	 5.00000000E-01	 4.00000000E+00
					 1.00000000E+00	 1.00000000E+00	 4.00000000E+00
					 5.00000000E-01	 5.00000000E-01	 4.00000000E+00
					 5.00000000E-01	 1.00000000E+00	 4.00000000E+00
					 1.00000000E+00	 5.00000000E-01	 3.50000000E+00
					 1.00000000E+00	 7.50000000E-01	 4.00000000E+00
					 1.00000000E+00	 1.00000000E+00	 3.50000000E+00
					 7.50000000E-01	 5.00000000E-01	 4.00000000E+00
					 7.50000000E-01	 1.00000000E+00	 4.00000000E+00
					 5.00000000E-01	 5.00000000E-01	 3.50000000E+00
					 5.00000000E-01	 7.50000000E-01	 4.00000000E+00
					 5.00000000E-01	 1.00000000E+00	 3.50000000E+00
					 1.00000000E+00	-1.49012000E-08	 4.00000000E+00
					 5.00000000E-01	-1.49012000E-08	 4.00000000E+00
					 1.00000000E+00	-1.49012000E-08	 3.50000000E+00
					 1.00000000E+00	 2.50000000E-01	 4.00000000E+00
					 7.50000000E-01	-1.49012000E-08	 4.00000000E+00
					 5.00000000E-01	-1.49012000E-08	 3.50000000E+00
					 5.00000000E-01	 2.50000000E-01	 4.00000000E+00
					-7.45058000E-09	 5.00000000E-01	 4.00000000E+00
					-7.45058000E-09	 1.00000000E+00	 4.00000000E+00
					 2.50000000E-01	 5.00000000E-01	 4.00000000E+00
					 2.50000000E-01	 1.00000000E+00	 4.00000000E+00
					-7.45058000E-09	 5.00000000E-01	 3.50000000E+00
					-7.45058000E-09	 7.50000000E-01	 4.00000000E+00
					-7.45058000E-09	 1.00000000E+00	 3.50000000E+00
					-7.45058000E-09	-1.49012000E-08	 4.00000000E+00
					 2.50000000E-01	-1.49012000E-08	 4.00000000E+00
					-7.45058000E-09	-1.49012000E-08	 3.50000000E+00
					-7.45058000E-09	 2.50000000E-01	 4.00000000E+00
					 1.00000000E+00	 5.00000000E-01	 5.00000000E+00
					 1.00000000E+00	 1.00000000E+00	 5.00000000E+00
					 5.00000000E-01	 5.00000000E-01	 5.00000000E+00
					 5.00000000E-01	 1.00000000E+00	 5.00000000E+00
					 1.00000000E+00	 5.00000000E-01	 4.50000000E+00
					 1.00000000E+00	 7.50000000E-01	 5.00000000E+00
					 1.00000000E+00	 1.00000000E+00	 4.50000000E+00
					 7.50000000E-01	 5.00000000E-01	 5.00000000E+00
					 7.50000000E-01	 1.00000000E+00	 5.00000000E+00
					 5.00000000E-01	 5.00000000E-01	 4.50000000E+00
					 5.00000000E-01	 7.50000000E-01	 5.00000000E+00
					 5.00000000E-01	 1.00000000E+00	 4.50000000E+00
					 1.00000000E+00	-1.49012000E-08	 5.00000000E+00
					 5.00000000E-01	-1.49012000E-08	 5.00000000E+00
					 1.00000000E+00	-1.49012000E-08	 4.50000000E+00
					 1.00000000E+00	 2.50000000E-01	 5.00000000E+00
					 7.50000000E-01	-1.49012000E-08	 5.00000000E+00
					 5.00000000E-01	-1.49012000E-08	 4.50000000E+00
					 5.00000000E-01	 2.50000000E-01	 5.00000000E+00
					-7.45058000E-09	 5.00000000E-01	 5.00000000E+00
					-7.45058000E-09	 1.00000000E+00	 5.00000000E+00
					 2.50000000E-01	 5.00000000E-01	 5.00000000E+00
					 2.50000000E-01	 1.00000000E+00	 5.00000000E+00
					-7.45058000E-09	 5.00000000E-01	 4.50000000E+00
					-7.45058000E-09	 7.50000000E-01	 5.00000000E+00
					-7.45058000E-09	 1.00000000E+00	 4.50000000E+00
					-7.45058000E-09	-1.49012000E-08	 5.00000000E+00
					 2.50000000E-01	-1.49012000E-08	 5.00000000E+00
					-7.45058000E-09	-1.49012000E-08	 4.50000000E+00
					-7.45058000E-09	 2.50000000E-01	 5.00000000E+00
					 1.00000000E+00	 5.00000000E-01	 6.00000000E+00
					 1.00000000E+00	 1.00000000E+00	 6.00000000E+00
					 5.00000000E-01	 5.00000000E-01	 6.00000000E+00
					 5.00000000E-01	 1.00000000E+00	 6.00000000E+00
					 1.00000000E+00	 5.00000000E-01	 5.50000000E+00
					 1.00000000E+00	 7.50000000E-01	 6.00000000E+00
					 1.00000000E+00	 1.00000000E+00	 5.50000000E+00
					 7.50000000E-01	 5.00000000E-01	 6.00000000E+00
					 7.50000000E-01	 1.00000000E+00	 6.00000000E+00
					 5.00000000E-01	 5.00000000E-01	 5.50000000E+00
					 5.00000000E-01	 7.50000000E-01	 6.00000000E+00
					 5.00000000E-01	 1.00000000E+00	 5.50000000E+00
					 1.00000000E+00	-1.49012000E-08	 6.00000000E+00
[...]
			<PointData>
				<DataArray type="Float32" Name="U" NumberOfComponents="3" ComponentName0="D1" ComponentName1="D2" ComponentName2="D3" format="ascii">
					 0.00000000E+00	 0.00000000E+00	 0.00000000E+00
					 0.00000000E+00	 0.00000000E+00	 0.00000000E+00
					-2.77359000E-05	 3.99601000E-03	-6.58407000E-05
					 1.17163000E-03	 4.18495000E-03	-3.93393000E-03
					 0.00000000E+00	 0.00000000E+00	 0.00000000E+00
					 0.00000000E+00	 0.00000000E+00	 0.00000000E+00
					 8.05005000E-06	 4.95769000E-03	-8.77424000E-05
					 7.28460000E-04	 5.10986000E-03	-3.91708000E-03
					 0.00000000E+00	 0.00000000E+00	 0.00000000E+00
					-5.52905000E-06	 8.47189000E-04	-4.86054000E-05
					 5.54680000E-04	 4.03250000E-03	-1.96735000E-03
					 9.53477000E-04	 1.19196000E-03	-2.06359000E-03
					 0.00000000E+00	 0.00000000E+00	 0.00000000E+00
					 0.00000000E+00	 0.00000000E+00	 0.00000000E+00
					-9.59096000E-06	 4.52422000E-03	-5.79721000E-05
					 9.32921000E-04	 4.73672000E-03	-3.90919000E-03
					 0.00000000E+00	 0.00000000E+00	 0.00000000E+00
					-8.81225000E-06	 1.50094000E-03	-3.04945000E-05
					 3.68814000E-04	 4.93371000E-03	-1.94975000E-03
					 3.62268000E-04	 1.82303000E-03	-2.02972000E-03
					 0.00000000E+00	 0.00000000E+00	 0.00000000E+00
					-1.12617000E-03	 4.20197000E-03	 3.71432000E-03
					 0.00000000E+00	 0.00000000E+00	 0.00000000E+00
					-7.38234000E-04	 5.14369000E-03	 3.82295000E-03
					 0.00000000E+00	 0.00000000E+00	 0.00000000E+00
					-9.54540000E-04	 1.17019000E-03	 2.00153000E-03
					-5.57268000E-04	 4.03087000E-03	 1.79824000E-03
					 0.00000000E+00	 0.00000000E+00	 0.00000000E+00
					-9.21609000E-04	 4.76018000E-03	 3.73410000E-03
					 0.00000000E+00	 0.00000000E+00	 0.00000000E+00
					-3.87228000E-04	 1.79157000E-03	 1.98094000E-03
					-3.59322000E-04	 4.95377000E-03	 1.78910000E-03
					 0.00000000E+00	 0.00000000E+00	 0.00000000E+00
					 0.00000000E+00	 0.00000000E+00	 0.00000000E+00
					 3.97606000E-05	 5.47475000E-03	-4.10192000E-05
					 2.87912000E-04	 5.59874000E-03	-3.87317000E-03
					 0.00000000E+00	 0.00000000E+00	 0.00000000E+00
					 0.00000000E+00	 0.00000000E+00	 0.00000000E+00
					 2.24661000E-06	 5.26417000E-03	-4.77020000E-05
					 5.32755000E-04	 5.42101000E-03	-3.98511000E-03
					 0.00000000E+00	 0.00000000E+00	 0.00000000E+00
					-9.48129000E-06	 1.61519000E-03	 5.19023000E-07
					 1.64217000E-04	 5.44914000E-03	-1.83507000E-03
					-1.94167000E-04	 1.92724000E-03	-2.09212000E-03
					 0.00000000E+00	 0.00000000E+00	 0.00000000E+00
					-3.80767000E-04	 5.62284000E-03	 3.76859000E-03
					 0.00000000E+00	 0.00000000E+00	 0.00000000E+00
					-5.51148000E-04	 5.41852000E-03	 3.82428000E-03
					 0.00000000E+00	 0.00000000E+00	 0.00000000E+00
					 1.93387000E-04	 1.93602000E-03	 1.99569000E-03
					-1.48313000E-04	 5.45926000E-03	 1.75232000E-03
					-1.97332000E-05	 1.48867000E-02	-1.72196000E-04
					 8.73959000E-04	 1.51370000E-02	-6.60020000E-03
					-5.26954000E-05	 1.56993000E-02	-2.06791000E-04
					 5.73057000E-04	 1.57853000E-02	-6.58658000E-03
					-1.22749000E-05	 8.77069000E-03	-1.14815000E-04
					 4.23002000E-04	 1.49580000E-02	-3.32805000E-03
					 1.07491000E-03	 8.93351000E-03	-5.35429000E-03
					-3.31594000E-05	 1.53387000E-02	-1.86500000E-04
					 7.29314000E-04	 1.54464000E-02	-6.62920000E-03
					-1.76743000E-05	 9.66950000E-03	-1.09528000E-04
					 2.61265000E-04	 1.57098000E-02	-3.36411000E-03
					 6.79211000E-04	 9.86549000E-03	-5.38637000E-03
					-9.79427000E-04	 1.50781000E-02	 6.28393000E-03
					-6.39519000E-04	 1.58696000E-02	 6.24764000E-03
					-1.06117000E-03	 9.01575000E-03	 5.11560000E-03
					-5.31858000E-04	 1.49373000E-02	 3.01278000E-03
					-8.01533000E-04	 1.55171000E-02	 6.29015000E-03
					-6.85305000E-04	 9.87577000E-03	 5.10400000E-03
					-3.45428000E-04	 1.57405000E-02	 3.01819000E-03
					-7.03584000E-05	 1.61090000E-02	-2.15064000E-04
					 3.02668000E-04	 1.63111000E-02	-6.63541000E-03
					-6.02936000E-05	 1.59520000E-02	-2.01820000E-04
					 4.23002000E-04	 1.60890000E-02	-6.60114000E-03
					-9.95445000E-06	 1.01267000E-02	-1.07455000E-04
					 1.20383000E-04	 1.61945000E-02	-3.42903000E-03
					 3.13710000E-04	 1.03984000E-02	-5.36773000E-03
					-3.05530000E-04	 1.62068000E-02	 6.27338000E-03
					-4.66795000E-04	 1.61152000E-02	 6.23013000E-03
					-3.37707000E-04	 1.03741000E-02	 5.08730000E-03
					-1.68223000E-04	 1.61246000E-02	 3.03051000E-03
					-8.45898000E-05	 3.00565000E-02	-2.56455000E-04
					 8.28659000E-04	 3.00476000E-02	-8.68393000E-03
					-3.08272000E-05	 3.08268000E-02	-2.41332000E-04
					 5.05643000E-04	 3.07964000E-02	-8.73778000E-03
					-7.13578000E-05	 2.19902000E-02	-2.10657000E-04
					 3.81947000E-04	 2.99997000E-02	-4.44708000E-03
					 8.48341000E-04	 2.20564000E-02	-7.65557000E-03
					-6.42702000E-05	 3.04825000E-02	-2.35685000E-04
					 6.87040000E-04	 3.04988000E-02	-8.72862000E-03
					-5.96499000E-05	 2.27029000E-02	-2.42201000E-04
					 2.51556000E-04	 3.07963000E-02	-4.47697000E-03
					 5.45719000E-04	 2.28072000E-02	-7.69301000E-03
					-9.39660000E-04	 3.03657000E-02	 8.23302000E-03
					-6.40711000E-04	 3.10537000E-02	 8.23387000E-03
					-9.46812000E-04	 2.22260000E-02	 7.31298000E-03
					-5.21703000E-04	 3.02047000E-02	 3.99474000E-03
					-7.68402000E-04	 3.07370000E-02	 8.26133000E-03
					-6.42231000E-04	 2.29601000E-02	 7.25938000E-03
					-3.36818000E-04	 3.08781000E-02	 3.99506000E-03
					-2.36402000E-05	 3.12360000E-02	-2.52078000E-04
					 2.29820000E-04	 3.12382000E-02	-8.72571000E-03
					-3.91555000E-05	 3.10571000E-02	-2.45672000E-04
					 3.75648000E-04	 3.10502000E-02	-8.71934000E-03
					-4.79752000E-05	 2.31902000E-02	-2.56705000E-04
					 9.16117000E-05	 3.11788000E-02	-4.49442000E-03
					 2.89903000E-04	 2.32443000E-02	-7.69223000E-03
					-3.09080000E-04	 3.14988000E-02	 8.23532000E-03
					-5.03504000E-04	 3.13043000E-02	 8.24093000E-03
					-3.37419000E-04	 2.33852000E-02	 7.28519000E-03
					-1.69619000E-04	 3.13460000E-02	 3.95789000E-03
					-5.03398000E-05	 4.90108000E-02	-3.16327000E-04
					 9.33647000E-04	 4.89620000E-02	-1.03335000E-02
					-8.21266000E-05	 4.98839000E-02	-3.13910000E-04
					 7.63536000E-04	 4.99067000E-02	-1.03425000E-02
					-9.92935000E-05	 3.91547000E-02	-2.33100000E-04
					 4.18115000E-04	 4.89693000E-02	-5.31919000E-03
					 7.97143000E-04	 3.91829000E-02	-9.63321000E-03
					-8.40818000E-05	 4.94619000E-02	-2.96482000E-04
					 8.46849000E-04	 4.94468000E-02	-1.03307000E-02
					-5.74249000E-05	 3.99233000E-02	-2.41149000E-04
					 3.38975000E-04	 4.98705000E-02	-5.28855000E-03
					 6.06950000E-04	 3.99351000E-02	-9.62326000E-03
					-1.07035000E-03	 4.91134000E-02	 9.65541000E-03
					-9.39923000E-04	 5.00228000E-02	 9.70726000E-03
					-1.02537000E-03	 3.93527000E-02	 9.11578000E-03
					-5.72392000E-04	 4.90433000E-02	 4.60616000E-03
					-9.79303000E-04	 4.96011000E-02	 9.63055000E-03
					-7.53711000E-04	 4.01630000E-02	 9.11478000E-03
					-5.29180000E-04	 4.99351000E-02	 4.63425000E-03
					-1.30320000E-04	 5.06338000E-02	-2.79091000E-04
					 6.07356000E-04	 5.07326000E-02	-1.03432000E-02
					-9.28646000E-05	 5.03122000E-02	-3.18993000E-04
					 6.83511000E-04	 5.03240000E-02	-1.03861000E-02
					-5.10279000E-05	 4.05256000E-02	-2.72658000E-04
					 2.37045000E-04	 5.06712000E-02	-5.23074000E-03
					 4.21890000E-04	 4.05218000E-02	-9.62470000E-03
					-7.87239000E-04	 5.08677000E-02	 9.63087000E-03
					-8.60390000E-04	 5.04604000E-02	 9.69970000E-03
					-5.41513000E-04	 4.07812000E-02	 9.09027000E-03
					-4.29221000E-04	 5.07337000E-02	 4.59683000E-03
					-1.09067000E-04	 7.05627000E-02	-6.00194000E-04
					 1.76118000E-04	 7.03983000E-02	-1.07990000E-02
					-9.63910000E-05	 7.08761000E-02	-7.25363000E-04
					 1.80848000E-04	 7.06827000E-02	-1.08435000E-02
					-5.18670000E-05	 5.96483000E-02	-4.67704000E-04
					 9.61978000E-06	 7.04933000E-02	-5.56909000E-03
					 7.14760000E-04	 5.94728000E-02	-1.06794000E-02
					-8.65090000E-05	 7.07106000E-02	-6.82809000E-04
					 1.64730000E-04	 7.05999000E-02	-1.09127000E-02
					-9.07414000E-05	 6.03599000E-02	-5.19934000E-04
					 5.55326000E-05	 7.07973000E-02	-5.69910000E-03
					 6.17498000E-04	 6.02805000E-02	-1.07758000E-02
					-4.39330000E-04	 7.05111000E-02	 9.53119000E-03
					-4.34733000E-04	 7.09158000E-02	 9.52502000E-03
					-8.45221000E-04	 5.96590000E-02	 9.73087000E-03
					-2.06551000E-04	 7.05809000E-02	 4.33007000E-03
					-4.53594000E-04	 7.07518000E-02	 9.62794000E-03
					-7.35353000E-04	 6.04385000E-02	 9.76586000E-03
					-2.41943000E-04	 7.09030000E-02	 4.37846000E-03
					-1.04525000E-04	 7.12187000E-02	-7.37582000E-04
					 4.62839000E-04	 7.11520000E-02	-1.09210000E-02
					-8.85844000E-05	 7.09576000E-02	-7.25353000E-04
					 2.92180000E-04	 7.08586000E-02	-1.07595000E-02
					-7.37505000E-05	 6.09987000E-02	-5.17416000E-04
					 1.01499000E-04	 7.11716000E-02	-5.83537000E-03
					 6.17176000E-04	 6.09936000E-02	-1.07401000E-02
					-4.88172000E-04	 7.13123000E-02	 9.43119000E-03
					-4.53125000E-04	 7.10938000E-02	 9.39685000E-03
					-7.89458000E-04	 6.10785000E-02	 9.69943000E-03
					-3.13509000E-04	 7.12729000E-02	 4.41323000E-03
					-5.30992000E-05	 9.22496000E-02	-9.61544000E-04
					-1.72454000E-03	 9.21395000E-02	-9.95209000E-03
					-1.03152000E-04	 9.08141000E-02	-8.95326000E-04
					-1.48377000E-03	 9.06249000E-02	-9.86284000E-03
					-1.17411000E-04	 8.16877000E-02	-7.99571000E-04
					-8.97625000E-04	 9.22257000E-02	-5.27120000E-03
					-7.41177000E-04	 8.14922000E-02	-1.05473000E-02
					-9.50782000E-05	 9.14989000E-02	-8.93868000E-04
					-1.59986000E-03	 9.13344000E-02	-1.00990000E-02
					-1.24092000E-04	 8.11490000E-02	-7.97601000E-04
					-7.95722000E-04	 9.07313000E-02	-5.37493000E-03
					-6.64367000E-04	 8.09719000E-02	-1.05315000E-02
					 1.33306000E-03	 9.22799000E-02	 8.22948000E-03
					 1.22029000E-03	 9.08329000E-02	 8.17404000E-03
					 4.25942000E-04	 8.16099000E-02	 8.98427000E-03
					 6.52946000E-04	 9.22783000E-02	 3.47078000E-03
					 1.31546000E-03	 9.15041000E-02	 8.33525000E-03
					 3.49066000E-04	 8.11429000E-02	 8.96852000E-03
					 5.18965000E-04	 9.08680000E-02	 3.59379000E-03
					-1.68364000E-04	 8.95799000E-02	-8.27722000E-04
					-1.24055000E-03	 8.94401000E-02	-9.91702000E-03
					-1.54343000E-04	 9.01767000E-02	-8.40501000E-04
					-1.33169000E-03	 8.99691000E-02	-9.79148000E-03
					-1.46728000E-04	 8.07188000E-02	-7.93915000E-04
					-6.76426000E-04	 8.95380000E-02	-5.48640000E-03
					-4.45419000E-04	 8.05310000E-02	-1.05173000E-02
					 9.03544000E-04	 8.96602000E-02	 8.29965000E-03
					 1.07862000E-03	 9.02041000E-02	 8.14491000E-03
					 1.89470000E-04	 8.06979000E-02	 8.96953000E-03
					 3.80161000E-04	 8.96440000E-02	 3.78081000E-03
					-2.21449000E-05	 1.09974000E-01	-8.71217000E-04
					-3.15507000E-03	 1.10093000E-01	-8.49400000E-03
					-1.31210000E-04	 1.07448000E-01	-9.97255000E-04
					-2.60552000E-03	 1.07228000E-01	-8.46982000E-03
					-1.01126000E-04	 1.01725000E-01	-9.05830000E-04
					-1.53481000E-03	 1.10055000E-01	-4.69896000E-03
					-2.41144000E-03	 1.01570000E-01	-9.31135000E-03
					-7.43754000E-05	 1.08657000E-01	-1.00324000E-03
					-2.86290000E-03	 1.08531000E-01	-8.43294000E-03
					-1.06982000E-04	 9.94806000E-02	-9.18888000E-04
					-1.33687000E-03	 1.07370000E-01	-4.78039000E-03
					-2.09269000E-03	 9.93528000E-02	-9.20121000E-03
					 2.69381000E-03	 1.09962000E-01	 6.44055000E-03
					 2.32397000E-03	 1.07448000E-01	 6.30409000E-03
					 2.25189000E-03	 1.01752000E-01	 7.29975000E-03
					 1.22826000E-03	 1.09965000E-01	 2.73807000E-03
					 2.48958000E-03	 1.08666000E-01	 6.43106000E-03
					 1.89957000E-03	 9.94814000E-02	 7.26499000E-03
					 1.09741000E-03	 1.07472000E-01	 2.73255000E-03
					-2.68325000E-04	 1.05016000E-01	-9.19278000E-04
					-2.15723000E-03	 1.04960000E-01	-8.49923000E-03
					-1.74646000E-04	 1.06218000E-01	-1.01833000E-03
					-2.38022000E-03	 1.06013000E-01	-8.43318000E-03
					-1.46757000E-04	 9.77008000E-02	-9.06117000E-04
					-1.24791000E-03	 1.05021000E-01	-4.71542000E-03
					-1.83699000E-03	 9.75097000E-02	-9.19678000E-03
					 2.03083000E-03	 1.05089000E-01	 6.48993000E-03
					 2.15928000E-03	 1.06164000E-01	 6.35382000E-03
					 1.52038000E-03	 9.77891000E-02	 7.38153000E-03
					 9.24429000E-04	 1.05080000E-01	 2.87913000E-03
					 5.64718000E-04	 1.23227000E-01	-1.68440000E-03
					-3.13205000E-03	 1.23096000E-01	-6.89830000E-03
					-7.16906000E-05	 1.20649000E-01	-1.17701000E-03
					-2.74682000E-03	 1.20105000E-01	-7.32147000E-03
					-9.32531000E-05	 1.16985000E-01	-1.26973000E-03
					-1.36781000E-03	 1.23206000E-01	-4.39712000E-03
					-2.67529000E-03	 1.16842000E-01	-7.64909000E-03
					 3.09199000E-04	 1.21929000E-01	-1.23438000E-03
					-2.99793000E-03	 1.21609000E-01	-7.30217000E-03
					-1.22326000E-04	 1.14325000E-01	-1.08306000E-03
					-1.42184000E-03	 1.20334000E-01	-4.37373000E-03
					-2.52483000E-03	 1.14268000E-01	-7.82281000E-03
					 2.88658000E-03	 1.23368000E-01	 4.93287000E-03
					 2.66811000E-03	 1.21470000E-01	 5.78920000E-03
					 2.61413000E-03	 1.16934000E-01	 5.65741000E-03
					 1.74118000E-03	 1.23300000E-01	 1.73761000E-03
					 2.71504000E-03	 1.22404000E-01	 5.41459000E-03
					 2.41831000E-03	 1.14240000E-01	 5.77973000E-03
					 1.31561000E-03	 1.21114000E-01	 2.19980000E-03
					-9.02188000E-04	 1.18421000E-01	-1.87139000E-03
					-2.17826000E-03	 1.18280000E-01	-7.54143000E-03
					-5.42220000E-04	 1.19524000E-01	-1.34516000E-03
					-2.45766000E-03	 1.19060000E-01	-7.52818000E-03
					-8.73583000E-05	 1.11897000E-01	-1.32364000E-03
					-1.61700000E-03	 1.18385000E-01	-4.79922000E-03
					-2.29662000E-03	 1.12091000E-01	-7.96887000E-03
					 2.71587000E-03	 1.18338000E-01	 5.58625000E-03
					 2.71342000E-03	 1.20128000E-01	 5.73041000E-03
					 2.42909000E-03	 1.11677000E-01	 5.87595000E-03
					 7.82922000E-04	 1.18341000E-01	 1.87160000E-03
					 0.00000000E+00	 0.00000000E+00	 0.00000000E+00
					 0.00000000E+00	 0.00000000E+00	 0.00000000E+00
					 6.00918000E-05	-8.33444000E-03	 3.40027000E-05
					-3.64962000E-03	-9.20686000E-03	 9.85031000E-03
					 0.00000000E+00	 0.00000000E+00	 0.00000000E+00
					 0.00000000E+00	 0.00000000E+00	 0.00000000E+00
					 3.35182000E-05	-1.14696000E-02	 1.13119000E-05
					-2.50252000E-03	-1.22884000E-02	 1.00399000E-02
					 0.00000000E+00	 0.00000000E+00	 0.00000000E+00
					-3.94011000E-05	-1.30548000E-03	-5.71127000E-06
					-1.77258000E-03	-8.56995000E-03	 5.06228000E-03
					-2.70197000E-03	-2.23050000E-03	 5.06554000E-03
					 0.00000000E+00	 0.00000000E+00	 0.00000000E+00
					 0.00000000E+00	 0.00000000E+00	 0.00000000E+00
					 5.09279000E-05	-1.00824000E-02	 4.51471000E-05
					-3.04343000E-03	-1.09596000E-02	 9.73912000E-03
					 0.00000000E+00	 0.00000000E+00	 0.00000000E+00
					-2.58075000E-05	-3.18230000E-03	 2.50494000E-05
					-1.22910000E-03	-1.16334000E-02	 4.91576000E-03
					-1.23976000E-03	-4.08437000E-03	 4.98801000E-03
					 0.00000000E+00	 0.00000000E+00	 0.00000000E+00
					 3.89494000E-03	-8.70191000E-03	-9.98730000E-03
					 0.00000000E+00	 0.00000000E+00	 0.00000000E+00
					 2.57695000E-03	-1.19351000E-02	-9.97521000E-03
					 0.00000000E+00	 0.00000000E+00	 0.00000000E+00
					 2.72419000E-03	-2.04133000E-03	-5.05669000E-03
					 1.89620000E-03	-8.31743000E-03	-5.04608000E-03
					 0.00000000E+00	 0.00000000E+00	 0.00000000E+00
					 3.20193000E-03	-1.05869000E-02	-9.80454000E-03
					 0.00000000E+00	 0.00000000E+00	 0.00000000E+00
					 1.21223000E-03	-4.00650000E-03	-4.90214000E-03
					 1.31990000E-03	-1.14343000E-02	-4.90207000E-03
					 0.00000000E+00	 0.00000000E+00	 0.00000000E+00
					 0.00000000E+00	 0.00000000E+00	 0.00000000E+00
					 4.48755000E-06	-1.33886000E-02	 9.65086000E-05
					-1.25904000E-03	-1.39897000E-02	 9.91465000E-03
					 0.00000000E+00	 0.00000000E+00	 0.00000000E+00
					 0.00000000E+00	 0.00000000E+00	 0.00000000E+00
					-1.88492000E-05	-1.26243000E-02	 3.93606000E-05
					-1.86960000E-03	-1.32785000E-02	 1.01738000E-02
					 0.00000000E+00	 0.00000000E+00	 0.00000000E+00
					 1.93163000E-06	-3.76952000E-03	 1.16091000E-04
					-5.92424000E-04	-1.34404000E-02	 4.70126000E-03
					 2.91332000E-04	-4.66084000E-03	 5.06719000E-03
					 0.00000000E+00	 0.00000000E+00	 0.00000000E+00
					 1.37739000E-03	-1.38402000E-02	-9.95559000E-03
					 0.00000000E+00	 0.00000000E+00	 0.00000000E+00
					 2.01519000E-03	-1.30162000E-02	-1.01798000E-02
					 0.00000000E+00	 0.00000000E+00	 0.00000000E+00
					-2.20776000E-04	-4.56709000E-03	-5.09359000E-03
					 6.51095000E-04	-1.33863000E-02	-4.63367000E-03
					 6.84811000E-06	-3.60579000E-02	-5.85458000E-05
					-5.04543000E-03	-3.69988000E-02	 1.80640000E-02
					 5.72766000E-05	-4.06264000E-02	-3.24913000E-04
					-3.73109000E-03	-4.14244000E-02	 1.78887000E-02
					 9.20489000E-05	-2.01049000E-02	 4.59204000E-05
					-2.49145000E-03	-3.64135000E-02	 8.99736000E-03
					-4.48786000E-03	-2.09110000E-02	 1.42136000E-02
					 3.09174000E-05	-3.84656000E-02	-2.23821000E-04
					-4.37050000E-03	-3.94192000E-02	 1.79140000E-02
					 1.07267000E-04	-2.39530000E-02	-8.89751000E-05
					-1.86443000E-03	-4.08854000E-02	 8.74737000E-03
					-3.10114000E-03	-2.48311000E-02	 1.41552000E-02
					 5.05513000E-03	-3.63355000E-02	-1.83874000E-02
					 3.99258000E-03	-4.07151000E-02	-1.85623000E-02
					 4.57727000E-03	-2.04198000E-02	-1.42973000E-02
					 2.53636000E-03	-3.60454000E-02	-9.25052000E-03
					 4.54788000E-03	-3.86071000E-02	-1.84158000E-02
					 3.31664000E-03	-2.43233000E-02	-1.44394000E-02
					 2.02270000E-03	-4.05602000E-02	-9.34605000E-03
					 1.12255000E-04	-4.39122000E-02	-4.25737000E-04
					-2.51824000E-03	-4.46070000E-02	 1.78117000E-02
					 9.71435000E-05	-4.24225000E-02	-3.75776000E-04
					-3.11584000E-03	-4.32202000E-02	 1.78909000E-02
					 1.28841000E-04	-2.64967000E-02	-7.41182000E-05
					-1.19609000E-03	-4.41381000E-02	 8.56749000E-03
					-1.93039000E-03	-2.74441000E-02	 1.41036000E-02
					 2.97759000E-03	-4.41565000E-02	-1.86753000E-02
					 3.46391000E-03	-4.25836000E-02	-1.87786000E-02
					 2.17413000E-03	-2.70447000E-02	-1.44538000E-02
					 1.50792000E-03	-4.39344000E-02	-9.40073000E-03
					-1.36711000E-04	-7.89730000E-02	-9.35476000E-04
					-6.27118000E-03	-8.00249000E-02	 2.38062000E-02
					 5.94386000E-05	-8.48387000E-02	-1.19899000E-03
					-5.37237000E-03	-8.59119000E-02	 2.34849000E-02
					 1.60710000E-05	-5.59111000E-02	-3.98619000E-04
					-3.21999000E-03	-7.94141000E-02	 1.14646000E-02
					-5.62840000E-03	-5.69022000E-02	 2.12700000E-02
					-3.63024000E-05	-8.20178000E-02	-1.04089000E-03
					-5.81088000E-03	-8.30558000E-02	 2.35756000E-02
					 8.39093000E-05	-6.10635000E-02	-7.16246000E-04
					-2.66764000E-03	-8.52500000E-02	 1.10667000E-02
					-4.57517000E-03	-6.20849000E-02	 2.10023000E-02
					 6.16397000E-03	-7.85719000E-02	-2.54742000E-02
					 5.48743000E-03	-8.45217000E-02	-2.58906000E-02
					 5.71200000E-03	-5.58480000E-02	-2.21145000E-02
					 3.03292000E-03	-7.86595000E-02	-1.31757000E-02
					 5.83455000E-03	-8.17037000E-02	-2.56365000E-02
					 4.80157000E-03	-6.10266000E-02	-2.24361000E-02
					 2.78289000E-03	-8.45962000E-02	-1.34585000E-02
					 1.45060000E-04	-8.98902000E-02	-1.47278000E-03
					-4.47946000E-03	-9.10688000E-02	 2.31979000E-02
					 8.42043000E-05	-8.74668000E-02	-1.32855000E-03
					-4.95556000E-03	-8.85012000E-02	 2.34931000E-02
					 1.17227000E-04	-6.53193000E-02	-9.31257000E-04
					-2.17164000E-03	-9.03866000E-02	 1.05726000E-02
					-3.56869000E-03	-6.62546000E-02	 2.08263000E-02
					 4.84668000E-03	-8.96263000E-02	-2.62128000E-02
					 5.19269000E-03	-8.71606000E-02	-2.61747000E-02
					 3.95655000E-03	-6.53316000E-02	-2.25535000E-02
					 2.46184000E-03	-8.96579000E-02	-1.36384000E-02
					-2.57402000E-04	-1.32227000E-01	-2.09193000E-03
					-7.90096000E-03	-1.33065000E-01	 2.63230000E-02