# vtk DataFile Version 3.0

ASCII
DATASET UNSTRUCTURED_GRID

POINTS 522 double
	 1.00000000E+00	 1.00000000E+00	-5.96046000E-08
	 1.00000000E+00	 5.00000000E-01	-5.96046000E-08
	 1.00000000E+00	 5.00000000E-01	 1.00000000E+00
	 1.00000000E+00	 1.00000000E+00	 1.00000000E+00
	 5.00000000E-01	 1.00000000E+00	-5.96046000E-08
	 5.00000000E-01	 5.00000000E-01	-5.96046000E-08
	 5.00000000E-01	 5.00000000E-01	 1.00000000E+00
	 5.00000000E-01	 1.00000000E+00	 1.00000000E+00
	 1.00000000E+00	 7.50000000E-01	-5.96046000E-08
	 1.00000000E+00	 5.00000000E-01	 5.00000000E-01
	 1.00000000E+00	 7.50000000E-01	 1.00000000E+00
	 1.00000000E+00	 1.00000000E+00	 5.00000000E-01
	 7.50000000E-01	 1.00000000E+00	-5.96046000E-08
	 7.50000000E-01	 5.00000000E-01	-5.96046000E-08
	 7.50000000E-01	 5.00000000E-01	 1.00000000E+00
	 7.50000000E-01	 1.00000000E+00	 1.00000000E+00
	 5.00000000E-01	 7.50000000E-01	-5.96046000E-08
	 5.00000000E-01	 5.00000000E-01	 5.00000000E-01
	 5.00000000E-01	 7.50000000E-01	 1.00000000E+00
	 5.00000000E-01	 1.00000000E+00	 5.00000000E-01
	 1.00000000E+00	-1.49012000E-08	-5.96046000E-08
	 1.00000000E+00	-1.49012000E-08	 1.00000000E+00
	 5.00000000E-01	-1.49012000E-08	-5.96046000E-08
	 5.00000000E-01	-1.49012000E-08	 1.00000000E+00
	 1.00000000E+00	 2.50000000E-01	-5.96046000E-08
	 1.00000000E+00	-1.49012000E-08	 5.00000000E-01
	 1.00000000E+00	 2.50000000E-01	 1.00000000E+00
	 7.50000000E-01	-1.49012000E-08	-5.96046000E-08
	 7.50000000E-01	-1.49012000E-08	 1.00000000E+00
	 5.00000000E-01	 2.50000000E-01	-5.96046000E-08
	 5.00000000E-01	-1.49012000E-08	 5.00000000E-01
	 5.00000000E-01	 2.50000000E-01	 1.00000000E+00
	-7.45058000E-09	 1.00000000E+00	-5.96046000E-08
	-7.45058000E-09	 5.00000000E-01	-5.96046000E-08
	-7.45058000E-09	 5.00000000E-01	 1.00000000E+00
	-7.45058000E-09	 1.00000000E+00	 1.00000000E+00
	 2.50000000E-01	 1.00000000E+00	-5.96046000E-08
	 2.50000000E-01	 5.00000000E-01	-5.96046000E-08
	 2.50000000E-01	 5.00000000E-01	 1.00000000E+00
	 2.50000000E-01	 1.00000000E+00	 1.00000000E+00
	-7.45058000E-09	 7.50000000E-01	-5.96046000E-08
	-7.45058000E-09	 5.00000000E-01	 5.00000000E-01
	-7.45058000E-09	 7.50000000E-01	 1.00000000E+00
	-7.45058000E-09	 1.00000000E+00	 5.00000000E-01
	-7.45058000E-09	-1.49012000E-08	-5.96046000E-08
	-7.45058000E-09	-1.49012000E-08	 1.00000000E+00
	 2.50000000E-01	-1.49012000E-08	-5.96046000E-08
	 2.50000000E-01	-1.49012000E-08	 1.00000000E+00
	-7.45058000E-09	 2.50000000E-01	-5.96046000E-08
	-7.45058000E-09	-1.49012000E-08	 5.00000000E-01
	-7.45058000E-09	 2.50000000E-01	 1.00000000E+00
	 1.00000000E+00	 5.00000000E-01	 2.00000000E+00
	 1.00000000E+00	 1.00000000E+00	 2.00000000E+00
	 5.00000000E-01	 5.00000000E-01	 2.00000000E+00
	 5.00000000E-01	 1.00000000E+00	 2.00000000E+00
	 1.00000000E+00	 5.00000000E-01	 1.50000000E+00
	 1.00000000E+00	 7.50000000E-01	 2.00000000E+00
	 1.00000000E+00	 1.00000000E+00	 1.50000000E+00
	 7.50000000E-01	 5.00000000E-01	 2.00000000E+00
	 7.50000000E-01	 1.00000000E+00	 2.00000000E+00
	 5.00000000E-01	 5.00000000E-01	 1.50000000E+00
	 5.00000000E-01	 7.50000000E-01	 2.00000000E+00
	 5.00000000E-01	 1.00000000E+00	 1.50000000E+00
	 1.00000000E+00	-1.49012000E-08	 2.00000000E+00
	 5.00000000E-01	-1.49012000E-08	 2.00000000E+00
	 1.00000000E+00	-1.49012000E-08	 1.50000000E+00
	 1.00000000E+00	 2.50000000E-01	 2.00000000E+00
	 7.50000000E-01	-1.49012000E-08	 2.00000000E+00
	 5.00000000E-01	-1.49012000E-08	 1.50000000E+00
	 5.00000000E-01	 2.50000000E-01	 2.00000000E+00
	-7.45058000E-09	 5.00000000E-01	 2.00000000E+00
	-7.45058000E-09	 1.00000000E+00	 2.00000000E+00
	 2.50000000E-01	 5.00000000E-01	 2.00000000E+00
	 2.50000000E-01	 1.00000000E+00	 2.00000000E+00
	-7.45058000E-09	 5.00000000E-01	 1.50000000E+00
	-7.45058000E-09	 7.50000000E-01	 2.00000000E+00
	-7.45058000E-09	 1.00000000E+00	 1.50000000E+00
	-7.45058000E-09	-1.49012000E-08	 2.00000000E+00
	 2.50000000E-01	-1.49012000E-08	 2.00000000E+00
	-7.45058000E-09	-1.49012000E-08	 1.50000000E+00
	-7.45058000E-09	 2.50000000E-01	 2.00000000E+00
	 1.00000000E+00	 5.00000000E-01	 3.00000000E+00
	 1.00000000E+00	 1.00000000E+00	 3.00000000E+00
	 5.00000000E-01	 5.00000000E-01	 3.00000000E+00
	 5.00000000E-01	 1.00000000E+00	 3.00000000E+00
	 1.00000000E+00	 5.00000000E-01	 2.50000000E+00
	 1.00000000E+00	 7.50000000E-01	 3.00000000E+00
	 1.00000000E+00	 1.00000000E+00	 2.50000000E+00
	 7.50000000E-01	 5.00000000E-01	 3.00000000E+00
	 7.50000000E-01	 1.00000000E+00	 3.00000000E+00
	 5.00000000E-01	 5.00000000E-01	 2.50000000E+00
	 5.00000000E-01	 7.50000000E-01	 3.00000000E+00
	 5.00000000E-01	 1.00000000E+00	 2.50000000E+00
	 1.00000000E+00	-1.49012000E-08	 3.00000000E+00
	 5.00000000E-01	-1.49012000E-08	 3.00000000E+00
	 1.00000000E+00	-1.49012000E-08	 2.50000000E+00
	 1.00000000E+00	 2.50000000E-01	 3.00000000E+00
	 7.50000000E-01	-1.49012000E-08	 3.00000000E+00
	 5.00000000E-01	-1.49012000E-08	 2.50000000E+00
	 5.00000000E-01	 2.50000000E-01	 3.00000000E+00
	-7.45058000E-09	 5.00000000E-01	 3.00000000E+00
	-7.45058000E-09	 1.00000000E+00	 3.00000000E+00
	 2.50000000E-01	 5.00000000E-01	 3.00000000E+00
	 2.50000000E-01	 1.00000000E+00	 3.00000000E+00
	-7.45058000E-09	 5.00000000E-01	 2.50000000E+00
	-7.45058000E-09	 7.50000000E-01	 3.00000000E+00
	-7.45058000E-09	 1.00000000E+00	 2.50000000E+00
	-7.45058000E-09	-1.49012000E-08	 3.00000000E+00
	 2.50000000E-01	-1.49012000E-08	 3.00000000E+00
	-7.45058000E-09	-1.49012000E-08	 2.50000000E+00
	-7.45058000E-09	 2.50000000E-01	 3.00000000E+00
	 1.00000000E+00	 5.00000000E-01	 4.00000000E+00
	 1.00000000E+00	 1.00000000E+00	 4.00000000E+00
	 5.00000000E-01	 5.00000000E-01	 4.00000000E+00
	 5.00000000E-01	 1.00000000E+00	 4.00000000E+00
	 1.00000000E+00	 5.00000000E-01	 3.50000000E+00
	 1.00000000E+00	 7.50000000E-01	 4.00000000E+00
	 1.00000000E+00	 1.00000000E+00	 3.50000000E+00
	 7.50000000E-01	 5.00000000E-01	 4.00000000E+00
	 7.50000000E-01	 1.00000000E+00	 4.00000000E+00
	 5.00000000E-01	 5.00000000E-01	 3.50000000E+00
	 5.00000000E-01	 7.50000000E-01	 4.00000000E+00
	 5.00000000E-01	 1.00000000E+00	 3.50000000E+00
	 1.00000000E+00	-1.49012000E-08	 4.00000000E+00
	 5.00000000E-01	-1.49012000E-08	 4.00000000E+00
	 1.00000000E+00	-1.49012000E-08	 3.50000000E+00
	 1.00000000E+00	 2.50000000E-01	 4.00000000E+00
	 7.50000000E-01	-1.49012000E-08	 4.00000000E+00
	 5.00000000E-01	-1.49012000E-08	 3.50000000E+00
	 5.00000000E-01	 2.50000000E-01	 4.00000000E+00
	-7.45058000E-09	 5.00000000E-01	 4.00000000E+00
	-7.45058000E-09	 1.00000000E+00	 4.00000000E+00
	 2.50000000E-01	 5.00000000E-01	 4.00000000E+00
	 2.50000000E-01	 1.00000000E+00	 4.00000000E+00
	-7.45058000E-09	 5.00000000E-01	 3.50000000E+00
	-7.45058000E-09	 7.50000000E-01	 4.00000000E+00
	-7.45058000E-09	 1.00000000E+00	 3.50000000E+00
	-7.45058000E-09	-1.49012000E-08	 4.00000000E+00
	 2.50000000E-01	-1.49012000E-08	 4.00000000E+00
	-7.45058000E-09	-1.49012000E-08	 3.50000000E+00
	-7.45058000E-09	 2.50000000E-01	 4.00000000E+00
	 1.00000000E+00	 5.00000000E-01	 5.00000000E+00
	 1.00000000E+00	 1.00000000E+00	 5.00000000E+00
	 5.00000000E-01	 5.00000000E-01	 5.00000000E+00
	 5.00000000E-01	 1.00000000E+00	 5.00000000E+00
	 1.00000000E+00	 5.00000000E-01	 4.50000000E+00
	 1.00000000E+00	 7.50000000E-01	 5.00000000E+00
	 1.00000000E+00	 1.00000000E+00	 4.50000000E+00
	 7.50000000E-01	 5.00000000E-01	 5.00000000E+00
	 7.50000000E-01	 1.00000000E+00	 5.00000000E+00
	 5.00000000E-01	 5.00000000E-01	 4.50000000E+00
	 5.00000000E-01	 7.50000000E-01	 5.00000000E+00
	 5.00000000E-01	 1.00000000E+00	 4.50000000E+00
	 1.00000000E+00	-1.49012000E-08	 5.00000000E+00
	 5.00000000E-01	-1.49012000E-08	 5.00000000E+00
	 1.00000000E+00	-1.49012000E-08	 4.50000000E+00
	 1.00000000E+00	 2.50000000E-01	 5.00000000E+00
	 7.50000000E-01	-1.49012000E-08	 5.00000000E+00
	 5.00000000E-01	-1.49012000E-08	 4.50000000E+00
	 5.00000000E-01	 2.50000000E-01	 5.00000000E+00
	-7.45058000E-09	 5.00000000E-01	 5.00000000E+00
	-7.45058000E-09	 1.00000000E+00	 5.00000000E+00
	 2.50000000E-01	 5.00000000E-01	 5.00000000E+00
	 2.50000000E-01	 1.00000000E+00	 5.00000000E+00
	-7.45058000E-09	 5.00000000E-01	 4.50000000E+00
	-7.45058000E-09	 7.50000000E-01	 5.00000000E+00
	-7.45058000E-09	 1.00000000E+00	 4.50000000E+00
	-7.45058000E-09	-1.49012000E-08	 5.00000000E+00
	 2.50000000E-01	-1.49012000E-08	 5.00000000E+00
	-7.45058000E-09	-1.49012000E-08	 4.50000000E+00
	-7.45058000E-09	 2.50000000E-01	 5.00000000E+00
	 1.00000000E+00	 5.00000000E-01	 6.00000000E+00
	 1.00000000E+00	 1.00000000E+00	 6.00000000E+00
	 5.00000000E-01	 5.00000000E-01	 6.00000000E+00
	 5.00000000E-01	 1.00000000E+00	 6.00000000E+00
	 1.00000000E+00	 5.00000000E-01	 5.50000000E+00
	 1.00000000E+00	 7.50000000E-01	 6.00000000E+00
	 1.00000000E+00	 1.00000000E+00	 5.50000000E+00
	 7.50000000E-01	 5.00000000E-01	 6.00000000E+00
	 7.50000000E-01	 1.00000000E+00	 6.00000000E+00
	 5.00000000E-01	 5.00000000E-01	 5.50000000E+00
	 5.00000000E-01	 7.50000000E-01	 6.00000000E+00
	 5.00000000E-01	 1.00000000E+00	 5.50000000E+00
	 1.00000000E+00	-1.49012000E-08	 6.00000000E+00
	 5.00000000E-01	-1.49012000E-08	 6.00000000E+00
	 1.00000000E+00	-1.49012000E-08	 5.50000000E+00
	 1.00000000E+00	 2.50000000E-01	 6.00000000E+00
	 7.50000000E-01	-1.49012000E-08	 6.00000000E+00
	 5.00000000E-01	-1.49012000E-08	 5.50000000E+00
	 5.00000000E-01	 2.50000000E-01	 6.00000000E+00
	-7.45058000E-09	 5.00000000E-01	 6.00000000E+00
	-7.45058000E-09	 1.00000000E+00	 6.00000000E+00
	 2.50000000E-01	 5.00000000E-01	 6.00000000E+00
	 2.50000000E-01	 1.00000000E+00	 6.00000000E+00
	-7.45058000E-09	 5.00000000E-01	 5.50000000E+00
	-7.45058000E-09	 7.50000000E-01	 6.00000000E+00
	-7.45058000E-09	 1.00000000E+00	 5.50000000E+00
	-7.45058000E-09	-1.49012000E-08	 6.00000000E+00
	 2.50000000E-01	-1.49012000E-08	 6.00000000E+00
	-7.45058000E-09	-1.49012000E-08	 5.50000000E+00
	-7.45058000E-09	 2.50000000E-01	 6.00000000E+00
	 1.00000000E+00	 5.00000000E-01	 7.00000000E+00
[...]
POINT_DATA 522
FIELD U 1
	U 3 522 double
		 0.00000000E+00	 0.00000000E+00	 0.00000000E+00
		 0.00000000E+00	 0.00000000E+00	 0.00000000E+00
		-1.18846000E-05	-1.24525000E-03	-2.24304000E-05
		 4.28185000E-04	-1.44089000E-03	 1.74171000E-03
		 0.00000000E+00	 0.00000000E+00	 0.00000000E+00
		 0.00000000E+00	 0.00000000E+00	 0.00000000E+00
		-1.56240000E-05	-5.94710000E-04	-2.74625000E-05
		 8.24891000E-04	-8.01500000E-04	 1.72522000E-03
		 0.00000000E+00	 0.00000000E+00	 0.00000000E+00
		-1.30817000E-07	-9.28818000E-05	-1.03478000E-05
		 2.07843000E-04	-1.28666000E-03	 8.58230000E-04
		 1.59357000E-04	-2.34077000E-04	 6.41409000E-04
		 0.00000000E+00	 0.00000000E+00	 0.00000000E+00
		 0.00000000E+00	 0.00000000E+00	 0.00000000E+00
		-1.36859000E-05	-9.74727000E-04	-2.59684000E-05
		 6.27507000E-04	-1.17654000E-03	 1.78458000E-03
		 0.00000000E+00	 0.00000000E+00	 0.00000000E+00
		-4.31906000E-06	 2.16046000E-04	-1.33192000E-05
		 4.04677000E-04	-6.40842000E-04	 9.02629000E-04
		 4.33857000E-04	 6.44249000E-05	 5.93704000E-04
		 0.00000000E+00	 0.00000000E+00	 0.00000000E+00
		-4.55415000E-04	-1.43740000E-03	-1.78597000E-03
		 0.00000000E+00	 0.00000000E+00	 0.00000000E+00
		-8.56732000E-04	-7.95704000E-04	-1.78007000E-03
		 0.00000000E+00	 0.00000000E+00	 0.00000000E+00
		-1.63352000E-04	-2.41272000E-04	-6.61005000E-04
		-2.32884000E-04	-1.28439000E-03	-9.02979000E-04
		 0.00000000E+00	 0.00000000E+00	 0.00000000E+00
		-6.57037000E-04	-1.17095000E-03	-1.83602000E-03
		 0.00000000E+00	 0.00000000E+00	 0.00000000E+00
		-4.43749000E-04	 5.90082000E-05	-6.19440000E-04
		-4.36145000E-04	-6.36541000E-04	-9.57626000E-04
		 0.00000000E+00	 0.00000000E+00	 0.00000000E+00
		 0.00000000E+00	 0.00000000E+00	 0.00000000E+00
		-1.85359000E-05	 4.34627000E-04	-3.13046000E-05
		 1.22160000E-03	 2.36653000E-04	 1.73226000E-03
		 0.00000000E+00	 0.00000000E+00	 0.00000000E+00
		 0.00000000E+00	 0.00000000E+00	 0.00000000E+00
		-1.72367000E-05	-1.35920000E-04	-2.84523000E-05
		 1.02198000E-03	-3.36847000E-04	 1.64355000E-03
		 0.00000000E+00	 0.00000000E+00	 0.00000000E+00
		-8.90173000E-06	 7.84811000E-04	-1.72260000E-05
		 6.03091000E-04	 3.91250000E-04	 9.87034000E-04
		 6.79471000E-04	 6.14210000E-04	 6.34687000E-04
		 0.00000000E+00	 0.00000000E+00	 0.00000000E+00
		-1.25643000E-03	 2.42658000E-04	-1.79560000E-03
		 0.00000000E+00	 0.00000000E+00	 0.00000000E+00
		-1.05543000E-03	-3.30839000E-04	-1.70074000E-03
		 0.00000000E+00	 0.00000000E+00	 0.00000000E+00
		-6.96326000E-04	 6.08265000E-04	-6.68895000E-04
		-6.39415000E-04	 3.95568000E-04	-1.05006000E-03
		-3.09868000E-05	-7.94592000E-03	-7.12580000E-05
		 7.76402000E-04	-8.18603000E-03	 4.68619000E-03
		-3.48043000E-05	-6.90761000E-03	-7.24722000E-05
		 1.22084000E-03	-7.15268000E-03	 4.68641000E-03
		-2.17748000E-05	-3.83448000E-03	-4.06839000E-05
		 3.74529000E-04	-8.00883000E-03	 2.28902000E-03
		 6.64285000E-04	-4.06467000E-03	 3.18520000E-03
		-3.30044000E-05	-7.48294000E-03	-7.19981000E-05
		 9.99734000E-04	-7.72596000E-03	 4.69422000E-03
		-2.57529000E-05	-2.93167000E-03	-4.39915000E-05
		 5.94180000E-04	-6.97225000E-03	 2.29535000E-03
		 1.09696000E-03	-3.15486000E-03	 3.17844000E-03
		-8.42785000E-04	-8.14706000E-03	-4.83413000E-03
		-1.29130000E-03	-7.10881000E-03	-4.83579000E-03
		-7.09394000E-04	-4.04565000E-03	-3.27051000E-03
		-4.37783000E-04	-7.98966000E-03	-2.43225000E-03
		-1.06858000E-03	-7.68376000E-03	-4.84405000E-03
		-1.14755000E-03	-3.13431000E-03	-3.27063000E-03
		-6.63808000E-04	-6.95031000E-03	-2.44129000E-03
		-3.59751000E-05	-5.43335000E-03	-6.87926000E-05
		 1.67602000E-03	-5.66831000E-03	 4.68734000E-03
		-3.60462000E-05	-6.22504000E-03	-7.17967000E-05
		 1.44762000E-03	-6.47020000E-03	 4.68709000E-03
		-2.84876000E-05	-1.59187000E-03	-4.47557000E-05
		 8.15501000E-04	-5.49249000E-03	 2.29692000E-03
		 1.55891000E-03	-1.79439000E-03	 3.17936000E-03
		-1.74554000E-03	-5.62343000E-03	-4.82785000E-03
		-1.51857000E-03	-6.42531000E-03	-4.83369000E-03
		-1.61221000E-03	-1.77504000E-03	-3.27308000E-03
		-8.86436000E-04	-5.47091000E-03	-2.43548000E-03
		-5.00109000E-05	-2.08018000E-02	-1.88855000E-04
		 1.05778000E-03	-2.10398000E-02	 7.35712000E-03
		-5.19850000E-05	-1.94938000E-02	-1.70722000E-04
		 1.43898000E-03	-1.97433000E-02	 7.38281000E-03
		-4.17125000E-05	-1.36115000E-02	-1.20085000E-04
		 5.05215000E-04	-2.08726000E-02	 3.53058000E-03
		 8.70502000E-04	-1.38472000E-02	 6.08632000E-03
		-5.14942000E-05	-2.01945000E-02	-1.81122000E-04
		 1.24774000E-03	-2.04406000E-02	 7.40371000E-03
		-4.53303000E-05	-1.24778000E-02	-1.14808000E-04
		 6.92672000E-04	-1.95714000E-02	 3.58601000E-03
		 1.29067000E-03	-1.27263000E-02	 6.09806000E-03
		-1.16413000E-03	-2.09305000E-02	-7.73915000E-03
		-1.54846000E-03	-1.96232000E-02	-7.72961000E-03
		-9.61878000E-04	-1.37796000E-02	-6.33062000E-03
		-6.06767000E-04	-2.08194000E-02	-3.90944000E-03
		-1.35660000E-03	-2.03247000E-02	-7.77043000E-03
		-1.38628000E-03	-1.26479000E-02	-6.33055000E-03
		-7.97960000E-04	-1.95112000E-02	-3.92877000E-03
		-4.97950000E-05	-1.78128000E-02	-1.46432000E-04
		 1.81103000E-03	-1.80731000E-02	 7.39547000E-03
		-5.13489000E-05	-1.87009000E-02	-1.58831000E-04
		 1.62346000E-03	-1.89521000E-02	 7.36351000E-03
		-4.49844000E-05	-1.09336000E-02	-1.03368000E-04
		 8.83709000E-04	-1.78971000E-02	 3.63035000E-03
		 1.70316000E-03	-1.11889000E-02	 6.10143000E-03
		-1.91500000E-03	-1.79430000E-02	-7.69476000E-03
		-1.73132000E-03	-1.88275000E-02	-7.68704000E-03
		-1.79566000E-03	-1.11030000E-02	-6.30974000E-03
		-9.84135000E-04	-1.78307000E-02	-3.92503000E-03
		-5.09381000E-05	-3.91664000E-02	-3.85879000E-04
		 1.79150000E-03	-3.94044000E-02	 9.37114000E-03
		-4.97395000E-05	-3.71746000E-02	-3.39150000E-04
		 2.08895000E-03	-3.74164000E-02	 9.42651000E-03
		-5.23437000E-05	-2.93878000E-02	-2.77098000E-04
		 8.71195000E-04	-3.92470000E-02	 4.40814000E-03
		 1.37351000E-03	-2.96235000E-02	 8.44321000E-03
		-5.12520000E-05	-3.82073000E-02	-3.63945000E-04
		 1.93946000E-03	-3.84498000E-02	 9.46509000E-03
		-5.34275000E-05	-2.77868000E-02	-2.44213000E-04
		 1.01893000E-03	-3.72575000E-02	 4.52584000E-03
		 1.71068000E-03	-2.80319000E-02	 8.48328000E-03
		-1.88869000E-03	-3.92080000E-02	-1.01500000E-02
		-2.18541000E-03	-3.72222000E-02	-1.01135000E-02
		-1.47889000E-03	-2.94705000E-02	-9.00382000E-03
		-9.71739000E-04	-3.91509000E-02	-5.18209000E-03
		-2.03680000E-03	-3.82530000E-02	-1.02002000E-02
		-1.81880000E-03	-2.78748000E-02	-8.98065000E-03
		-1.11683000E-03	-3.71619000E-02	-5.20647000E-03
		-4.34890000E-05	-3.48913000E-02	-2.84163000E-04
		 2.38214000E-03	-3.51376000E-02	 9.47137000E-03
		-4.71280000E-05	-3.60698000E-02	-3.12174000E-04
		 2.23488000E-03	-3.63125000E-02	 9.38952000E-03
		-4.99697000E-05	-2.58554000E-02	-2.04958000E-04
		 1.16917000E-03	-3.49775000E-02	 4.63497000E-03
		 2.03641000E-03	-2.61113000E-02	 8.51108000E-03
		-2.47009000E-03	-3.49395000E-02	-1.00500000E-02
		-2.32855000E-03	-3.61190000E-02	-1.00237000E-02
		-2.13896000E-03	-2.59475000E-02	-8.93245000E-03
		-1.25604000E-03	-3.48782000E-02	-5.20616000E-03
		-3.85067000E-05	-6.17699000E-02	-6.60905000E-04
		 2.87432000E-03	-6.19900000E-02	 1.06652000E-02
		-2.71014000E-05	-5.87853000E-02	-5.82893000E-04
		 3.04408000E-03	-5.89984000E-02	 1.07612000E-02
		-4.57597000E-05	-5.00246000E-02	-5.14976000E-04
		 1.41609000E-03	-6.18583000E-02	 4.88916000E-03
		 2.30548000E-03	-5.02561000E-02	 1.01285000E-02
		-3.45462000E-05	-6.02981000E-02	-6.21715000E-04
		 2.95798000E-03	-6.05148000E-02	 1.07932000E-02
		-3.97785000E-05	-4.75566000E-02	-4.53320000E-04
		 1.50815000E-03	-5.88707000E-02	 5.05415000E-03
		 2.55194000E-03	-4.77871000E-02	 1.02043000E-02
		-2.93854000E-03	-6.17129000E-02	-1.19937000E-02
		-3.09190000E-03	-5.87322000E-02	-1.19334000E-02
		-2.38665000E-03	-5.00157000E-02	-1.11650000E-02
		-1.48944000E-03	-6.17240000E-02	-6.21265000E-03
		-3.01545000E-03	-6.02419000E-02	-1.20435000E-02
		-2.62576000E-03	-4.75546000E-02	-1.11183000E-02
		-1.55959000E-03	-5.87411000E-02	-6.22157000E-03
		-1.12864000E-05	-5.56347000E-02	-4.98597000E-04
		 3.21803000E-03	-5.58494000E-02	 1.08277000E-02
		-1.86646000E-05	-5.72298000E-02	-5.42512000E-04
		 3.13172000E-03	-5.74420000E-02	 1.07344000E-02
		-2.91826000E-05	-4.48483000E-02	-3.82503000E-04
		 1.60367000E-03	-5.57220000E-02	 5.19027000E-03
		 2.79875000E-03	-4.50797000E-02	 1.02603000E-02
		-3.24294000E-03	-5.55804000E-02	-1.18311000E-02
		-3.16789000E-03	-5.71782000E-02	-1.18252000E-02
		-2.85817000E-03	-4.48443000E-02	-1.10333000E-02
		-1.62644000E-03	-5.55883000E-02	-6.18923000E-03
		-1.77821000E-05	-8.63732000E-02	-9.73591000E-04
		 3.87121000E-03	-8.65589000E-02	 1.09435000E-02
		 2.91374000E-07	-8.24732000E-02	-8.69340000E-04
		 3.92980000E-03	-8.26496000E-02	 1.10529000E-02
		-2.79819000E-05	-7.40089000E-02	-8.16179000E-04
		 1.92468000E-03	-8.64595000E-02	 4.92168000E-03
		 3.41303000E-03	-7.42114000E-02	 1.08928000E-02
		-9.43908000E-06	-8.44286000E-02	-9.21189000E-04
		 3.90002000E-03	-8.46089000E-02	 1.10562000E-02
		-1.23077000E-05	-7.05371000E-02	-7.23587000E-04
		 1.96532000E-03	-8.25565000E-02	 5.08634000E-03
		 3.50836000E-03	-7.07289000E-02	 1.10003000E-02
		-3.90196000E-03	-8.62479000E-02	-1.28843000E-02
		-3.92684000E-03	-8.23435000E-02	-1.27841000E-02
		-3.45983000E-03	-7.39164000E-02	-1.25286000E-02
		-1.95848000E-03	-8.63088000E-02	-6.86614000E-03
		-3.91508000E-03	-8.42981000E-02	-1.28928000E-02
		-3.52874000E-03	-7.04423000E-02	-1.24497000E-02
		-1.96373000E-03	-8.24057000E-02	-6.82283000E-03
		 1.92731000E-05	-7.85208000E-02	-7.69386000E-04
		 3.99567000E-03	-7.86971000E-02	 1.11498000E-02
		 1.04398000E-05	-8.05019000E-02	-8.18862000E-04
		 3.96357000E-03	-8.06769000E-02	 1.10457000E-02
		 6.26356000E-06	-6.69729000E-02	-6.30083000E-04
		 2.00798000E-03	-7.86045000E-02	 5.24095000E-03
		 3.61116000E-03	-6.71669000E-02	 1.10812000E-02
		-3.95745000E-03	-7.83906000E-02	-1.26802000E-02
		-3.94171000E-03	-8.03730000E-02	-1.26756000E-02
		-3.60084000E-03	-6.68781000E-02	-1.23427000E-02
		-1.96979000E-03	-7.84511000E-02	-6.77675000E-03
		-1.02016000E-05	-1.11186000E-01	-1.27700000E-03
		 4.55322000E-03	-1.11392000E-01	 1.09391000E-02
		 4.62782000E-06	-1.06609000E-01	-1.15444000E-03
		 4.60626000E-03	-1.06811000E-01	 1.10591000E-02
		-1.28994000E-05	-9.87423000E-02	-1.12682000E-03
		 2.27125000E-03	-1.11284000E-01	 4.79374000E-03
		 4.24402000E-03	-9.89375000E-02	 1.09453000E-02
		-1.96313000E-06	-1.08903000E-01	-1.21672000E-03
		 4.58132000E-03	-1.09106000E-01	 1.10382000E-02
		 3.34538000E-06	-9.44701000E-02	-1.01273000E-03
		 2.30742000E-03	-1.06706000E-01	 4.95274000E-03
		 4.30337000E-03	-9.46613000E-02	 1.10589000E-02
		-4.57494000E-03	-1.11037000E-01	-1.34961000E-02
		-4.59763000E-03	-1.06453000E-01	-1.33716000E-02
		-4.27151000E-03	-9.86045000E-02	-1.31896000E-02
		-2.29203000E-03	-1.11104000E-01	-7.35045000E-03
		-4.58546000E-03	-1.08748000E-01	-1.34736000E-02
		-4.29622000E-03	-9.43257000E-02	-1.30737000E-02
		-2.29784000E-03	-1.06523000E-01	-7.26371000E-03
		 2.21741000E-05	-1.01989000E-01	-1.03218000E-03
		 4.67340000E-03	-1.02185000E-01	 1.11728000E-02
		 1.18740000E-05	-1.04305000E-01	-1.09182000E-03
		 4.63896000E-03	-1.04505000E-01	 1.10799000E-02
		 2.13581000E-05	-9.01502000E-02	-9.05353000E-04
		 2.34760000E-03	-1.02085000E-01	 5.10612000E-03
		 4.37270000E-03	-9.03371000E-02	 1.11663000E-02
		-4.62945000E-03	-1.01824000E-01	-1.32416000E-02
		-4.61620000E-03	-1.04146000E-01	-1.32670000E-02
		-4.32727000E-03	-9.00026000E-02	-1.29651000E-02
		-2.30293000E-03	-1.01897000E-01	-7.17392000E-03
		-1.27350000E-05	-1.36161000E-01	-1.57726000E-03
		 4.85589000E-03	-1.36351000E-01	 1.07929000E-02
		 2.88694000E-05	-1.31302000E-01	-1.45749000E-03
		 4.88328000E-03	-1.31458000E-01	 1.08990000E-02
		-7.17812000E-06	-1.23697000E-01	-1.42631000E-03
		 2.41474000E-03	-1.36256000E-01	 4.60315000E-03
		 4.77534000E-03	-1.23900000E-01	 1.08989000E-02
		 5.31285000E-06	-1.33737000E-01	-1.52091000E-03
		 4.86910000E-03	-1.33904000E-01	 1.08512000E-02
		 1.44206000E-05	-1.18918000E-01	-1.30212000E-03
		 2.45151000E-03	-1.31376000E-01	 4.72066000E-03
		 4.81110000E-03	-1.19103000E-01	 1.10131000E-02
		-4.84426000E-03	-1.36006000E-01	-1.39862000E-02
		-4.81476000E-03	-1.31154000E-01	-1.38549000E-02
		-4.77028000E-03	-1.23531000E-01	-1.37766000E-02
		-2.42984000E-03	-1.36084000E-01	-7.77092000E-03
		-4.82968000E-03	-1.33586000E-01	-1.39294000E-02
		-4.77653000E-03	-1.18752000E-01	-1.36465000E-02
		-2.39015000E-03	-1.31232000E-01	-7.64704000E-03
		 7.48534000E-05	-1.26429000E-01	-1.30495000E-03
		 4.92508000E-03	-1.26578000E-01	 1.10225000E-02
		 5.35361000E-05	-1.28861000E-01	-1.38496000E-03
		 4.90521000E-03	-1.29014000E-01	 1.09558000E-02
		 3.86081000E-05	-1.14114000E-01	-1.15939000E-03
		 2.49700000E-03	-1.26501000E-01	 4.85762000E-03
		 4.85706000E-03	-1.14294000E-01	 1.11340000E-02
		-4.79532000E-03	-1.26264000E-01	-1.36778000E-02
		-4.80590000E-03	-1.28713000E-01	-1.37700000E-02
		-4.79257000E-03	-1.13931000E-01	-1.34867000E-02
		-2.35190000E-03	-1.26349000E-01	-7.48010000E-03
		 0.00000000E+00	 0.00000000E+00	 0.00000000E+00
		 0.00000000E+00	 0.00000000E+00	 0.00000000E+00
		 7.10603000E-05	-8.48454000E-03	 2.75850000E-05
		-1.69496000E-03	-8.92431000E-03	 7.66093000E-03
		 0.00000000E+00	 0.00000000E+00	 0.00000000E+00
		 0.00000000E+00	 0.00000000E+00	 0.00000000E+00
		 9.01105000E-05	-9.81405000E-03	 7.40429000E-05
		-8.17130000E-04	-1.02969000E-02	 7.81635000E-03
		 0.00000000E+00	 0.00000000E+00	 0.00000000E+00
		 1.82189000E-05	-2.00235000E-03	 2.19322000E-05
		-8.11604000E-04	-8.54185000E-03	 3.76108000E-03
		-1.59345000E-03	-2.68968000E-03	 4.10648000E-03
		 0.00000000E+00	 0.00000000E+00	 0.00000000E+00
		 0.00000000E+00	 0.00000000E+00	 0.00000000E+00
		 7.98961000E-05	-9.30404000E-03	 5.01370000E-05
		-1.24972000E-03	-9.76524000E-03	 7.67738000E-03
		 0.00000000E+00	 0.00000000E+00	 0.00000000E+00
		 3.09064000E-05	-2.96695000E-03	 4.31599000E-05
		-3.63800000E-04	-9.88579000E-03	 3.79210000E-03
		-4.34936000E-04	-3.66193000E-03	 4.03953000E-03
		 0.00000000E+00	 0.00000000E+00	 0.00000000E+00
		 1.82391000E-03	-8.75994000E-03	-7.62682000E-03
		 0.00000000E+00	 0.00000000E+00	 0.00000000E+00
		 9.93717000E-04	-1.01152000E-02	-7.69458000E-03
		 0.00000000E+00	 0.00000000E+00	 0.00000000E+00
		 1.61417000E-03	-2.61431000E-03	-4.06728000E-03
		 9.50807000E-04	-8.45976000E-03	-3.71355000E-03
		 0.00000000E+00	 0.00000000E+00	 0.00000000E+00
		 1.40157000E-03	-9.59064000E-03	-7.59947000E-03
		 0.00000000E+00	 0.00000000E+00	 0.00000000E+00
		 4.88688000E-04	-3.56884000E-03	-3.95357000E-03
		 5.42648000E-04	-9.79612000E-03	-3.65350000E-03
		 0.00000000E+00	 0.00000000E+00	 0.00000000E+00
		 0.00000000E+00	 0.00000000E+00	 0.00000000E+00
		 1.12263000E-04	-1.02945000E-02	 1.31179000E-04
		 6.22707000E-05	-1.07458000E-02	 7.76291000E-03
		 0.00000000E+00	 0.00000000E+00	 0.00000000E+00
		 0.00000000E+00	 0.00000000E+00	 0.00000000E+00
		 1.00219000E-04	-1.02085000E-02	 9.83402000E-05
		-3.85397000E-04	-1.06715000E-02	 7.87727000E-03
		 0.00000000E+00	 0.00000000E+00	 0.00000000E+00
		 5.25699000E-05	-2.92587000E-03	 8.27066000E-05
		 8.91112000E-05	-1.03557000E-02	 3.71058000E-03
		 7.60894000E-04	-3.60209000E-03	 4.16856000E-03
		 0.00000000E+00	 0.00000000E+00	 0.00000000E+00
		 1.61652000E-04	-1.05595000E-02	-7.52596000E-03
		 0.00000000E+00	 0.00000000E+00	 0.00000000E+00
		 5.82685000E-04	-1.04894000E-02	-7.70831000E-03
		 0.00000000E+00	 0.00000000E+00	 0.00000000E+00
		-6.61027000E-04	-3.48840000E-03	-4.00391000E-03
		 1.36892000E-04	-1.02672000E-02	-3.45584000E-03
		 2.56145000E-04	-2.96957000E-02	-1.07140000E-04
		-1.74385000E-03	-3.01076000E-02	 1.21809000E-02
		 2.71918000E-04	-3.14419000E-02	-5.32994000E-05
		-1.21744000E-03	-3.18537000E-02	 1.22735000E-02
		 1.57905000E-04	-1.78920000E-02	-1.02085000E-05
		-7.45830000E-04	-2.98506000E-02	 5.97028000E-03
		-1.80167000E-03	-1.83878000E-02	 1.02733000E-02
		 2.63975000E-04	-3.06207000E-02	-8.16362000E-05
		-1.48203000E-03	-3.10301000E-02	 1.22267000E-02
		 1.72633000E-04	-1.95006000E-02	 4.23157000E-05
		-4.67595000E-04	-3.15977000E-02	 6.04481000E-03
		-1.08297000E-03	-2.00009000E-02	 1.03698000E-02
		 2.25734000E-03	-2.97693000E-02	-1.24167000E-02
		 1.75740000E-03	-3.15209000E-02	-1.24000000E-02
		 2.11127000E-03	-1.81323000E-02	-1.03219000E-02
		 1.25769000E-03	-2.96852000E-02	-6.18970000E-03
		 2.01040000E-03	-3.06989000E-02	-1.24090000E-02
		 1.42833000E-03	-1.97429000E-02	-1.03154000E-02
		 1.01501000E-03	-3.14355000E-02	-6.15339000E-03
		 2.83525000E-04	-3.26756000E-02	 1.14914000E-05
		-6.71650000E-04	-3.30668000E-02	 1.23004000E-02
		 2.77343000E-04	-3.21084000E-02	-2.15756000E-05
		-9.42251000E-04	-3.25414000E-02	 1.23243000E-02
		 1.89464000E-04	-2.04066000E-02	 1.05637000E-04
		-1.99245000E-04	-3.28159000E-02	 6.05472000E-03
		-3.77435000E-04	-2.09158000E-02	 1.03888000E-02
		 1.26522000E-03	-3.27552000E-02	-1.22980000E-02
		 1.50955000E-03	-3.21889000E-02	-1.23896000E-02
		 7.72984000E-04	-2.06689000E-02	-1.02076000E-02
		 7.73282000E-04	-3.26666000E-02	-6.03317000E-03
		 4.92120000E-04	-5.75724000E-02	-4.50133000E-04
		-1.74072000E-03	-5.78410000E-02	 1.40927000E-02
		 5.05922000E-04	-5.96901000E-02	-3.69888000E-04
		-1.53498000E-03	-6.00654000E-02	 1.42059000E-02
		 3.66844000E-04	-4.31413000E-02	-2.58238000E-04
		-6.19375000E-04	-5.76801000E-02	 6.79291000E-03
		-1.68162000E-03	-4.35116000E-02	 1.34234000E-02
		 5.00093000E-04	-5.86598000E-02	-4.07283000E-04
		-1.64060000E-03	-5.89921000E-02	 1.41021000E-02
		 3.79441000E-04	-4.50214000E-02	-1.96809000E-04
		-5.36232000E-04	-5.98549000E-02	 6.83080000E-03
		-1.32788000E-03	-4.53968000E-02	 1.35281000E-02
		 2.68214000E-03	-5.74457000E-02	-1.49817000E-02
		 2.53856000E-03	-5.95653000E-02	-1.49693000E-02
		 2.40276000E-03	-4.31221000E-02	-1.39517000E-02
		 1.59006000E-03	-5.74871000E-02	-7.68343000E-03
		 2.60823000E-03	-5.85254000E-02	-1.49335000E-02
		 2.08431000E-03	-4.49830000E-02	-1.39322000E-02
		 1.52282000E-03	-5.96104000E-02	-7.59152000E-03
		 5.15925000E-04	-6.16389000E-02	-2.87567000E-04
		-1.41019000E-03	-6.21290000E-02	 1.42531000E-02
		 5.11034000E-04	-6.07017000E-02	-3.31318000E-04
		-1.47451000E-03	-6.10097000E-02	 1.43209000E-02
		 4.00196000E-04	-4.65538000E-02	-1.27647000E-04
		-4.17588000E-04	-6.18643000E-02	 6.80170000E-03
		-9.85289000E-04	-4.69515000E-02	 1.35604000E-02
		 2.39163000E-03	-6.15294000E-02	-1.48792000E-02
		 2.46377000E-03	-6.05673000E-02	-1.50095000E-02
		 1.74332000E-03	-4.65042000E-02	-1.38269000E-02
		 1.44902000E-03	-6.15757000E-02	-7.42186000E-03
		 8.51175000E-04	-8.69898000E-02	-8.60029000E-04
		-2.11358000E-03	-8.70451000E-02	 1.36568000E-02
		 8.64653000E-04	-9.01028000E-02	-7.40362000E-04
		-2.38275000E-03	-9.06043000E-02	 1.37948000E-02
		 6.21396000E-04	-7.23631000E-02	-6.56157000E-04
		-6.34553000E-04	-8.70411000E-02	 6.42842000E-03
		-1.90866000E-03	-7.26251000E-02	 1.41032000E-02
		 8.58204000E-04	-8.84902000E-02	-7.99298000E-04
		-2.23841000E-03	-8.87093000E-02	 1.36661000E-02
		 6.29803000E-04	-7.49513000E-02	-5.99736000E-04
		-6.35033000E-04	-9.03612000E-02	 6.49235000E-03
		-1.96658000E-03	-7.51506000E-02	 1.42734000E-02
		 3.65481000E-03	-8.67110000E-02	-1.53722000E-02
		 3.82038000E-03	-8.96619000E-02	-1.52676000E-02
		 3.12651000E-03	-7.21517000E-02	-1.54134000E-02
		 2.25403000E-03	-8.68782000E-02	-8.14678000E-03
		 3.74015000E-03	-8.81595000E-02	-1.52590000E-02
		 3.15572000E-03	-7.46869000E-02	-1.53698000E-02
		 2.32940000E-03	-8.98855000E-02	-7.97305000E-03
		 7.43334000E-04	-9.33906000E-02	-6.23287000E-04
		-2.50392000E-03	-9.42528000E-02	 1.38978000E-02
		 8.05452000E-04	-9.16872000E-02	-6.82664000E-04
		-2.44280000E-03	-9.28927000E-02	 1.39259000E-02
		 6.16534000E-04	-7.75459000E-02	-5.69053000E-04
		-9.96934000E-04	-9.38108000E-02	 6.52155000E-03
		-1.84204000E-03	-7.76261000E-02	 1.43305000E-02
		 3.99376000E-03	-9.27921000E-02	-1.51324000E-02