# vtk DataFile Version 3.0

ASCII
DATASET UNSTRUCTURED_GRID

POINTS 522 double
	 1.00000000E+00	 1.00000000E+00	-5.96046000E-08
	 1.00000000E+00	 5.00000000E-01	-5.96046000E-08
	 1.00000000E+00	 5.00000000E-01	 1.00000000E+00
	 1.00000000E+00	 1.00000000E+00	 1.00000000E+00
	 5.00000000E-01	 1.00000000E+00	-5.96046000E-08
	 5.00000000E-01	 5.00000000E-01	-5.96046000E-08
	 5.00000000E-01	 5.00000000E-01	 1.00000000E+00
	 5.00000000E-01	 1.00000000E+00	 1.00000000E+00
	 1.00000000E+00	 7.50000000E-01	-5.96046000E-08
	 1.00000000E+00	 5.00000000E-01	 5.00000000E-01
	 1.00000000E+00	 7.50000000E-01	 1.00000000E+00
	 1.00000000E+00	 1.00000000E+00	 5.00000000E-01
	 7.50000000E-01	 1.00000000E+00	-5.96046000E-08
	 7.50000000E-01	 5.00000000E-01	-5.96046000E-08
	 7.50000000E-01	 5.00000000E-01	 1.00000000E+00
	 7.50000000E-01	 1.00000000E+00	 1.00000000E+00
	 5.00000000E-01	 7.50000000E-01	-5.96046000E-08
	 5.00000000E-01	 5.00000000E-01	 5.00000000E-01
	 5.00000000E-01	 7.50000000E-01	 1.00000000E+00
	 5.00000000E-01	 1.00000000E+00	 5.00000000E-01
	 1.00000000E+00	-1.49012000E-08	-5.96046000E-08
	 1.00000000E+00	-1.49012000E-08	 1.00000000E+00
	 5.00000000E-01	-1.49012000E-08	-5.96046000E-08
	 5.00000000E-01	-1.49012000E-08	 1.00000000E+00
	 1.00000000E+00	 2.50000000E-01	-5.96046000E-08
	 1.00000000E+00	-1.49012000E-08	 5.00000000E-01
	 1.00000000E+00	 2.50000000E-01	 1.00000000E+00
	 7.50000000E-01	-1.49012000E-08	-5.96046000E-08
	 7.50000000E-01	-1.49012000E-08	 1.00000000E+00
	 5.00000000E-01	 2.50000000E-01	-5.96046000E-08
	 5.00000000E-01	-1.49012000E-08	 5.00000000E-01
	 5.00000000E-01	 2.50000000E-01	 1.00000000E+00
	-7.45058000E-09	 1.00000000E+00	-5.96046000E-08
	-7.45058000E-09	 5.00000000E-01	-5.96046000E-08
	-7.45058000E-09	 5.00000000E-01	 1.00000000E+00
	-7.45058000E-09	 1.00000000E+00	 1.00000000E+00
	 2.50000000E-01	 1.00000000E+00	-5.96046000E-08
	 2.50000000E-01	 5.00000000E-01	-5.96046000E-08
	 2.50000000E-01	 5.00000000E-01	 1.00000000E+00
	 2.50000000E-01	 1.00000000E+00	 1.00000000E+00
	-7.45058000E-09	 7.50000000E-01	-5.96046000E-08
	-7.45058000E-09	 5.00000000E-01	 5.00000000E-01
	-7.45058000E-09	 7.50000000E-01	 1.00000000E+00
	-7.45058000E-09	 1.00000000E+00	 5.00000000E-01
	-7.45058000E-09	-1.49012000E-08	-5.96046000E-08
	-7.45058000E-09	-1.49012000E-08	 1.00000000E+00
	 2.50000000E-01	-1.49012000E-08	-5.96046000E-08
	 2.50000000E-01	-1.49012000E-08	 1.00000000E+00
	-7.45058000E-09	 2.50000000E-01	-5.96046000E-08
	-7.45058000E-09	-1.49012000E-08	 5.00000000E-01
	-7.45058000E-09	 2.50000000E-01	 1.00000000E+00
	 1.00000000E+00	 5.00000000E-01	 2.00000000E+00
	 1.00000000E+00	 1.00000000E+00	 2.00000000E+00
	 5.00000000E-01	 5.00000000E-01	 2.00000000E+00
	 5.00000000E-01	 1.00000000E+00	 2.00000000E+00
	 1.00000000E+00	 5.00000000E-01	 1.50000000E+00
	 1.00000000E+00	 7.50000000E-01	 2.00000000E+00
	 1.00000000E+00	 1.00000000E+00	 1.50000000E+00
	 7.50000000E-01	 5.00000000E-01	 2.00000000E+00
	 7.50000000E-01	 1.00000000E+00	 2.00000000E+00
	 5.00000000E-01	 5.00000000E-01	 1.50000000E+00
	 5.00000000E-01	 7.50000000E-01	 2.00000000E+00
	 5.00000000E-01	 1.00000000E+00	 1.50000000E+00
	 1.00000000E+00	-1.49012000E-08	 2.00000000E+00
	 5.00000000E-01	-1.49012000E-08	 2.00000000E+00
	 1.00000000E+00	-1.49012000E-08	 1.50000000E+00
	 1.00000000E+00	 2.50000000E-01	 2.00000000E+00
	 7.50000000E-01	-1.49012000E-08	 2.00000000E+00
	 5.00000000E-01	-1.49012000E-08	 1.50000000E+00
	 5.00000000E-01	 2.50000000E-01	 2.00000000E+00
	-7.45058000E-09	 5.00000000E-01	 2.00000000E+00
	-7.45058000E-09	 1.00000000E+00	 2.00000000E+00
	 2.50000000E-01	 5.00000000E-01	 2.00000000E+00
	 2.50000000E-01	 1.00000000E+00	 2.00000000E+00
	-7.45058000E-09	 5.00000000E-01	 1.50000000E+00
	-7.45058000E-09	 7.50000000E-01	 2.00000000E+00
	-7.45058000E-09	 1.00000000E+00	 1.50000000E+00
	-7.45058000E-09	-1.49012000E-08	 2.00000000E+00
	 2.50000000E-01	-1.49012000E-08	 2.00000000E+00
	-7.45058000E-09	-1.49012000E-08	 1.50000000E+00
	-7.45058000E-09	 2.50000000E-01	 2.00000000E+00
	 1.00000000E+00	 5.00000000E-01	 3.00000000E+00
	 1.00000000E+00	 1.00000000E+00	 3.00000000E+00
	 5.00000000E-01	 5.00000000E-01	 3.00000000E+00
	 5.00000000E-01	 1.00000000E+00	 3.00000000E+00
	 1.00000000E+00	 5.00000000E-01	 2.50000000E+00
	 1.00000000E+00	 7.50000000E-01	 3.00000000E+00
	 1.00000000E+00	 1.00000000E+00	 2.50000000E+00
	 7.50000000E-01	 5.00000000E-01	 3.00000000E+00
	 7.50000000E-01	 1.00000000E+00	 3.00000000E+00
	 5.00000000E-01	 5.00000000E-01	 2.50000000E+00
	 5.00000000E-01	 7.50000000E-01	 3.00000000E+00
	 5.00000000E-01	 1.00000000E+00	 2.50000000E+00
	 1.00000000E+00	-1.49012000E-08	 3.00000000E+00
	 5.00000000E-01	-1.49012000E-08	 3.00000000E+00
	 1.00000000E+00	-1.49012000E-08	 2.50000000E+00
	 1.00000000E+00	 2.50000000E-01	 3.00000000E+00
	 7.50000000E-01	-1.49012000E-08	 3.00000000E+00
	 5.00000000E-01	-1.49012000E-08	 2.50000000E+00
	 5.00000000E-01	 2.50000000E-01	 3.00000000E+00
	-7.45058000E-09	 5.00000000E-01	 3.00000000E+00
	-7.45058000E-09	 1.00000000E+00	 3.00000000E+00
	 2.50000000E-01	 5.00000000E-01	 3.00000000E+00
	 2.50000000E-01	 1.00000000E+00	 3.00000000E+00
	-7.45058000E-09	 5.00000000E-01	 2.50000000E+00
	-7.45058000E-09	 7.50000000E-01	 3.00000000E+00
	-7.45058000E-09	 1.00000000E+00	 2.50000000E+00
	-7.45058000E-09	-1.49012000E-08	 3.00000000E+00
	 2.50000000E-01	-1.49012000E-08	 3.00000000E+00
	-7.45058000E-09	-1.49012000E-08	 2.50000000E+00
	-7.45058000E-09	 2.50000000E-01	 3.00000000E+00
	 1.00000000E+00	 5.00000000E-01	 4.00000000E+00
	 1.00000000E+00	 1.00000000E+00	 4.00000000E+00
	 5.00000000E-01	 5.00000000E-01	 4.00000000E+00
	 5.00000000E-01	 1.00000000E+00	 4.00000000E+00
	 1.00000000E+00	 5.00000000E-01	 3.50000000E+00
	 1.00000000E+00	 7.50000000E-01	 4.00000000E+00
	 1.00000000E+00	 1.00000000E+00	 3.50000000E+00
	 7.50000000E-01	 5.00000000E-01	 4.00000000E+00
	 7.50000000E-01	 1.00000000E+00	 4.00000000E+00
	 5.00000000E-01	 5.00000000E-01	 3.50000000E+00
	 5.00000000E-01	 7.50000000E-01	 4.00000000E+00
	 5.00000000E-01	 1.00000000E+00	 3.50000000E+00
	 1.00000000E+00	-1.49012000E-08	 4.00000000E+00
	 5.00000000E-01	-1.49012000E-08	 4.00000000E+00
	 1.00000000E+00	-1.49012000E-08	 3.50000000E+00
	 1.00000000E+00	 2.50000000E-01	 4.00000000E+00
	 7.50000000E-01	-1.49012000E-08	 4.00000000E+00
	 5.00000000E-01	-1.49012000E-08	 3.50000000E+00
	 5.00000000E-01	 2.50000000E-01	 4.00000000E+00
	-7.45058000E-09	 5.00000000E-01	 4.00000000E+00
	-7.45058000E-09	 1.00000000E+00	 4.00000000E+00
	 2.50000000E-01	 5.00000000E-01	 4.00000000E+00
	 2.50000000E-01	 1.00000000E+00	 4.00000000E+00
	-7.45058000E-09	 5.00000000E-01	 3.50000000E+00
	-7.45058000E-09	 7.50000000E-01	 4.00000000E+00
	-7.45058000E-09	 1.00000000E+00	 3.50000000E+00
	-7.45058000E-09	-1.49012000E-08	 4.00000000E+00
	 2.50000000E-01	-1.49012000E-08	 4.00000000E+00
	-7.45058000E-09	-1.49012000E-08	 3.50000000E+00
	-7.45058000E-09	 2.50000000E-01	 4.00000000E+00
	 1.00000000E+00	 5.00000000E-01	 5.00000000E+00
	 1.00000000E+00	 1.00000000E+00	 5.00000000E+00
	 5.00000000E-01	 5.00000000E-01	 5.00000000E+00
	 5.00000000E-01	 1.00000000E+00	 5.00000000E+00
	 1.00000000E+00	 5.00000000E-01	 4.50000000E+00
	 1.00000000E+00	 7.50000000E-01	 5.00000000E+00
	 1.00000000E+00	 1.00000000E+00	 4.50000000E+00
	 7.50000000E-01	 5.00000000E-01	 5.00000000E+00
	 7.50000000E-01	 1.00000000E+00	 5.00000000E+00
	 5.00000000E-01	 5.00000000E-01	 4.50000000E+00
	 5.00000000E-01	 7.50000000E-01	 5.00000000E+00
	 5.00000000E-01	 1.00000000E+00	 4.50000000E+00
	 1.00000000E+00	-1.49012000E-08	 5.00000000E+00
	 5.00000000E-01	-1.49012000E-08	 5.00000000E+00
	 1.00000000E+00	-1.49012000E-08	 4.50000000E+00
	 1.00000000E+00	 2.50000000E-01	 5.00000000E+00
	 7.50000000E-01	-1.49012000E-08	 5.00000000E+00
	 5.00000000E-01	-1.49012000E-08	 4.50000000E+00
	 5.00000000E-01	 2.50000000E-01	 5.00000000E+00
	-7.45058000E-09	 5.00000000E-01	 5.00000000E+00
	-7.45058000E-09	 1.00000000E+00	 5.00000000E+00
	 2.50000000E-01	 5.00000000E-01	 5.00000000E+00
	 2.50000000E-01	 1.00000000E+00	 5.00000000E+00
	-7.45058000E-09	 5.00000000E-01	 4.50000000E+00
	-7.45058000E-09	 7.50000000E-01	 5.00000000E+00
	-7.45058000E-09	 1.00000000E+00	 4.50000000E+00
	-7.45058000E-09	-1.49012000E-08	 5.00000000E+00
	 2.50000000E-01	-1.49012000E-08	 5.00000000E+00
	-7.45058000E-09	-1.49012000E-08	 4.50000000E+00
	-7.45058000E-09	 2.50000000E-01	 5.00000000E+00
	 1.00000000E+00	 5.00000000E-01	 6.00000000E+00
	 1.00000000E+00	 1.00000000E+00	 6.00000000E+00
	 5.00000000E-01	 5.00000000E-01	 6.00000000E+00
	 5.00000000E-01	 1.00000000E+00	 6.00000000E+00
	 1.00000000E+00	 5.00000000E-01	 5.50000000E+00
	 1.00000000E+00	 7.50000000E-01	 6.00000000E+00
	 1.00000000E+00	 1.00000000E+00	 5.50000000E+00
	 7.50000000E-01	 5.00000000E-01	 6.00000000E+00
	 7.50000000E-01	 1.00000000E+00	 6.00000000E+00
	 5.00000000E-01	 5.00000000E-01	 5.50000000E+00
	 5.00000000E-01	 7.50000000E-01	 6.00000000E+00
	 5.00000000E-01	 1.00000000E+00	 5.50000000E+00
	 1.00000000E+00	-1.49012000E-08	 6.00000000E+00
	 5.00000000E-01	-1.49012000E-08	 6.00000000E+00
	 1.00000000E+00	-1.49012000E-08	 5.50000000E+00
	 1.00000000E+00	 2.50000000E-01	 6.00000000E+00
	 7.50000000E-01	-1.49012000E-08	 6.00000000E+00
	 5.00000000E-01	-1.49012000E-08	 5.50000000E+00
	 5.00000000E-01	 2.50000000E-01	 6.00000000E+00
	-7.45058000E-09	 5.00000000E-01	 6.00000000E+00
	-7.45058000E-09	 1.00000000E+00	 6.00000000E+00
	 2.50000000E-01	 5.00000000E-01	 6.00000000E+00
	 2.50000000E-01	 1.00000000E+00	 6.00000000E+00
	-7.45058000E-09	 5.00000000E-01	 5.50000000E+00
	-7.45058000E-09	 7.50000000E-01	 6.00000000E+00
	-7.45058000E-09	 1.00000000E+00	 5.50000000E+00
	-7.45058000E-09	-1.49012000E-08	 6.00000000E+00
	 2.50000000E-01	-1.49012000E-08	 6.00000000E+00
	-7.45058000E-09	-1.49012000E-08	 5.50000000E+00
	-7.45058000E-09	 2.50000000E-01	 6.00000000E+00
	 1.00000000E+00	 5.00000000E-01	 7.00000000E+00
[...]
POINT_DATA 522
FIELD U 1
	U 3 522 double
		 0.00000000E+00	 0.00000000E+00	 0.00000000E+00
		 0.00000000E+00	 0.00000000E+00	 0.00000000E+00
		 3.38420000E-05	-1.38027000E-03	-6.74154000E-05
		 1.17715000E-03	-1.24351000E-03	-8.57679000E-04
		 0.00000000E+00	 0.00000000E+00	 0.00000000E+00
		 0.00000000E+00	 0.00000000E+00	 0.00000000E+00
		 2.67038000E-05	-3.67339000E-04	-6.24875000E-05
		 9.25233000E-04	-2.26470000E-04	-8.37225000E-04
		 0.00000000E+00	 0.00000000E+00	 0.00000000E+00
		 2.25729000E-05	-9.72064000E-04	-3.55996000E-05
		 6.07182000E-04	-1.34420000E-03	-6.05317000E-04
		 5.67060000E-04	-8.71363000E-04	-2.17819000E-04
		 0.00000000E+00	 0.00000000E+00	 0.00000000E+00
		 0.00000000E+00	 0.00000000E+00	 0.00000000E+00
		 3.02549000E-05	-8.41074000E-04	-6.37359000E-05
		 1.05023000E-03	-7.04943000E-04	-7.50569000E-04
		 0.00000000E+00	 0.00000000E+00	 0.00000000E+00
		 1.29803000E-05	-4.64413000E-04	-2.77430000E-05
		 4.74677000E-04	-3.30537000E-04	-5.00144000E-04
		 4.58548000E-04	-3.85281000E-04	-1.81436000E-04
		 0.00000000E+00	 0.00000000E+00	 0.00000000E+00
		-1.10795000E-03	-1.25399000E-03	 7.23262000E-04
		 0.00000000E+00	 0.00000000E+00	 0.00000000E+00
		-8.69981000E-04	-2.42299000E-04	 7.12522000E-04
		 0.00000000E+00	 0.00000000E+00	 0.00000000E+00
		-5.21353000E-04	-8.90044000E-04	 1.43819000E-04
		-5.39344000E-04	-1.34899000E-03	 4.70594000E-04
		 0.00000000E+00	 0.00000000E+00	 0.00000000E+00
		-9.87723000E-04	-7.18338000E-04	 6.23878000E-04
		 0.00000000E+00	 0.00000000E+00	 0.00000000E+00
		-4.32089000E-04	-4.03858000E-04	 1.22902000E-04
		-4.20726000E-04	-3.38337000E-04	 3.75618000E-04
		 0.00000000E+00	 0.00000000E+00	 0.00000000E+00
		 0.00000000E+00	 0.00000000E+00	 0.00000000E+00
		 1.74310000E-05	 4.15463000E-04	-5.59856000E-05
		 6.60583000E-04	 5.45854000E-04	-8.47042000E-04
		 0.00000000E+00	 0.00000000E+00	 0.00000000E+00
		 0.00000000E+00	 0.00000000E+00	 0.00000000E+00
		 2.22991000E-05	 5.50038000E-05	-6.03393000E-05
		 7.93030000E-04	 1.93261000E-04	-9.11047000E-04
		 0.00000000E+00	 0.00000000E+00	 0.00000000E+00
		 4.03396000E-06	-8.13691000E-05	-2.27440000E-05
		 3.40360000E-04	 4.47590000E-04	-4.30989000E-04
		 3.15743000E-04	-1.57814000E-05	-2.05636000E-04
		 0.00000000E+00	 0.00000000E+00	 0.00000000E+00
		-6.23641000E-04	 5.27531000E-04	 7.34927000E-04
		 0.00000000E+00	 0.00000000E+00	 0.00000000E+00
		-7.46741000E-04	 1.76264000E-04	 7.90101000E-04
		 0.00000000E+00	 0.00000000E+00	 0.00000000E+00
		-3.07656000E-04	-3.30431000E-05	 1.56826000E-04
		-3.04601000E-04	 4.38279000E-04	 3.19636000E-04
		 4.43559000E-05	 1.11197000E-03	-1.22770000E-04
		 2.05853000E-03	 1.22638000E-03	-2.75158000E-03
		 4.00564000E-05	 2.98759000E-03	-1.31122000E-04
		 1.78828000E-03	 3.11313000E-03	-2.76484000E-03
		 4.10263000E-05	-6.95507000E-04	-9.40505000E-05
		 1.04705000E-03	 1.13501000E-03	-1.46507000E-03
		 1.66931000E-03	-5.80902000E-04	-1.79822000E-03
		 4.25918000E-05	 2.08127000E-03	-1.26876000E-04
		 1.92432000E-03	 2.20612000E-03	-2.71291000E-03
		 3.50630000E-05	 7.81640000E-04	-9.51403000E-05
		 9.14721000E-04	 3.01666000E-03	-1.42886000E-03
		 1.37787000E-03	 9.10458000E-04	-1.79980000E-03
		-1.96904000E-03	 1.23232000E-03	 2.50613000E-03
		-1.70708000E-03	 3.11504000E-03	 2.50241000E-03
		-1.58559000E-03	-5.86080000E-04	 1.60913000E-03
		-9.58357000E-04	 1.13785000E-03	 1.21972000E-03
		-1.83824000E-03	 2.20956000E-03	 2.45911000E-03
		-1.30635000E-03	 9.00848000E-04	 1.60890000E-03
		-8.34541000E-04	 3.01735000E-03	 1.16662000E-03
		 3.27155000E-05	 4.60797000E-03	-1.38891000E-04
		 1.52680000E-03	 4.73805000E-03	-2.76768000E-03
		 3.69052000E-05	 3.83141000E-03	-1.35401000E-04
		 1.65838000E-03	 3.95824000E-03	-2.82561000E-03
		 2.69883000E-05	 1.98950000E-03	-9.52727000E-05
		 7.80234000E-04	 4.64011000E-03	-1.37711000E-03
		 1.09598000E-03	 2.11979000E-03	-1.79936000E-03
		-1.45945000E-03	 4.73623000E-03	 2.48985000E-03
		-1.58326000E-03	 3.95895000E-03	 2.55449000E-03
		-1.04050000E-03	 2.10664000E-03	 1.60865000E-03
		-7.14304000E-04	 4.63863000E-03	 1.09950000E-03
		 3.82827000E-05	 7.49771000E-03	-1.85613000E-04
		 2.55765000E-03	 7.57894000E-03	-4.30207000E-03
		 3.61745000E-05	 9.91280000E-03	-2.12390000E-04
		 2.34903000E-03	 9.99877000E-03	-4.32999000E-03
		 4.42078000E-05	 3.90345000E-03	-1.53517000E-04
		 1.29867000E-03	 7.51418000E-03	-2.26978000E-03
		 2.35191000E-03	 4.00338000E-03	-3.56532000E-03
		 3.79525000E-05	 8.72960000E-03	-1.99367000E-04
		 2.45429000E-03	 8.81300000E-03	-4.28946000E-03
		 4.09545000E-05	 6.09512000E-03	-1.70464000E-04
		 1.19269000E-03	 9.93236000E-03	-2.27035000E-03
		 2.12066000E-03	 6.20183000E-03	-3.58819000E-03
		-2.47980000E-03	 7.61626000E-03	 3.93134000E-03
		-2.27333000E-03	 1.00311000E-02	 3.90527000E-03
		-2.26270000E-03	 4.02397000E-03	 3.25904000E-03
		-1.22192000E-03	 7.53350000E-03	 1.89856000E-03
		-2.37631000E-03	 8.84784000E-03	 3.89136000E-03
		-2.03688000E-03	 6.21840000E-03	 3.24755000E-03
		-1.11953000E-03	 9.94903000E-03	 1.84561000E-03
		 3.07285000E-05	 1.21196000E-02	-2.37611000E-04
		 2.14847000E-03	 1.22189000E-02	-4.35429000E-03
		 3.35890000E-05	 1.10414000E-02	-2.25068000E-04
		 2.24914000E-03	 1.11306000E-02	-4.36955000E-03
		 3.44769000E-05	 8.06118000E-03	-1.86685000E-04
		 1.08624000E-03	 1.21460000E-02	-2.26767000E-03
		 1.89822000E-03	 8.17795000E-03	-3.59858000E-03
		-2.08153000E-03	 1.22427000E-02	 3.87861000E-03
		-2.17733000E-03	 1.11596000E-02	 3.91872000E-03
		-1.82608000E-03	 8.18882000E-03	 3.22497000E-03
		-1.02334000E-03	 1.21576000E-02	 1.79269000E-03
		 9.75252000E-06	 1.68336000E-02	-2.57420000E-04
		 2.73669000E-03	 1.69148000E-02	-5.81231000E-03
		 9.79047000E-06	 1.94327000E-02	-3.03869000E-04
		 2.49040000E-03	 1.95215000E-02	-5.85249000E-03
		 2.68784000E-05	 1.17913000E-02	-2.19544000E-04
		 1.37205000E-03	 1.68428000E-02	-3.05068000E-03
		 2.68945000E-03	 1.18704000E-02	-5.02436000E-03
		 1.05291000E-05	 1.81632000E-02	-2.81314000E-04
		 2.61422000E-03	 1.82493000E-02	-5.83154000E-03
		 2.57919000E-05	 1.43410000E-02	-2.56466000E-04
		 1.25010000E-03	 1.94458000E-02	-3.09352000E-03
		 2.47008000E-03	 1.44274000E-02	-5.05713000E-03
		-2.71606000E-03	 1.69864000E-02	 5.29535000E-03
		-2.46637000E-03	 1.95877000E-02	 5.24292000E-03
		-2.63390000E-03	 1.19245000E-02	 4.58476000E-03
		-1.35235000E-03	 1.68795000E-02	 2.53547000E-03
		-2.59072000E-03	 1.83188000E-02	 5.26664000E-03
		-2.41394000E-03	 1.44756000E-02	 4.54340000E-03
		-1.22928000E-03	 1.94800000E-02	 2.48528000E-03
		 6.58458000E-06	 2.17895000E-02	-3.46284000E-04
		 2.24996000E-03	 2.18878000E-02	-5.90147000E-03
		 8.17733000E-06	 2.06419000E-02	-3.25384000E-04
		 2.37081000E-03	 2.07341000E-02	-5.86960000E-03
		 2.13923000E-05	 1.66743000E-02	-2.90686000E-04
		 1.12688000E-03	 2.18079000E-02	-3.14596000E-03
		 2.26038000E-03	 1.67746000E-02	-5.09602000E-03
		-2.22932000E-03	 2.19434000E-02	 5.20736000E-03
		-2.34800000E-03	 2.07956000E-02	 5.21750000E-03
		-2.21012000E-03	 1.68121000E-02	 4.51350000E-03
		-1.11165000E-03	 2.18362000E-02	 2.45272000E-03
		-3.14696000E-05	 2.97314000E-02	-3.62313000E-04
		 2.59856000E-03	 2.98066000E-02	-7.72984000E-03
		-2.91345000E-05	 3.22123000E-02	-4.19739000E-04
		 2.31503000E-03	 3.22960000E-02	-7.78954000E-03
		-1.08213000E-05	 2.27693000E-02	-3.04173000E-04
		 1.28190000E-03	 2.97326000E-02	-4.02681000E-03
		 2.70000000E-03	 2.28515000E-02	-6.73643000E-03
		-2.97064000E-05	 3.10073000E-02	-3.91713000E-04
		 2.45724000E-03	 3.10879000E-02	-7.77574000E-03
		-9.78872000E-06	 2.53385000E-02	-3.57256000E-04
		 1.14264000E-03	 3.22169000E-02	-4.10040000E-03
		 2.42662000E-03	 2.54274000E-02	-6.78485000E-03
		-2.66147000E-03	 2.99245000E-02	 7.00130000E-03
		-2.37116000E-03	 3.24102000E-02	 6.94596000E-03
		-2.72158000E-03	 2.29434000E-02	 6.12468000E-03
		-1.34509000E-03	 2.97909000E-02	 3.30120000E-03
		-2.51586000E-03	 3.12048000E-02	 6.98825000E-03
		-2.44327000E-03	 2.55154000E-02	 6.06741000E-03
		-1.20054000E-03	 3.22744000E-02	 3.25991000E-03
		-3.02746000E-05	 3.44171000E-02	-4.71653000E-04
		 2.03494000E-03	 3.45045000E-02	-7.83914000E-03
		-2.93463000E-05	 3.33509000E-02	-4.46398000E-04
		 2.17556000E-03	 3.34367000E-02	-7.80179000E-03
		-1.19426000E-05	 2.76387000E-02	-4.05022000E-04
		 1.00241000E-03	 3.44240000E-02	-4.16451000E-03
		 2.15480000E-03	 2.77317000E-02	-6.83733000E-03
		-2.09090000E-03	 3.46116000E-02	 6.89172000E-03
		-2.23073000E-03	 3.35474000E-02	 6.90497000E-03
		-2.17315000E-03	 2.78117000E-02	 6.02493000E-03
		-1.06175000E-03	 3.44782000E-02	 3.22016000E-03
		-7.88896000E-05	 4.67918000E-02	-5.21895000E-04
		 2.16332000E-03	 4.68059000E-02	-9.58527000E-03
		-7.78865000E-05	 4.89201000E-02	-5.83932000E-04
		 1.94919000E-03	 4.89411000E-02	-9.65745000E-03
		-5.33751000E-05	 3.77688000E-02	-4.33379000E-04
		 1.04035000E-03	 4.67725000E-02	-4.98936000E-03
		 2.42547000E-03	 3.78133000E-02	-8.70494000E-03
		-7.80917000E-05	 4.78820000E-02	-5.54051000E-04
		 2.05655000E-03	 4.79011000E-02	-9.66471000E-03
		-5.13271000E-05	 4.01120000E-02	-4.94902000E-04
		 9.36498000E-04	 4.89035000E-02	-5.09737000E-03
		 2.16803000E-03	 4.01655000E-02	-8.77440000E-03
		-2.32191000E-03	 4.69749000E-02	 8.53749000E-03
		-2.10410000E-03	 4.91095000E-02	 8.48598000E-03
		-2.53200000E-03	 3.79583000E-02	 7.83416000E-03
		-1.19850000E-03	 4.68547000E-02	 3.94498000E-03
		-2.21291000E-03	 4.80717000E-02	 8.55230000E-03
		-2.26874000E-03	 4.03072000E-02	 7.78036000E-03
		-1.09217000E-03	 4.89872000E-02	 3.92868000E-03
		-7.83326000E-05	 5.08415000E-02	-6.42107000E-04
		 1.74368000E-03	 5.08677000E-02	-9.70391000E-03
		-7.80694000E-05	 4.99078000E-02	-6.12863000E-04
		 1.84723000E-03	 4.99303000E-02	-9.65097000E-03
		-5.19983000E-05	 4.22045000E-02	-5.51742000E-04
		 8.31780000E-04	 5.08277000E-02	-5.18026000E-03
		 1.91796000E-03	 4.22634000E-02	-8.82219000E-03
		-1.89790000E-03	 5.10323000E-02	 8.41658000E-03
		-2.00156000E-03	 5.00960000E-02	 8.42234000E-03
		-2.01782000E-03	 4.23984000E-02	 7.71446000E-03
		-9.87788000E-04	 5.09103000E-02	 3.89502000E-03
		-1.16139000E-04	 6.71725000E-02	-7.50133000E-04
		 1.28839000E-03	 6.71240000E-02	-1.08307000E-02
		-1.16831000E-04	 6.85355000E-02	-7.95230000E-04
		 1.20092000E-03	 6.84802000E-02	-1.08942000E-02
		-1.00612000E-04	 5.66755000E-02	-6.30346000E-04
		 5.88530000E-04	 6.71400000E-02	-5.69355000E-03
		 1.77466000E-03	 5.66517000E-02	-1.02958000E-02
		-1.16204000E-04	 6.78672000E-02	-7.72619000E-04
		 1.24517000E-03	 6.78118000E-02	-1.09317000E-02
		-1.00818000E-04	 5.84645000E-02	-6.85187000E-04
		 5.43367000E-04	 6.84974000E-02	-5.81806000E-03
		 1.61534000E-03	 5.84462000E-02	-1.03643000E-02
		-1.52332000E-03	 6.73250000E-02	 9.32816000E-03
		-1.43670000E-03	 6.86847000E-02	 9.30163000E-03
		-1.97829000E-03	 5.68386000E-02	 9.03206000E-03
		-8.21573000E-04	 6.72363000E-02	 4.19245000E-03
		-1.48024000E-03	 6.80178000E-02	 9.38431000E-03
		-1.81804000E-03	 5.86357000E-02	 8.99115000E-03
		-7.77839000E-04	 6.85989000E-02	 4.22692000E-03
		-1.18574000E-04	 6.98033000E-02	-8.37133000E-04
		 1.10415000E-03	 6.97456000E-02	-1.09292000E-02
		-1.17819000E-04	 6.91790000E-02	-8.17000000E-04
		 1.15251000E-03	 6.91247000E-02	-1.08570000E-02
		-1.02040000E-04	 6.01014000E-02	-7.36731000E-04
		 4.93674000E-04	 6.97619000E-02	-5.91555000E-03
		 1.46755000E-03	 6.00894000E-02	-1.04033000E-02
		-1.34224000E-03	 6.99508000E-02	 9.25281000E-03
		-1.38971000E-03	 6.93272000E-02	 9.22104000E-03
		-1.67134000E-03	 6.02784000E-02	 8.92732000E-03
		-7.31051000E-04	 6.98664000E-02	 4.24059000E-03
		-1.51999000E-04	 8.84431000E-02	-9.82094000E-04
		 6.39343000E-04	 8.83655000E-02	-1.12847000E-02
		-1.49842000E-04	 8.92902000E-02	-1.01881000E-03
		 6.66219000E-04	 8.91916000E-02	-1.13560000E-02
		-1.32276000E-04	 7.79082000E-02	-8.69738000E-04
		 2.41648000E-04	 8.84072000E-02	-6.10936000E-03
		 8.60147000E-04	 7.78331000E-02	-1.11329000E-02
		-1.50801000E-04	 8.88618000E-02	-1.00087000E-03
		 6.53544000E-04	 8.87726000E-02	-1.13346000E-02
		-1.32210000E-04	 7.88961000E-02	-9.08412000E-04
		 2.52212000E-04	 8.92432000E-02	-6.17995000E-03
		 8.35451000E-04	 7.88107000E-02	-1.11988000E-02
		-9.44440000E-04	 8.85748000E-02	 9.31918000E-03
		-9.68300000E-04	 8.94037000E-02	 9.31729000E-03
		-1.12647000E-03	 7.80411000E-02	 9.39155000E-03
		-5.46076000E-04	 8.85100000E-02	 4.14449000E-03
		-9.57111000E-04	 8.89838000E-02	 9.33187000E-03
		-1.10211000E-03	 7.90218000E-02	 9.38009000E-03
		-5.52928000E-04	 8.93485000E-02	 4.14183000E-03
		-1.48562000E-04	 9.01209000E-02	-1.05236000E-03
		 6.45032000E-04	 9.00074000E-02	-1.14016000E-02
		-1.48979000E-04	 8.97090000E-02	-1.03581000E-03
		 6.54334000E-04	 8.96042000E-02	-1.13726000E-02
		-1.32963000E-04	 7.98427000E-02	-9.43935000E-04
		 2.46985000E-04	 9.00652000E-02	-6.23049000E-03
		 7.84061000E-04	 7.97507000E-02	-1.12391000E-02
		-9.45107000E-04	 9.02222000E-02	 9.29553000E-03
		-9.55058000E-04	 8.98169000E-02	 9.29970000E-03
		-1.05205000E-03	 7.99636000E-02	 9.34942000E-03
		-5.45183000E-04	 9.01727000E-02	 4.12516000E-03
		 0.00000000E+00	 0.00000000E+00	 0.00000000E+00
		 0.00000000E+00	 0.00000000E+00	 0.00000000E+00
		-1.11058000E-04	-2.17134000E-03	 2.44502000E-04
		-2.41863000E-03	-2.46477000E-03	 4.17385000E-03
		 0.00000000E+00	 0.00000000E+00	 0.00000000E+00
		 0.00000000E+00	 0.00000000E+00	 0.00000000E+00
		-7.59147000E-05	-4.21683000E-03	 1.73908000E-04
		-1.86985000E-03	-4.52018000E-03	 4.15848000E-03
		 0.00000000E+00	 0.00000000E+00	 0.00000000E+00
		-5.81080000E-05	 1.53567000E-04	 1.21240000E-04
		-1.26850000E-03	-2.22698000E-03	 2.31493000E-03
		-1.49773000E-03	-2.54401000E-04	 2.08589000E-03
		 0.00000000E+00	 0.00000000E+00	 0.00000000E+00
		 0.00000000E+00	 0.00000000E+00	 0.00000000E+00
		-9.19317000E-05	-3.28364000E-03	 2.06992000E-04
		-2.13835000E-03	-3.57737000E-03	 4.00351000E-03
		 0.00000000E+00	 0.00000000E+00	 0.00000000E+00
		-2.35171000E-05	-9.92454000E-04	 7.96654000E-05
		-9.73268000E-04	-4.27142000E-03	 2.10769000E-03
		-9.00107000E-04	-1.36191000E-03	 1.98795000E-03
		 0.00000000E+00	 0.00000000E+00	 0.00000000E+00
		 2.20279000E-03	-2.35394000E-03	-3.69865000E-03
		 0.00000000E+00	 0.00000000E+00	 0.00000000E+00
		 1.72472000E-03	-4.41880000E-03	-3.82145000E-03
		 0.00000000E+00	 0.00000000E+00	 0.00000000E+00
		 1.38995000E-03	-1.59760000E-04	-1.83516000E-03
		 1.04745000E-03	-2.16956000E-03	-1.83165000E-03
		 0.00000000E+00	 0.00000000E+00	 0.00000000E+00
		 1.96066000E-03	-3.47196000E-03	-3.60160000E-03
		 0.00000000E+00	 0.00000000E+00	 0.00000000E+00
		 8.62726000E-04	-1.28865000E-03	-1.81928000E-03
		 8.20883000E-04	-4.22062000E-03	-1.76500000E-03
		 0.00000000E+00	 0.00000000E+00	 0.00000000E+00
		 0.00000000E+00	 0.00000000E+00	 0.00000000E+00
		-4.73865000E-05	-5.76460000E-03	 1.05365000E-04
		-1.30776000E-03	-6.02851000E-03	 4.04043000E-03
		 0.00000000E+00	 0.00000000E+00	 0.00000000E+00
		 0.00000000E+00	 0.00000000E+00	 0.00000000E+00
		-5.99381000E-05	-5.07739000E-03	 1.39454000E-04
		-1.58988000E-03	-5.36157000E-03	 4.26867000E-03
		 0.00000000E+00	 0.00000000E+00	 0.00000000E+00
		-2.83478000E-07	-1.60836000E-03	 5.12897000E-05
		-6.81499000E-04	-5.80206000E-03	 1.84728000E-03
		-2.46091000E-04	-1.92855000E-03	 2.01680000E-03
		 0.00000000E+00	 0.00000000E+00	 0.00000000E+00
		 1.21650000E-03	-5.93916000E-03	-3.83552000E-03
		 0.00000000E+00	 0.00000000E+00	 0.00000000E+00
		 1.47424000E-03	-5.26990000E-03	-3.99831000E-03
		 0.00000000E+00	 0.00000000E+00	 0.00000000E+00
		 2.53705000E-04	-1.87356000E-03	-1.90623000E-03
		 5.87189000E-04	-5.75974000E-03	-1.63966000E-03
		-2.44947000E-04	-1.23894000E-02	 3.84038000E-04
		-4.04712000E-03	-1.25441000E-02	 6.84965000E-03
		-2.05000000E-04	-1.60939000E-02	 2.76481000E-04
		-3.82477000E-03	-1.62535000E-02	 6.78354000E-03
		-1.77991000E-04	-6.55387000E-03	 3.30315000E-04
		-2.14342000E-03	-1.24495000E-02	 3.62506000E-03
		-3.29032000E-03	-6.79854000E-03	 5.82053000E-03
		-2.25509000E-04	-1.42572000E-02	 3.28584000E-04
		-3.93638000E-03	-1.44149000E-02	 6.72347000E-03
		-1.41302000E-04	-9.46721000E-03	 2.36450000E-04
		-2.00996000E-03	-1.61553000E-02	 3.44405000E-03
		-2.86654000E-03	-9.71785000E-03	 5.77057000E-03
		 3.55837000E-03	-1.23824000E-02	-6.08864000E-03
		 3.40833000E-03	-1.60981000E-02	-6.23547000E-03
		 2.93521000E-03	-6.66039000E-03	-5.17192000E-03
		 1.65351000E-03	-1.23684000E-02	-2.85887000E-03
		 3.48507000E-03	-1.42631000E-02	-6.07048000E-03
		 2.58567000E-03	-9.58819000E-03	-5.30813000E-03
		 1.60293000E-03	-1.60800000E-02	-2.88928000E-03
		-1.71501000E-04	-1.96214000E-02	 1.68047000E-04
		-3.59570000E-03	-1.97677000E-02	 6.63250000E-03
		-1.88208000E-04	-1.78727000E-02	 2.24589000E-04
		-3.70976000E-03	-1.80577000E-02	 6.85282000E-03
		-1.10049000E-04	-1.20074000E-02	 1.44592000E-04
		-1.88945000E-03	-1.96724000E-02	 3.17673000E-03
		-2.45753000E-03	-1.22525000E-02	 5.63696000E-03
		 3.27477000E-03	-1.96300000E-02	-6.30167000E-03
		 3.34179000E-03	-1.78798000E-02	-6.41148000E-03
		 2.24916000E-03	-1.21366000E-02	-5.35429000E-03
		 1.55281000E-03	-1.96089000E-02	-2.83761000E-03
		-3.48650000E-04	-2.53159000E-02	 4.22520000E-04
		-5.35857000E-03	-2.52674000E-02	 6.82590000E-03
		-3.05553000E-04	-3.03656000E-02	 3.27205000E-04
		-5.45147000E-03	-3.04325000E-02	 6.75553000E-03
		-3.01605000E-04	-1.88692000E-02	 4.12485000E-04
		-2.84924000E-03	-2.53132000E-02	 3.65083000E-03
		-4.73540000E-03	-1.89461000E-02	 7.11874000E-03
		-3.25995000E-04	-2.78225000E-02	 3.79094000E-04
		-5.40876000E-03	-2.78443000E-02	 6.70224000E-03
		-2.61442000E-04	-2.32942000E-02	 3.03354000E-04
		-2.90245000E-03	-3.04267000E-02	 3.46615000E-03
		-4.69337000E-03	-2.33875000E-02	 7.05030000E-03
		 4.61510000E-03	-2.51538000E-02	-5.96405000E-03
		 4.83130000E-03	-3.02128000E-02	-6.11832000E-03
		 4.12049000E-03	-1.87854000E-02	-6.29440000E-03
		 2.13692000E-03	-2.52581000E-02	-2.79396000E-03
		 4.72162000E-03	-2.76578000E-02	-5.95601000E-03
		 4.16805000E-03	-2.32049000E-02	-6.44540000E-03
		 2.26541000E-03	-3.03187000E-02	-2.83161000E-03
		-2.64983000E-04	-3.55818000E-02	 2.22812000E-04
		-5.65227000E-03	-3.57840000E-02	 6.62285000E-03
		-2.85484000E-04	-3.29665000E-02	 2.73847000E-04
		-5.55507000E-03	-3.29687000E-02	 6.81644000E-03
		-2.13928000E-04	-2.77230000E-02	 1.89397000E-04
		-2.92370000E-03	-3.57139000E-02	 3.21741000E-03
		-4.69034000E-03	-2.78535000E-02	 6.89788000E-03
		 5.07498000E-03	-3.54641000E-02	-6.22122000E-03
		 4.95247000E-03	-3.28076000E-02	-6.28651000E-03
		 4.22065000E-03	-2.76365000E-02	-6.52342000E-03
		 2.39413000E-03	-3.55610000E-02	-2.81644000E-03
		-3.57549000E-04	-3.59383000E-02	 4.26707000E-04
		-6.27177000E-03	-3.57207000E-02	 4.92600000E-03
		-3.15949000E-04	-4.20685000E-02	 3.87935000E-04
		-6.69396000E-03	-4.23206000E-02	 4.88514000E-03
		-3.98282000E-04	-3.11212000E-02	 4.26643000E-04
		-3.31368000E-03	-3.58744000E-02	 2.72173000E-03
		-5.89176000E-03	-3.10767000E-02	 5.99596000E-03
		-3.36441000E-04	-3.89240000E-02	 4.07879000E-04
		-6.47400000E-03	-3.88878000E-02	 4.86907000E-03
		-3.60900000E-04	-3.67913000E-02	 3.10928000E-04
		-3.38086000E-03	-4.22251000E-02	 2.64496000E-03
		-6.18681000E-03	-3.67012000E-02	 5.97535000E-03
		 5.37779000E-03	-3.57162000E-02	-4.07190000E-03
		 5.75472000E-03	-4.16861000E-02	-4.10705000E-03
		 5.06068000E-03	-3.09194000E-02	-5.13871000E-03
		 2.51051000E-03	-3.58776000E-02	-1.86742000E-03
		 5.56906000E-03	-3.86519000E-02	-4.05285000E-03
		 5.39034000E-03	-3.65429000E-02	-5.24734000E-03
		 2.70888000E-03	-4.19007000E-02	-1.86900000E-03
		-4.06137000E-04	-4.85713000E-02	 3.44183000E-04
		-6.98756000E-03	-4.92007000E-02	 4.84553000E-03
		-3.60452000E-04	-4.52375000E-02	 3.66480000E-04
		-6.83998000E-03	-4.61971000E-02	 4.89690000E-03
		-3.42354000E-04	-4.27508000E-02	 1.61678000E-04
		-3.81024000E-03	-4.89029000E-02	 2.57068000E-03
		-6.33545000E-03	-4.25634000E-02	 5.86422000E-03
		 6.16564000E-03	-4.80317000E-02	-4.15295000E-03