<?xml version="1.0"?>
<VTKFile type="UnstructuredGrid" version="0.1" byte_order="LittleEndian">
	<UnstructuredGrid>
		<Piece NumberOfPoints="522" NumberOfCells="64">
			<Points>
				<DataArray type="Float64" NumberOfComponents="3" format="ascii">
					 1.00000000E+00	 1.00000000E+00	-5.96046000E-08
					 1.00000000E+00	 5.00000000E-01	-5.96046000E-08
					 1.00000000E+00	 5.00000000E-01	 1.00000000E+00
					 1.00000000E+00	 1.00000000E+00	 1.00000000E+00
					 5.00000000E-01	 1.00000000E+00	-5.96046000E-08
					 5.00000000E-01	 5.00000000E-01	-5.96046000E-08
					 5.00000000E-01	 5.00000000E-01	 1.00000000E+00
					 5.00000000E-01	 1.00000000E+00	 1.00000000E+00
					 1.00000000E+00	 7.50000000E-01	-5.96046000E-08
					 1.00000000E+00	 5.00000000E-01	 5.00000000E-01
					 1.00000000E+00	 7.50000000E-01	 1.00000000E+00
					 1.00000000E+00	 1.00000000E+00	 5.00000000E-01
					 7.50000000E-01	 1.00000000E+00	-5.96046000E-08
					 7.50000000E-01	 5.00000000E-01	-5.96046000E-08
					 7.50000000E-01	 5.00000000E-01	 1.00000000E+00
					 7.50000000E-01	 1.00000000E+00	 1.00000000E+00
					 5.00000000E-01	 7.50000000E-01	-5.96046000E-08
					 5.00000000E-01	 5.00000000E-01	 5.00000000E-01
					 5.00000000E-01	 7.50000000E-01	 1.00000000E+00
					 5.00000000E-01	 1.00000000E+00	 5.00000000E-01
					 1.00000000E+00	-1.49012000E-08	-5.96046000E-08
					 1.00000000E+00	-1.49012000E-08	 1.00000000E+00
					 5.00000000E-01	-1.49012000E-08	-5.96046000E-08
					 5.00000000E-01	-1.49012000E-08	 1.00000000E+00
					 1.00000000E+00	 2.50000000E-01	-5.96046000E-08
					 1.00000000E+00	-1.49012000E-08	 5.00000000E-01
					 1.00000000E+00	 2.50000000E-01	 1.00000000E+00
					 7.50000000E-01	-1.49012000E-08	-5.96046000E-08
					 7.50000000E-01	-1.49012000E-08	 1.00000000E+00
					 5.00000000E-01	 2.50000000E-01	-5.96046000E-08
					 5.00000000E-01	-1.49012000E-08	 5.00000000E-01
					 5.00000000E-01	 2.50000000E-01	 1.00000000E+00
					-7.45058000E-09	 1.00000000E+00	-5.96046000E-08
					-7.45058000E-09	 5.00000000E-01	-5.96046000E-08
					-7.45058000E-09	 5.00000000E-01	 1.00000000E+00
					-7.45058000E-09	 1.00000000E+00	 1.00000000E+00
					 2.50000000E-01	 1.00000000E+00	-5.96046000E-08
					 2.50000000E-01	 5.00000000E-01	-5.96046000E-08
					 2.50000000E-01	 5.00000000E-01	 1.00000000E+00
					 2.50000000E-01	 1.00000000E+00	 1.00000000E+00
					-7.45058000E-09	 7.50000000E-01	-5.96046000E-08
					-7.45058000E-09	 5.00000000E-01	 5.00000000E-01
					-7.45058000E-09	 7.50000000E-01	 1.00000000E+00
					-7.45058000E-09	 1.00000000E+00	 5.00000000E-01
					-7.45058000E-09	-1.49012000E-08	-5.96046000E-08
					-7.45058000E-09	-1.49012000E-08	 1.00000000E+00
					 2.50000000E-01	-1.49012000E-08	-5.96046000E-08
					 2.50000000E-01	-1.49012000E-08	 1.00000000E+00
					-7.45058000E-09	 2.50000000E-01	-5.96046000E-08
					-7.45058000E-09	-1.49012000E-08	 5.00000000E-01
					-7.45058000E-09	 2.50000000E-01	 1.00000000E+00
					 1.00000000E+00	 5.00000000E-01	 2.00000000E+00
					 1.00000000E+00	 1.00000000E+00	 2.00000000E+00
					 5.00000000E-01	 5.00000000E-01	 2.00000000E+00
					 5.00000000E-01	 1.00000000E+00	 2.00000000E+00
					 1.00000000E+00	 5.00000000E-01	 1.50000000E+00
					 1.00000000E+00	 7.50000000E-01	 2.00000000E+00
					 1.00000000E+00	 1.00000000E+00	 1.50000000E+00
					 7.50000000E-01	 5.00000000E-01	 2.00000000E+00
					 7.50000000E-01	 1.00000000E+00	 2.00000000E+00
					 5.00000000E-01	 5.00000000E-01	 1.50000000E+00
					 5.00000000E-01	 7.50000000E-01	 2.00000000E+00
					 5.00000000E-01	 1.00000000E+00	 1.50000000E+00
					 1.00000000E+00	-1.49012000E-08	 2.00000000E+00
					 5.00000000E-01	-1.49012000E-08	 2.00000000E+00
					 1.00000000E+00	-1.49012000E-08	 1.50000000E+00
					 1.00000000E+00	 2.50000000E-01	 2.00000000E+00
					 7.50000000E-01	-1.49012000E-08	 2.00000000E+00
					 5.00000000E-01	-1.49012000E-08	 1.50000000E+00
					 5.00000000E-01	 2.50000000E-01	 2.00000000E+00
					-7.45058000E-09	 5.00000000E-01	 2.00000000E+00
					-7.45058000E-09	 1.00000000E+00	 2.00000000E+00
					 2.50000000E-01	 5.00000000E-01	 2.00000000E+00
					 2.50000000E-01	 1.00000000E+00	 2.00000000E+00
					-7.45058000E-09	 5.00000000E-01	 1.50000000E+00
					-7.45058000E-09	 7.50000000E-01	 2.00000000E+00
					-7.45058000E-09	 1.00000000E+00	 1.50000000E+00
					-7.45058000E-09	-1.49012000E-08	 2.00000000E+00
					 2.50000000E-01	-1.49012000E-08	 2.00000000E+00
					-7.45058000E-09	-1.49012000E-08	 1.50000000E+00
					-7.45058000E-09	 2.50000000E-01	 2.00000000E+00
					 1.00000000E+00	 5.00000000E-01	 3.00000000E+00
					 1.00000000E+00	 1.00000000E+00	 3.00000000E+00
					 5.00000000E-01	 5.00000000E-01	 3.00000000E+00
					 5.00000000E-01	 1.00000000E+00	 3.00000000E+00
					 1.00000000E+00	 5.00000000E-01	 2.50000000E+00
					 1.00000000E+00	 7.50000000E-01	 3.00000000E+00
					 1.00000000E+00	 1.00000000E+00	 2.50000000E+00
					 7.50000000E-01	 5.00000000E-01	 3.00000000E+00
					 7.50000000E-01	 1.00000000E+00	 3.00000000E+00
					 5.00000000E-01	 5.00000000E-01	 2.50000000E+00
					 5.00000000E-01	 7.50000000E-01	 3.00000000E+00
					 5.00000000E-01	 1.00000000E+00	 2.50000000E+00
					 1.00000000E+00	-1.49012000E-08	 3.00000000E+00
					 5.00000000E-01	-1.49012000E-08	 3.00000000E+00
					 1.00000000E+00	-1.49012000E-08	 2.50000000E+00
					 1.00000000E+00	 2.50000000E-01	 3.00000000E+00
					 7.50000000E-01	-1.49012000E-08	 3.00000000E+00
					 5.00000000E-01	-1.49012000E-08	 2.50000000E+00
					 5.00000000E-01	 2.50000000E-01	 3.00000000E+00
					-7.45058000E-09	 5.00000000E-01	 3.00000000E+00
					-7.45058000E-09	 1.00000000E+00	 3.00000000E+00
					 2.50000000E-01	 5.00000000E-01	 3.00000000E+00
					 2.50000000E-01	 1.00000000E+00	 3.00000000E+00
					-7.45058000E-09	 5.00000000E-01	 2.50000000E+00
					-7.45058000E-09	 7.50000000E-01	 3.00000000E+00
					-7.45058000E-09	 1.00000000E+00	 2.50000000E+00
					-7.45058000E-09	-1.49012000E-08	 3.00000000E+00
					 2.50000000E-01	-1.49012000E-08	 3.00000000E+00
					-7.45058000E-09	-1.49012000E-08	 2.50000000E+00
					-7.45058000E-09	 2.50000000E-01	 3.00000000E+00
					 1.00000000E+00	 5.00000000E-01	 4.00000000E+00
					 1.00000000E+00	 1.00000000E+00	 4.00000000E+00
					 5.00000000E-01	 5.00000000E-01	 4.00000000E+00
					 5.00000000E-01	 1.00000000E+00	 4.00000000E+00
					 1.00000000E+00	 5.00000000E-01	 3.50000000E+00
					 1.00000000E+00	 7.50000000E-01	 4.00000000E+00
					 1.00000000E+00	 1.00000000E+00	 3.50000000E+00
					 7.50000000E-01	 5.00000000E-01	 4.00000000E+00
					 7.50000000E-01	 1.00000000E+00	 4.00000000E+00
					 5.00000000E-01	 5.00000000E-01	 3.50000000E+00
					 5.00000000E-01	 7.50000000E-01	 4.00000000E+00
					 5.00000000E-01	 1.00000000E+00	 3.50000000E+00
					 1.00000000E+00	-1.49012000E-08	 4.00000000E+00
					 5.00000000E-01	-1.49012000E-08	 4.00000000E+00
					 1.00000000E+00	-1.49012000E-08	 3.50000000E+00
					 1.00000000E+00	 2.50000000E-01	 4.00000000E+00
					 7.50000000E-01	-1.49012000E-08	 4.00000000E+00
					 5.00000000E-01	-1.49012000E-08	 3.50000000E+00
					 5.00000000E-01	 2.50000000E-01	 4.00000000E+00
					-7.45058000E-09	 5.00000000E-01	 4.00000000E+00
					-7.45058000E-09	 1.00000000E+00	 4.00000000E+00
					 2.50000000E-01	 5.00000000E-01	 4.00000000E+00
					 2.50000000E-01	 1.00000000E+00	 4.00000000E+00
					-7.45058000E-09	 5.00000000E-01	 3.50000000E+00
					-7.45058000E-09	 7.50000000E-01	 4.00000000E+00
					-7.45058000E-09	 1.00000000E+00	 3.50000000E+00
					-7.45058000E-09	-1.49012000E-08	 4.00000000E+00
					 2.50000000E-01	-1.49012000E-08	 4.00000000E+00
					-7.45058000E-09	-1.49012000E-08	 3.50000000E+00
					-7.45058000E-09	 2.50000000E-01	 4.00000000E+00
					 1.00000000E+00	 5.00000000E-01	 5.00000000E+00
					 1.00000000E+00	 1.00000000E+00	 5.00000000E+00
					 5.00000000E-01	 5.00000000E-01	 5.00000000E+00
					 5.00000000E-01	 1.00000000E+00	 5.00000000E+00
					 1.00000000E+00	 5.00000000E-01	 4.50000000E+00
					 1.00000000E+00	 7.50000000E-01	 5.00000000E+00
					 1.00000000E+00	 1.00000000E+00	 4.50000000E+00
					 7.50000000E-01	 5.00000000E-01	 5.00000000E+00
					 7.50000000E-01	 1.00000000E+00	 5.00000000E+00
					 5.00000000E-01	 5.00000000E-01	 4.50000000E+00
					 5.00000000E-01	 7.50000000E-01	 5.00000000E+00
					 5.00000000E-01	 1.00000000E+00	 4.50000000E+00
					 1.00000000E+00	-1.49012000E-08	 5.00000000E+00
					 5.00000000E-01	-1.49012000E-08	 5.00000000E+00
					 1.00000000E+00	-1.49012000E-08	 4.50000000E+00
					 1.00000000E+00	 2.50000000E-01	 5.00000000E+00
					 7.50000000E-01	-1.49012000E-08	 5.00000000E+00
					 5.00000000E-01	-1.49012000E-08	 4.50000000E+00
					 5.00000000E-01	 2.50000000E-01	 5.00000000E+00
					-7.45058000E-09	 5.00000000E-01	 5.00000000E+00
					-7.45058000E-09	 1.00000000E+00	 5.00000000E+00
					 2.50000000E-01	 5.00000000E-01	 5.00000000E+00
					 2.50000000E-01	 1.00000000E+00	 5.00000000E+00
					-7.45058000E-09	 5.00000000E-01	 4.50000000E+00
					-7.45058000E-09	 7.50000000E-01	 5.00000000E+00
					-7.45058000E-09	 1.00000000E+00	 4.50000000E+00
					-7.45058000E-09	-1.49012000E-08	 5.00000000E+00
					 2.50000000E-01	-1.49012000E-08	 5.00000000E+00
					-7.45058000E-09	-1.49012000E-08	 4.50000000E+00
					-7.45058000E-09	 2.50000000E-01	 5.00000000E+00
					 1.00000000E+00	 5.00000000E-01	 6.00000000E+00
					 1.00000000E+00	 1.00000000E+00	 6.00000000E+00
					 5.00000000E-01	 5.00000000E-01	 6.00000000E+00
					 5.00000000E-01	 1.00000000E+00	 6.00000000E+00
					 1.00000000E+00	 5.00000000E-01	 5.50000000E+00
					 1.00000000E+00	 7.50000000E-01	 6.00000000E+00
					 1.00000000E+00	 1.00000000E+00	 5.50000000E+00
					 7.50000000E-01	 5.00000000E-01	 6.00000000E+00
					 7.50000000E-01	 1.00000000E+00	 6.00000000E+00
					 5.00000000E-01	 5.00000000E-01	 5.50000000E+00
					 5.00000000E-01	 7.50000000E-01	 6.00000000E+00
					 5.00000000E-01	 1.00000000E+00	 5.50000000E+00
					 1.00000000E+00	-1.49012000E-08	 6.00000000E+00
[...]
			<PointData>
				<DataArray type="Float32" Name="U" NumberOfComponents="3" ComponentName0="D1" ComponentName1="D2" ComponentName2="D3" format="ascii">
					 0.00000000E+00	 0.00000000E+00	 0.00000000E+00
					 0.00000000E+00	 0.00000000E+00	 0.00000000E+00
					 4.30671000E-06	-3.08107000E-03	 7.47968000E-06
					-1.29143000E-03	-3.28039000E-03	 3.50682000E-03
					 0.00000000E+00	 0.00000000E+00	 0.00000000E+00
					 0.00000000E+00	 0.00000000E+00	 0.00000000E+00
					 9.88241000E-06	-4.16375000E-03	 5.02578000E-06
					-8.70427000E-04	-4.37795000E-03	 3.55546000E-03
					 0.00000000E+00	 0.00000000E+00	 0.00000000E+00
					-2.19071000E-06	-4.72381000E-04	 6.14372000E-06
					-6.44549000E-04	-3.10287000E-03	 1.76668000E-03
					-9.45603000E-04	-7.84409000E-04	 1.81922000E-03
					 0.00000000E+00	 0.00000000E+00	 0.00000000E+00
					 0.00000000E+00	 0.00000000E+00	 0.00000000E+00
					 7.19566000E-06	-3.69654000E-03	 6.32670000E-06
					-1.07695000E-03	-3.90117000E-03	 3.45757000E-03
					 0.00000000E+00	 0.00000000E+00	 0.00000000E+00
					 9.87560000E-07	-1.13344000E-03	 4.75570000E-06
					-4.28918000E-04	-4.18865000E-03	 1.71265000E-03
					-4.29420000E-04	-1.43585000E-03	 1.77402000E-03
					 0.00000000E+00	 0.00000000E+00	 0.00000000E+00
					 1.29746000E-03	-3.24887000E-03	-3.49562000E-03
					 0.00000000E+00	 0.00000000E+00	 0.00000000E+00
					 8.86488000E-04	-4.34488000E-03	-3.55054000E-03
					 0.00000000E+00	 0.00000000E+00	 0.00000000E+00
					 9.38591000E-04	-7.71220000E-04	-1.80999000E-03
					 6.52296000E-04	-3.08787000E-03	-1.75341000E-03
					 0.00000000E+00	 0.00000000E+00	 0.00000000E+00
					 1.08884000E-03	-3.86945000E-03	-3.44843000E-03
					 0.00000000E+00	 0.00000000E+00	 0.00000000E+00
					 4.27576000E-04	-1.42118000E-03	-1.76557000E-03
					 4.47278000E-04	-4.17329000E-03	-1.70426000E-03
					 0.00000000E+00	 0.00000000E+00	 0.00000000E+00
					 0.00000000E+00	 0.00000000E+00	 0.00000000E+00
					 1.29824000E-05	-4.83884000E-03	 6.67824000E-06
					-4.41375000E-04	-5.03122000E-03	 3.50671000E-03
					 0.00000000E+00	 0.00000000E+00	 0.00000000E+00
					 0.00000000E+00	 0.00000000E+00	 0.00000000E+00
					 1.20642000E-05	-4.57383000E-03	 4.42242000E-06
					-6.58420000E-04	-4.78063000E-03	 3.61809000E-03
					 0.00000000E+00	 0.00000000E+00	 0.00000000E+00
					 2.73082000E-06	-1.32941000E-03	 7.20336000E-06
					-2.15515000E-04	-4.85620000E-03	 1.60481000E-03
					 1.20513000E-04	-1.61116000E-03	 1.82298000E-03
					 0.00000000E+00	 0.00000000E+00	 0.00000000E+00
					 4.63221000E-04	-4.99391000E-03	-3.49839000E-03
					 0.00000000E+00	 0.00000000E+00	 0.00000000E+00
					 6.77335000E-04	-4.74512000E-03	-3.61540000E-03
					 0.00000000E+00	 0.00000000E+00	 0.00000000E+00
					-1.19452000E-04	-1.59052000E-03	-1.80870000E-03
					 2.40689000E-04	-4.83822000E-03	-1.59243000E-03
					 1.24710000E-05	-1.24999000E-02	-3.69347000E-06
					-1.88361000E-03	-1.26236000E-02	 5.55732000E-03
					 2.07342000E-05	-1.43083000E-02	-2.31019000E-05
					-1.69411000E-03	-1.44318000E-02	 5.56028000E-03
					 1.12589000E-05	-7.24727000E-03	 4.18358000E-06
					-9.36473000E-04	-1.25474000E-02	 2.76461000E-03
					-1.62388000E-03	-7.43368000E-03	 4.75061000E-03
					 1.67109000E-05	-1.34202000E-02	-1.38193000E-05
					-1.79013000E-03	-1.35443000E-02	 5.52241000E-03
					 1.82589000E-05	-8.72569000E-03	-5.68271000E-06
					-8.38405000E-04	-1.43570000E-02	 2.71893000E-03
					-1.30506000E-03	-8.91452000E-03	 4.77138000E-03
					 1.91395000E-03	-1.25369000E-02	-5.56516000E-03
					 1.74090000E-03	-1.43528000E-02	-5.60767000E-03
					 1.64776000E-03	-7.37326000E-03	-4.74288000E-03
					 9.62733000E-04	-1.25035000E-02	-2.77207000E-03
					 1.82913000E-03	-1.34627000E-02	-5.55038000E-03
					 1.34258000E-03	-8.85816000E-03	-4.78578000E-03
					 8.81481000E-04	-1.43186000E-02	-2.76537000E-03
					 2.79829000E-05	-1.59332000E-02	-4.05768000E-05
					-1.51728000E-03	-1.60597000E-02	 5.52110000E-03
					 2.46293000E-05	-1.51379000E-02	-3.19753000E-05
					-1.60485000E-03	-1.52606000E-02	 5.60508000E-03
					 2.31057000E-05	-9.89463000E-03	-1.20136000E-05
					-7.42417000E-04	-1.59810000E-02	 2.62851000E-03
					-1.00051000E-03	-1.00898000E-02	 4.73325000E-03
					 1.57814000E-03	-1.59886000E-02	-5.60420000E-03
					 1.65937000E-03	-1.51834000E-02	-5.67133000E-03
					 1.04789000E-03	-1.00362000E-02	-4.76244000E-03
					 7.99545000E-04	-1.59489000E-02	-2.70966000E-03
					 5.02794000E-06	-2.42223000E-02	-3.20087000E-05
					-2.35610000E-03	-2.43028000E-02	 6.17894000E-03
					 1.36876000E-05	-2.65504000E-02	-6.73194000E-05
					-2.27782000E-03	-2.66324000E-02	 6.14786000E-03
					 1.12089000E-05	-1.82452000E-02	-1.53742000E-05
					-1.17634000E-03	-2.42554000E-02	 3.10134000E-03
					-2.13233000E-03	-1.83511000E-02	 5.95514000E-03
					 9.74837000E-06	-2.53945000E-02	-4.98895000E-05
					-2.31737000E-03	-2.54757000E-02	 6.13312000E-03
					 2.00146000E-05	-2.03424000E-02	-4.34499000E-05
					-1.13306000E-03	-2.65847000E-02	 3.03860000E-03
					-2.02146000E-03	-2.04436000E-02	 5.94093000E-03
					 2.36482000E-03	-2.42040000E-02	-6.24396000E-03
					 2.30762000E-03	-2.65339000E-02	-6.28246000E-03
					 2.15803000E-03	-1.82552000E-02	-5.98788000E-03
					 1.18594000E-03	-2.42050000E-02	-3.16520000E-03
					 2.33688000E-03	-2.53771000E-02	-6.23412000E-03
					 2.06666000E-03	-2.03529000E-02	-6.02900000E-03
					 1.16121000E-03	-2.65347000E-02	-3.17315000E-03
					 2.10618000E-05	-2.88066000E-02	-1.04825000E-04
					-2.21347000E-03	-2.88946000E-02	 6.10853000E-03
					 1.71619000E-05	-2.76872000E-02	-8.52763000E-05
					-2.24546000E-03	-2.77701000E-02	 6.15872000E-03
					 2.79519000E-05	-2.23314000E-02	-7.15531000E-05
					-1.09429000E-03	-2.88430000E-02	 2.97057000E-03
					-1.92203000E-03	-2.24396000E-02	 5.90154000E-03
					 2.26167000E-03	-2.88036000E-02	-6.31730000E-03
					 2.28480000E-03	-2.76737000E-02	-6.32825000E-03
					 1.98500000E-03	-2.23582000E-02	-6.04524000E-03
					 1.13809000E-03	-2.87985000E-02	-3.18004000E-03
					-1.19439000E-05	-3.69016000E-02	-8.83944000E-05
					-2.54530000E-03	-3.69961000E-02	 6.62353000E-03
					-6.49465000E-06	-3.93778000E-02	-1.30668000E-04
					-2.43857000E-03	-3.94813000E-02	 6.57867000E-03
					-4.37134000E-06	-3.03949000E-02	-5.63621000E-05
					-1.27655000E-03	-3.69366000E-02	 3.27238000E-03
					-2.51306000E-03	-3.04792000E-02	 6.38333000E-03
					-8.01580000E-06	-3.81508000E-02	-1.09478000E-04
					-2.49141000E-03	-3.82525000E-02	 6.60564000E-03
					 2.22037000E-06	-3.28565000E-02	-9.56515000E-05
					-1.22292000E-03	-3.94184000E-02	 3.23408000E-03
					-2.42194000E-03	-3.29491000E-02	 6.34170000E-03
					 2.51374000E-03	-3.68907000E-02	-6.80375000E-03
					 2.42224000E-03	-3.93691000E-02	-6.84268000E-03
					 2.49967000E-03	-3.03770000E-02	-6.49737000E-03
					 1.25051000E-03	-3.68841000E-02	-3.44978000E-03
					 2.46857000E-03	-3.81419000E-02	-6.82843000E-03
					 2.42586000E-03	-3.28431000E-02	-6.53346000E-03
					 1.20844000E-03	-3.93606000E-02	-3.49615000E-03
					-3.48964000E-06	-4.17616000E-02	-1.71321000E-04
					-2.34358000E-03	-4.18679000E-02	 6.54193000E-03
					-5.55555000E-06	-4.05818000E-02	-1.51399000E-04
					-2.39179000E-03	-4.06858000E-02	 6.54935000E-03
					 7.18610000E-06	-3.52416000E-02	-1.37010000E-04
					-1.17329000E-03	-4.18039000E-02	 3.20541000E-03
					-2.34881000E-03	-3.53415000E-02	 6.30431000E-03
					 2.33868000E-03	-4.17584000E-02	-6.88645000E-03
					 2.38068000E-03	-4.05746000E-02	-6.85375000E-03
					 2.36715000E-03	-3.52400000E-02	-6.57805000E-03
					 1.16671000E-03	-4.17475000E-02	-3.54881000E-03
					-2.98205000E-05	-5.11461000E-02	-1.76835000E-04
					-2.42216000E-03	-5.12518000E-02	 7.24995000E-03
					-2.18981000E-05	-5.34745000E-02	-2.17476000E-04
					-2.30220000E-03	-5.35902000E-02	 7.21217000E-03
					-2.07266000E-05	-4.38058000E-02	-1.27608000E-04
					-1.22392000E-03	-5.11832000E-02	 3.51330000E-03
					-2.50375000E-03	-4.39076000E-02	 6.93261000E-03
					-2.55201000E-05	-5.23243000E-02	-1.97469000E-04
					-2.36272000E-03	-5.24369000E-02	 7.24814000E-03
					-1.39005000E-05	-4.62264000E-02	-1.71768000E-04
					-1.16168000E-03	-5.35175000E-02	 3.49082000E-03
					-2.38468000E-03	-4.63362000E-02	 6.88664000E-03
					 2.35424000E-03	-5.11353000E-02	-7.60554000E-03
					 2.25101000E-03	-5.34640000E-02	-7.64960000E-03
					 2.45241000E-03	-4.37987000E-02	-7.19253000E-03
					 1.16190000E-03	-5.11273000E-02	-3.86784000E-03
					 2.30306000E-03	-5.23141000E-02	-7.64455000E-03
					 2.35040000E-03	-4.62177000E-02	-7.23371000E-03
					 1.11512000E-03	-5.34545000E-02	-3.92637000E-03
					-1.56088000E-05	-5.56986000E-02	-2.54769000E-04
					-2.18883000E-03	-5.58176000E-02	 7.17012000E-03
					-1.85702000E-05	-5.46008000E-02	-2.36706000E-04
					-2.24496000E-03	-5.47183000E-02	 7.17853000E-03
					-9.78084000E-06	-4.85409000E-02	-2.11590000E-04
					-1.10253000E-03	-5.57444000E-02	 3.46341000E-03
					-2.27053000E-03	-4.86508000E-02	 6.84964000E-03
					 2.15283000E-03	-5.56854000E-02	-7.68258000E-03
					 2.20162000E-03	-5.45897000E-02	-7.65466000E-03
					 2.24936000E-03	-4.85309000E-02	-7.27510000E-03
					 1.06985000E-03	-5.56768000E-02	-3.97396000E-03
					-2.89293000E-05	-6.71446000E-02	-2.91508000E-04
					-1.99242000E-03	-6.72244000E-02	 7.60071000E-03
					-2.15766000E-05	-6.90940000E-02	-3.22965000E-04
					-1.96203000E-03	-6.91736000E-02	 7.57685000E-03
					-3.11307000E-05	-5.89718000E-02	-2.33752000E-04
					-1.01116000E-03	-6.71814000E-02	 3.59856000E-03
					-2.25069000E-03	-5.90654000E-02	 7.49155000E-03
					-2.56270000E-05	-6.81217000E-02	-3.07313000E-04
					-1.97685000E-03	-6.82026000E-02	 7.62947000E-03
					-2.34811000E-05	-6.11481000E-02	-2.68238000E-04
					-9.93487000E-04	-6.91310000E-02	 3.61062000E-03
					-2.16774000E-03	-6.12482000E-02	 7.46558000E-03
					 1.94011000E-03	-6.70824000E-02	-8.18420000E-03
					 1.92041000E-03	-6.90379000E-02	-8.22401000E-03
					 2.18733000E-03	-5.89339000E-02	-7.95791000E-03
					 9.54609000E-04	-6.71114000E-02	-4.18222000E-03
					 1.93024000E-03	-6.80635000E-02	-8.24434000E-03
					 2.11769000E-03	-6.11148000E-02	-8.00353000E-03
					 9.50705000E-04	-6.90645000E-02	-4.25696000E-03
					-1.43231000E-05	-7.10214000E-02	-3.52548000E-04
					-1.94117000E-03	-7.11072000E-02	 7.53810000E-03
					-1.76211000E-05	-7.00599000E-02	-3.37901000E-04
					-1.95276000E-03	-7.01395000E-02	 7.52722000E-03
					-1.63870000E-05	-6.32551000E-02	-3.00828000E-04
					-9.76124000E-04	-7.10624000E-02	 3.60745000E-03
					-2.09490000E-03	-6.33605000E-02	 7.41962000E-03
					 1.91015000E-03	-7.09704000E-02	-8.24521000E-03
					 1.91617000E-03	-7.00049000E-02	-8.20517000E-03
					 2.05770000E-03	-6.32226000E-02	-8.02527000E-03
					 9.46677000E-04	-7.09939000E-02	-4.31288000E-03
					-3.26233000E-05	-8.36841000E-02	-4.09891000E-04
					-1.32447000E-03	-8.37582000E-02	 7.49965000E-03
					-2.59006000E-05	-8.49744000E-02	-4.33691000E-04
					-1.31873000E-03	-8.50431000E-02	 7.48389000E-03
					-3.02448000E-05	-7.54151000E-02	-3.49300000E-04
					-6.81735000E-04	-8.37208000E-02	 3.49188000E-03
					-1.68523000E-03	-7.54877000E-02	 7.56561000E-03
					-2.98526000E-05	-8.43324000E-02	-4.21972000E-04
					-1.32209000E-03	-8.44016000E-02	 7.54562000E-03
					-2.32369000E-05	-7.70639000E-02	-3.78335000E-04
					-6.73963000E-04	-8.50083000E-02	 3.53038000E-03
					-1.67658000E-03	-7.71363000E-02	 7.54000000E-03
					 1.26154000E-03	-8.36288000E-02	-8.32620000E-03
					 1.26196000E-03	-8.49157000E-02	-8.35620000E-03
					 1.63029000E-03	-7.53491000E-02	-8.26745000E-03
					 6.16778000E-04	-8.36579000E-02	-4.31379000E-03
					 1.26209000E-03	-8.42727000E-02	-8.39633000E-03
					 1.63049000E-03	-7.70039000E-02	-8.29849000E-03
					 6.20166000E-04	-8.49450000E-02	-4.39970000E-03
					-2.07794000E-05	-8.62562000E-02	-4.57051000E-04
					-1.30470000E-03	-8.63280000E-02	 7.47297000E-03
					-2.23022000E-05	-8.56134000E-02	-4.45188000E-04
					-1.31193000E-03	-8.56831000E-02	 7.42018000E-03
					-1.66739000E-05	-7.87116000E-02	-4.05804000E-04
					-6.62750000E-04	-8.62928000E-02	 3.57511000E-03
					-1.67826000E-03	-7.87937000E-02	 7.51433000E-03
					 1.25274000E-03	-8.61895000E-02	-8.39048000E-03
					 1.25796000E-03	-8.55537000E-02	-8.31300000E-03
					 1.64167000E-03	-7.86580000E-02	-8.32657000E-03
					 6.18117000E-04	-8.62200000E-02	-4.49175000E-03
					-4.03335000E-05	-1.00074000E-01	-5.43101000E-04
					-8.03454000E-04	-1.00147000E-01	 7.40591000E-03
					-3.06131000E-05	-1.00898000E-01	-5.58045000E-04
					-8.19779000E-04	-1.00955000E-01	 7.42977000E-03
					-3.57854000E-05	-9.19566000E-02	-4.74939000E-04
					-4.15872000E-04	-1.00106000E-01	 3.40812000E-03
					-9.85299000E-04	-9.20205000E-02	 7.45660000E-03
					-3.62440000E-05	-1.00480000E-01	-5.51129000E-04
					-8.12853000E-04	-1.00548000E-01	 7.43291000E-03
					-2.85582000E-05	-9.29099000E-02	-4.92933000E-04
					-4.16466000E-04	-1.00923000E-01	 3.43304000E-03
					-9.80326000E-04	-9.29719000E-02	 7.46368000E-03
					 7.26531000E-04	-1.00040000E-01	-8.50097000E-03
					 7.45461000E-04	-1.00849000E-01	-8.55728000E-03
					 9.15943000E-04	-9.19015000E-02	-8.41732000E-03
					 3.36206000E-04	-1.00058000E-01	-4.49692000E-03
					 7.37414000E-04	-1.00443000E-01	-8.54464000E-03
					 9.13046000E-04	-9.28523000E-02	-8.45982000E-03
					 3.50015000E-04	-1.00875000E-01	-4.55237000E-03
					-2.37211000E-05	-1.01705000E-01	-5.69074000E-04
					-7.84683000E-04	-1.01758000E-01	 7.44719000E-03
					-2.55081000E-05	-1.01310000E-01	-5.64025000E-04
					-8.00621000E-04	-1.01363000E-01	 7.42712000E-03
					-2.39547000E-05	-9.38466000E-02	-5.09648000E-04
					-3.99148000E-04	-1.01730000E-01	 3.45379000E-03
					-9.53668000E-04	-9.39153000E-02	 7.47127000E-03
					 7.08479000E-04	-1.01626000E-01	-8.60080000E-03
					 7.25573000E-04	-1.01249000E-01	-8.56856000E-03
					 8.84037000E-04	-9.37734000E-02	-8.50051000E-03
					 3.43247000E-04	-1.01663000E-01	-4.59702000E-03
					 0.00000000E+00	 0.00000000E+00	 0.00000000E+00
					 0.00000000E+00	 0.00000000E+00	 0.00000000E+00
					-1.50911000E-05	-6.92071000E-03	-3.47177000E-05
					-1.08795000E-03	-7.29870000E-03	 6.32147000E-03
					 0.00000000E+00	 0.00000000E+00	 0.00000000E+00
					 0.00000000E+00	 0.00000000E+00	 0.00000000E+00
					-1.62045000E-05	-7.59290000E-03	-4.50879000E-05
					-3.07198000E-04	-8.00403000E-03	 6.39116000E-03
					 0.00000000E+00	 0.00000000E+00	 0.00000000E+00
					-6.07399000E-06	-1.60190000E-03	-2.76414000E-06
					-5.52473000E-04	-6.96694000E-03	 3.07778000E-03
					-1.10476000E-03	-2.15569000E-03	 3.29670000E-03
					 0.00000000E+00	 0.00000000E+00	 0.00000000E+00
					 0.00000000E+00	 0.00000000E+00	 0.00000000E+00
					-1.55284000E-05	-7.39260000E-03	-4.20831000E-05
					-6.91699000E-04	-7.78674000E-03	 6.33302000E-03
					 0.00000000E+00	 0.00000000E+00	 0.00000000E+00
					-8.46764000E-06	-2.16356000E-03	-1.19125000E-05
					-1.62276000E-04	-7.65068000E-03	 3.07993000E-03
					-1.47816000E-04	-2.72118000E-03	 3.20544000E-03
					 0.00000000E+00	 0.00000000E+00	 0.00000000E+00
					 1.04772000E-03	-7.21765000E-03	-6.40568000E-03
					 0.00000000E+00	 0.00000000E+00	 0.00000000E+00
					 2.68689000E-04	-7.91252000E-03	-6.49764000E-03
					 0.00000000E+00	 0.00000000E+00	 0.00000000E+00
					 1.08689000E-03	-2.12511000E-03	-3.31046000E-03
					 5.18739000E-04	-6.92808000E-03	-3.15115000E-03
					 0.00000000E+00	 0.00000000E+00	 0.00000000E+00
					 6.53237000E-04	-7.69887000E-03	-6.43308000E-03
					 0.00000000E+00	 0.00000000E+00	 0.00000000E+00
					 1.27132000E-04	-2.69046000E-03	-3.23430000E-03
					 1.26293000E-04	-7.60596000E-03	-3.17581000E-03
					 0.00000000E+00	 0.00000000E+00	 0.00000000E+00
					 0.00000000E+00	 0.00000000E+00	 0.00000000E+00
					-1.73329000E-05	-7.49502000E-03	-4.56515000E-05
					 4.76904000E-04	-7.88117000E-03	 6.31074000E-03
					 0.00000000E+00	 0.00000000E+00	 0.00000000E+00
					 0.00000000E+00	 0.00000000E+00	 0.00000000E+00
					-1.61663000E-05	-7.67964000E-03	-4.63387000E-05
					 7.92209000E-05	-8.07231000E-03	 6.38232000E-03
					 0.00000000E+00	 0.00000000E+00	 0.00000000E+00
					-1.27270000E-05	-1.87620000E-03	-1.38539000E-05
					 2.32052000E-04	-7.54646000E-03	 3.01142000E-03
					 8.16450000E-04	-2.42382000E-03	 3.28652000E-03
					 0.00000000E+00	 0.00000000E+00	 0.00000000E+00
					-5.16677000E-04	-7.77881000E-03	-6.41569000E-03
					 0.00000000E+00	 0.00000000E+00	 0.00000000E+00
					-1.19508000E-04	-7.98057000E-03	-6.48973000E-03
					 0.00000000E+00	 0.00000000E+00	 0.00000000E+00
					-8.45229000E-04	-2.38584000E-03	-3.31927000E-03
					-2.67211000E-04	-7.49563000E-03	-3.10760000E-03
					-6.25197000E-06	-2.51588000E-02	-2.46654000E-04
					-1.22329000E-03	-2.55263000E-02	 1.06508000E-02
					-1.38199000E-05	-2.61082000E-02	-2.39950000E-04
					-7.11901000E-04	-2.64810000E-02	 1.06943000E-02
					-1.59892000E-05	-1.48882000E-02	-1.13683000E-04
					-6.14699000E-04	-2.52853000E-02	 5.15121000E-03
					-1.15589000E-03	-1.53207000E-02	 8.75725000E-03
					-1.13070000E-05	-2.56906000E-02	-2.47115000E-04
					-9.67379000E-04	-2.60579000E-02	 1.06554000E-02
					-2.20212000E-05	-1.56919000E-02	-1.18746000E-04
					-3.55808000E-04	-2.62353000E-02	 5.16197000E-03
					-4.90591000E-04	-1.61227000E-02	 8.78574000E-03
					 1.20913000E-03	-2.52942000E-02	-1.11609000E-02
					 6.77362000E-04	-2.62467000E-02	-1.11896000E-02
					 1.11668000E-03	-1.51675000E-02	-9.00191000E-03
					 6.01447000E-04	-2.51697000E-02	-5.64868000E-03
					 9.43109000E-04	-2.58300000E-02	-1.11633000E-02
					 4.41948000E-04	-1.59634000E-02	-9.04159000E-03
					 3.31661000E-04	-2.61207000E-02	-5.64262000E-03
					-1.85832000E-05	-2.65507000E-02	-2.22478000E-04
					-1.63914000E-04	-2.68971000E-02	 1.06723000E-02
					-1.75170000E-05	-2.63833000E-02	-2.29982000E-04
					-4.38145000E-04	-2.67791000E-02	 1.07371000E-02
					-2.51943000E-05	-1.58235000E-02	-1.13939000E-04
					-9.98437000E-05	-2.66605000E-02	 5.10857000E-03
					 1.90257000E-04	-1.62484000E-02	 8.75479000E-03
					 1.49106000E-04	-2.66730000E-02	-1.11327000E-02
					 4.11797000E-04	-2.65195000E-02	-1.12160000E-02
					-2.33131000E-04	-1.60894000E-02	-9.00014000E-03
					 6.92068000E-05	-2.65536000E-02	-5.55263000E-03
					 1.13762000E-04	-5.04763000E-02	-6.64468000E-04
					-1.34124000E-03	-5.06335000E-02	 1.23859000E-02
					 1.06475000E-04	-5.18468000E-02	-5.92282000E-04
					-1.23725000E-03	-5.21231000E-02	 1.25064000E-02
					 3.49505000E-05	-3.72461000E-02	-4.34709000E-04
					-6.07240000E-04	-5.05379000E-02	 5.78446000E-03
					-1.27914000E-03	-3.75390000E-02	 1.18822000E-02
					 1.10439000E-04	-5.11782000E-02	-6.25147000E-04
					-1.29263000E-03	-5.14075000E-02	 1.24102000E-02
					 2.58006000E-05	-3.83875000E-02	-4.02793000E-04
					-5.87457000E-04	-5.19721000E-02	 5.82968000E-03
					-9.60458000E-04	-3.86990000E-02	 1.19655000E-02
					 1.51734000E-03	-5.03680000E-02	-1.36999000E-02
					 1.43834000E-03	-5.17378000E-02	-1.37091000E-02
					 1.33429000E-03	-3.72610000E-02	-1.27629000E-02
					 8.18627000E-04	-5.04120000E-02	-7.10180000E-03
					 1.47429000E-03	-5.10616000E-02	-1.36743000E-02
					 1.00918000E-03	-3.83889000E-02	-1.27819000E-02
					 7.74380000E-04	-5.17867000E-02	-7.03378000E-03
					 1.02604000E-04	-5.31420000E-02	-5.21646000E-04
					-1.21476000E-03	-5.35372000E-02	 1.25241000E-02
					 1.03363000E-04	-5.25203000E-02	-5.59126000E-04
					-1.22960000E-03	-5.27304000E-02	 1.26169000E-02
					 3.18457000E-05	-3.92138000E-02	-3.63126000E-04
					-5.25353000E-04	-5.33297000E-02	 5.77198000E-03
					-6.52731000E-04	-3.95469000E-02	 1.19558000E-02
					 1.37008000E-03	-5.30480000E-02	-1.36112000E-02
					 1.40324000E-03	-5.23992000E-02	-1.37535000E-02
					 6.74903000E-04	-3.91985000E-02	-1.26936000E-02
					 7.30475000E-04	-5.30996000E-02	-6.85877000E-03
					 4.55105000E-04	-7.65529000E-02	-1.11933000E-03
					-1.48713000E-03	-7.63944000E-02	 1.07857000E-02