<?xml version="1.0"?>
<VTKFile type="UnstructuredGrid" version="0.1" byte_order="LittleEndian">
	<UnstructuredGrid>
		<Piece NumberOfPoints="522" NumberOfCells="64">
			<Points>
				<DataArray type="Float64" NumberOfComponents="3" format="ascii">
					 1.00000000E+00	 1.00000000E+00	-5.96046000E-08
					 1.00000000E+00	 5.00000000E-01	-5.96046000E-08
					 1.00000000E+00	 5.00000000E-01	 1.00000000E+00
					 1.00000000E+00	 1.00000000E+00	 1.00000000E+00
					 5.00000000E-01	 1.00000000E+00	-5.96046000E-08
					 5.00000000E-01	 5.00000000E-01	-5.96046000E-08
					 5.00000000E-01	 5.00000000E-01	 1.00000000E+00
					 5.00000000E-01	 1.00000000E+00	 1.00000000E+00
					 1.00000000E+00	 7.50000000E-01	-5.96046000E-08
					 1.00000000E+00	 5.00000000E-01	 5.00000000E-01
					 1.00000000E+00	 7.50000000E-01	 1.00000000E+00
					 1.00000000E+00	 1.00000000E+00	 5.00000000E-01
					 7.50000000E-01	 1.00000000E+00	-5.96046000E-08
					 7.50000000E-01	 5.00000000E-01	-5.96046000E-08
					 7.50000000E-01	 5.00000000E-01	 1.00000000E+00
					 7.50000000E-01	 1.00000000E+00	 1.00000000E+00
					 5.00000000E-01	 7.50000000E-01	-5.96046000E-08
					 5.00000000E-01	 5.00000000E-01	 5.00000000E-01
					 5.00000000E-01	 7.50000000E-01	 1.00000000E+00
					 5.00000000E-01	 1.00000000E+00	 5.00000000E-01
					 1.00000000E+00	-1.49012000E-08	-5.96046000E-08
					 1.00000000E+00	-1.49012000E-08	 1.00000000E+00
					 5.00000000E-01	-1.49012000E-08	-5.96046000E-08
					 5.00000000E-01	-1.49012000E-08	 1.00000000E+00
					 1.00000000E+00	 2.50000000E-01	-5.96046000E-08
					 1.00000000E+00	-1.49012000E-08	 5.00000000E-01
					 1.00000000E+00	 2.50000000E-01	 1.00000000E+00
					 7.50000000E-01	-1.49012000E-08	-5.96046000E-08
					 7.50000000E-01	-1.49012000E-08	 1.00000000E+00
					 5.00000000E-01	 2.50000000E-01	-5.96046000E-08
					 5.00000000E-01	-1.49012000E-08	 5.00000000E-01
					 5.00000000E-01	 2.50000000E-01	 1.00000000E+00
					-7.45058000E-09	 1.00000000E+00	-5.96046000E-08
					-7.45058000E-09	 5.00000000E-01	-5.96046000E-08
					-7.45058000E-09	 5.00000000E-01	 1.00000000E+00
					-7.45058000E-09	 1.00000000E+00	 1.00000000E+00
					 2.50000000E-01	 1.00000000E+00	-5.96046000E-08
					 2.50000000E-01	 5.00000000E-01	-5.96046000E-08
					 2.50000000E-01	 5.00000000E-01	 1.00000000E+00
					 2.50000000E-01	 1.00000000E+00	 1.00000000E+00
					-7.45058000E-09	 7.50000000E-01	-5.96046000E-08
					-7.45058000E-09	 5.00000000E-01	 5.00000000E-01
					-7.45058000E-09	 7.50000000E-01	 1.00000000E+00
					-7.45058000E-09	 1.00000000E+00	 5.00000000E-01
					-7.45058000E-09	-1.49012000E-08	-5.96046000E-08
					-7.45058000E-09	-1.49012000E-08	 1.00000000E+00
					 2.50000000E-01	-1.49012000E-08	-5.96046000E-08
					 2.50000000E-01	-1.49012000E-08	 1.00000000E+00
					-7.45058000E-09	 2.50000000E-01	-5.96046000E-08
					-7.45058000E-09	-1.49012000E-08	 5.00000000E-01
					-7.45058000E-09	 2.50000000E-01	 1.00000000E+00
					 1.00000000E+00	 5.00000000E-01	 2.00000000E+00
					 1.00000000E+00	 1.00000000E+00	 2.00000000E+00
					 5.00000000E-01	 5.00000000E-01	 2.00000000E+00
					 5.00000000E-01	 1.00000000E+00	 2.00000000E+00
					 1.00000000E+00	 5.00000000E-01	 1.50000000E+00
					 1.00000000E+00	 7.50000000E-01	 2.00000000E+00
					 1.00000000E+00	 1.00000000E+00	 1.50000000E+00
					 7.50000000E-01	 5.00000000E-01	 2.00000000E+00
					 7.50000000E-01	 1.00000000E+00	 2.00000000E+00
					 5.00000000E-01	 5.00000000E-01	 1.50000000E+00
					 5.00000000E-01	 7.50000000E-01	 2.00000000E+00
					 5.00000000E-01	 1.00000000E+00	 1.50000000E+00
					 1.00000000E+00	-1.49012000E-08	 2.00000000E+00
					 5.00000000E-01	-1.49012000E-08	 2.00000000E+00
					 1.00000000E+00	-1.49012000E-08	 1.50000000E+00
					 1.00000000E+00	 2.50000000E-01	 2.00000000E+00
					 7.50000000E-01	-1.49012000E-08	 2.00000000E+00
					 5.00000000E-01	-1.49012000E-08	 1.50000000E+00
					 5.00000000E-01	 2.50000000E-01	 2.00000000E+00
					-7.45058000E-09	 5.00000000E-01	 2.00000000E+00
					-7.45058000E-09	 1.00000000E+00	 2.00000000E+00
					 2.50000000E-01	 5.00000000E-01	 2.00000000E+00
					 2.50000000E-01	 1.00000000E+00	 2.00000000E+00
					-7.45058000E-09	 5.00000000E-01	 1.50000000E+00
					-7.45058000E-09	 7.50000000E-01	 2.00000000E+00
					-7.45058000E-09	 1.00000000E+00	 1.50000000E+00
					-7.45058000E-09	-1.49012000E-08	 2.00000000E+00
					 2.50000000E-01	-1.49012000E-08	 2.00000000E+00
					-7.45058000E-09	-1.49012000E-08	 1.50000000E+00
					-7.45058000E-09	 2.50000000E-01	 2.00000000E+00
					 1.00000000E+00	 5.00000000E-01	 3.00000000E+00
					 1.00000000E+00	 1.00000000E+00	 3.00000000E+00
					 5.00000000E-01	 5.00000000E-01	 3.00000000E+00
					 5.00000000E-01	 1.00000000E+00	 3.00000000E+00
					 1.00000000E+00	 5.00000000E-01	 2.50000000E+00
					 1.00000000E+00	 7.50000000E-01	 3.00000000E+00
					 1.00000000E+00	 1.00000000E+00	 2.50000000E+00
					 7.50000000E-01	 5.00000000E-01	 3.00000000E+00
					 7.50000000E-01	 1.00000000E+00	 3.00000000E+00
					 5.00000000E-01	 5.00000000E-01	 2.50000000E+00
					 5.00000000E-01	 7.50000000E-01	 3.00000000E+00
					 5.00000000E-01	 1.00000000E+00	 2.50000000E+00
					 1.00000000E+00	-1.49012000E-08	 3.00000000E+00
					 5.00000000E-01	-1.49012000E-08	 3.00000000E+00
					 1.00000000E+00	-1.49012000E-08	 2.50000000E+00
					 1.00000000E+00	 2.50000000E-01	 3.00000000E+00
					 7.50000000E-01	-1.49012000E-08	 3.00000000E+00
					 5.00000000E-01	-1.49012000E-08	 2.50000000E+00
					 5.00000000E-01	 2.50000000E-01	 3.00000000E+00
					-7.45058000E-09	 5.00000000E-01	 3.00000000E+00
					-7.45058000E-09	 1.00000000E+00	 3.00000000E+00
					 2.50000000E-01	 5.00000000E-01	 3.00000000E+00
					 2.50000000E-01	 1.00000000E+00	 3.00000000E+00
					-7.45058000E-09	 5.00000000E-01	 2.50000000E+00
					-7.45058000E-09	 7.50000000E-01	 3.00000000E+00
					-7.45058000E-09	 1.00000000E+00	 2.50000000E+00
					-7.45058000E-09	-1.49012000E-08	 3.00000000E+00
					 2.50000000E-01	-1.49012000E-08	 3.00000000E+00
					-7.45058000E-09	-1.49012000E-08	 2.50000000E+00
					-7.45058000E-09	 2.50000000E-01	 3.00000000E+00
					 1.00000000E+00	 5.00000000E-01	 4.00000000E+00
					 1.00000000E+00	 1.00000000E+00	 4.00000000E+00
					 5.00000000E-01	 5.00000000E-01	 4.00000000E+00
					 5.00000000E-01	 1.00000000E+00	 4.00000000E+00
					 1.00000000E+00	 5.00000000E-01	 3.50000000E+00
					 1.00000000E+00	 7.50000000E-01	 4.00000000E+00
					 1.00000000E+00	 1.00000000E+00	 3.50000000E+00
					 7.50000000E-01	 5.00000000E-01	 4.00000000E+00
					 7.50000000E-01	 1.00000000E+00	 4.00000000E+00
					 5.00000000E-01	 5.00000000E-01	 3.50000000E+00
					 5.00000000E-01	 7.50000000E-01	 4.00000000E+00
					 5.00000000E-01	 1.00000000E+00	 3.50000000E+00
					 1.00000000E+00	-1.49012000E-08	 4.00000000E+00
					 5.00000000E-01	-1.49012000E-08	 4.00000000E+00
					 1.00000000E+00	-1.49012000E-08	 3.50000000E+00
					 1.00000000E+00	 2.50000000E-01	 4.00000000E+00
					 7.50000000E-01	-1.49012000E-08	 4.00000000E+00
					 5.00000000E-01	-1.49012000E-08	 3.50000000E+00
					 5.00000000E-01	 2.50000000E-01	 4.00000000E+00
					-7.45058000E-09	 5.00000000E-01	 4.00000000E+00
					-7.45058000E-09	 1.00000000E+00	 4.00000000E+00
					 2.50000000E-01	 5.00000000E-01	 4.00000000E+00
					 2.50000000E-01	 1.00000000E+00	 4.00000000E+00
					-7.45058000E-09	 5.00000000E-01	 3.50000000E+00
					-7.45058000E-09	 7.50000000E-01	 4.00000000E+00
					-7.45058000E-09	 1.00000000E+00	 3.50000000E+00
					-7.45058000E-09	-1.49012000E-08	 4.00000000E+00
					 2.50000000E-01	-1.49012000E-08	 4.00000000E+00
					-7.45058000E-09	-1.49012000E-08	 3.50000000E+00
					-7.45058000E-09	 2.50000000E-01	 4.00000000E+00
					 1.00000000E+00	 5.00000000E-01	 5.00000000E+00
					 1.00000000E+00	 1.00000000E+00	 5.00000000E+00
					 5.00000000E-01	 5.00000000E-01	 5.00000000E+00
					 5.00000000E-01	 1.00000000E+00	 5.00000000E+00
					 1.00000000E+00	 5.00000000E-01	 4.50000000E+00
					 1.00000000E+00	 7.50000000E-01	 5.00000000E+00
					 1.00000000E+00	 1.00000000E+00	 4.50000000E+00
					 7.50000000E-01	 5.00000000E-01	 5.00000000E+00
					 7.50000000E-01	 1.00000000E+00	 5.00000000E+00
					 5.00000000E-01	 5.00000000E-01	 4.50000000E+00
					 5.00000000E-01	 7.50000000E-01	 5.00000000E+00
					 5.00000000E-01	 1.00000000E+00	 4.50000000E+00
					 1.00000000E+00	-1.49012000E-08	 5.00000000E+00
					 5.00000000E-01	-1.49012000E-08	 5.00000000E+00
					 1.00000000E+00	-1.49012000E-08	 4.50000000E+00
					 1.00000000E+00	 2.50000000E-01	 5.00000000E+00
					 7.50000000E-01	-1.49012000E-08	 5.00000000E+00
					 5.00000000E-01	-1.49012000E-08	 4.50000000E+00
					 5.00000000E-01	 2.50000000E-01	 5.00000000E+00
					-7.45058000E-09	 5.00000000E-01	 5.00000000E+00
					-7.45058000E-09	 1.00000000E+00	 5.00000000E+00
					 2.50000000E-01	 5.00000000E-01	 5.00000000E+00
					 2.50000000E-01	 1.00000000E+00	 5.00000000E+00
					-7.45058000E-09	 5.00000000E-01	 4.50000000E+00
					-7.45058000E-09	 7.50000000E-01	 5.00000000E+00
					-7.45058000E-09	 1.00000000E+00	 4.50000000E+00
					-7.45058000E-09	-1.49012000E-08	 5.00000000E+00
					 2.50000000E-01	-1.49012000E-08	 5.00000000E+00
					-7.45058000E-09	-1.49012000E-08	 4.50000000E+00
					-7.45058000E-09	 2.50000000E-01	 5.00000000E+00
					 1.00000000E+00	 5.00000000E-01	 6.00000000E+00
					 1.00000000E+00	 1.00000000E+00	 6.00000000E+00
					 5.00000000E-01	 5.00000000E-01	 6.00000000E+00
					 5.00000000E-01	 1.00000000E+00	 6.00000000E+00
					 1.00000000E+00	 5.00000000E-01	 5.50000000E+00
					 1.00000000E+00	 7.50000000E-01	 6.00000000E+00
					 1.00000000E+00	 1.00000000E+00	 5.50000000E+00
					 7.50000000E-01	 5.00000000E-01	 6.00000000E+00
					 7.50000000E-01	 1.00000000E+00	 6.00000000E+00
					 5.00000000E-01	 5.00000000E-01	 5.50000000E+00
					 5.00000000E-01	 7.50000000E-01	 6.00000000E+00
					 5.00000000E-01	 1.00000000E+00	 5.50000000E+00
					 1.00000000E+00	-1.49012000E-08	 6.00000000E+00
[...]
			<PointData>
				<DataArray type="Float32" Name="U" NumberOfComponents="3" ComponentName0="D1" ComponentName1="D2" ComponentName2="D3" format="ascii">
					 0.00000000E+00	 0.00000000E+00	 0.00000000E+00
					 0.00000000E+00	 0.00000000E+00	 0.00000000E+00
					-1.52899000E-05	 6.93500000E-03	-9.71750000E-05
					-7.68419000E-04	 7.12125000E-03	-4.63329000E-03
					 0.00000000E+00	 0.00000000E+00	 0.00000000E+00
					 0.00000000E+00	 0.00000000E+00	 0.00000000E+00
					-2.57163000E-05	 5.93118000E-03	-9.96047000E-05
					-1.27647000E-03	 6.14122000E-03	-4.70504000E-03
					 0.00000000E+00	 0.00000000E+00	 0.00000000E+00
					 1.47499000E-06	 2.15231000E-03	-3.73407000E-05
					-3.93249000E-04	 6.93434000E-03	-2.15117000E-03
					 8.40331000E-05	 2.50586000E-03	-2.48450000E-03
					 0.00000000E+00	 0.00000000E+00	 0.00000000E+00
					 0.00000000E+00	 0.00000000E+00	 0.00000000E+00
					-2.07582000E-05	 6.52158000E-03	-1.00056000E-04
					-1.02546000E-03	 6.72166000E-03	-4.79301000E-03
					 0.00000000E+00	 0.00000000E+00	 0.00000000E+00
					-1.13789000E-05	 1.82255000E-03	-4.05988000E-05
					-6.49985000E-04	 5.93814000E-03	-2.30451000E-03
					-6.39225000E-04	 2.20910000E-03	-2.43621000E-03
					 0.00000000E+00	 0.00000000E+00	 0.00000000E+00
					 7.34312000E-04	 7.14589000E-03	 4.43346000E-03
					 0.00000000E+00	 0.00000000E+00	 0.00000000E+00
					 1.22395000E-03	 6.16875000E-03	 4.49897000E-03
					 0.00000000E+00	 0.00000000E+00	 0.00000000E+00
					-8.17643000E-05	 2.50206000E-03	 2.40271000E-03
					 3.60838000E-04	 6.94356000E-03	 1.95661000E-03
					 0.00000000E+00	 0.00000000E+00	 0.00000000E+00
					 9.82471000E-04	 6.74999000E-03	 4.58550000E-03
					 0.00000000E+00	 0.00000000E+00	 0.00000000E+00
					 6.16610000E-04	 2.20351000E-03	 2.34770000E-03
					 5.98115000E-04	 5.95084000E-03	 2.10367000E-03
					 0.00000000E+00	 0.00000000E+00	 0.00000000E+00
					 0.00000000E+00	 0.00000000E+00	 0.00000000E+00
					-3.39290000E-05	 4.43499000E-03	-9.47945000E-05
					-1.77104000E-03	 4.62966000E-03	-4.63163000E-03
					 0.00000000E+00	 0.00000000E+00	 0.00000000E+00
					 0.00000000E+00	 0.00000000E+00	 0.00000000E+00
					-2.99618000E-05	 5.27409000E-03	-9.71017000E-05
					-1.51989000E-03	 5.47347000E-03	-4.56823000E-03
					 0.00000000E+00	 0.00000000E+00	 0.00000000E+00
					-2.41349000E-05	 8.96508000E-04	-4.33030000E-05
					-9.05407000E-04	 4.43799000E-03	-2.37106000E-03
					-1.31554000E-03	 1.29729000E-03	-2.49175000E-03
					 0.00000000E+00	 0.00000000E+00	 0.00000000E+00
					 1.70501000E-03	 4.65992000E-03	 4.43583000E-03
					 0.00000000E+00	 0.00000000E+00	 0.00000000E+00
					 1.45953000E-03	 5.50158000E-03	 4.36850000E-03
					 0.00000000E+00	 0.00000000E+00	 0.00000000E+00
					 1.26885000E-03	 1.29262000E-03	 2.39630000E-03
					 8.38273000E-04	 4.45363000E-03	 2.17946000E-03
					-4.97014000E-05	 2.07600000E-02	-2.71152000E-04
					-2.03979000E-03	 2.08688000E-02	-7.49005000E-03
					-5.52728000E-05	 1.86262000E-02	-2.51669000E-04
					-2.34134000E-03	 1.87269000E-02	-7.48915000E-03
					-3.21405000E-05	 1.32620000E-02	-1.75881000E-04
					-1.04066000E-03	 2.07874000E-02	-3.78236000E-03
					-1.46770000E-03	 1.34684000E-02	-6.23733000E-03
					-5.31262000E-05	 1.97258000E-02	-2.62298000E-04
					-2.19115000E-03	 1.98250000E-02	-7.55450000E-03
					-4.03760000E-05	 1.16469000E-02	-1.68284000E-04
					-1.19927000E-03	 1.86493000E-02	-3.83653000E-03
					-1.85814000E-03	 1.18347000E-02	-6.25519000E-03
					 1.93803000E-03	 2.09592000E-02	 6.94285000E-03
					 2.22824000E-03	 1.88226000E-02	 6.98097000E-03
					 1.39986000E-03	 1.35243000E-02	 5.87782000E-03
					 9.40879000E-04	 2.08292000E-02	 3.23905000E-03
					 2.08264000E-03	 1.99201000E-02	 7.02502000E-03
					 1.77544000E-03	 1.18955000E-02	 5.91110000E-03
					 1.08832000E-03	 1.86957000E-02	 3.33206000E-03
					-5.77197000E-05	 1.61908000E-02	-2.27491000E-04
					-2.65658000E-03	 1.62772000E-02	-7.44595000E-03
					-5.67787000E-05	 1.74387000E-02	-2.39965000E-04
					-2.50070000E-03	 1.75360000E-02	-7.42080000E-03
					-4.63203000E-05	 9.62892000E-03	-1.54689000E-04
					-1.35558000E-03	 1.62038000E-02	-3.84972000E-03
					-2.26891000E-03	 9.80861000E-03	-6.21594000E-03
					 2.53799000E-03	 1.63795000E-02	 6.98666000E-03
					 2.38419000E-03	 1.76332000E-02	 6.93650000E-03
					 2.17558000E-03	 9.87341000E-03	 5.89935000E-03
					 1.23966000E-03	 1.62551000E-02	 3.39374000E-03
					-7.42072000E-05	 3.81629000E-02	-4.95615000E-04
					-2.88588000E-03	 3.81508000E-02	-9.15896000E-03
					-7.55540000E-05	 3.52995000E-02	-4.53022000E-04
					-2.99715000E-03	 3.52820000E-02	-9.14151000E-03
					-6.40154000E-05	 2.91238000E-02	-3.79358000E-04
					-1.47996000E-03	 3.81411000E-02	-4.73177000E-03
					-2.50171000E-03	 2.91736000E-02	-8.46689000E-03
					-7.49766000E-05	 3.67482000E-02	-4.74208000E-04
					-2.94160000E-03	 3.67322000E-02	-9.19661000E-03
					-6.74928000E-05	 2.65824000E-02	-3.47146000E-04
					-1.53660000E-03	 3.52735000E-02	-4.74513000E-03
					-2.72004000E-03	 2.66234000E-02	-8.45560000E-03
					 2.73582000E-03	 3.82992000E-02	 8.16784000E-03
					 2.84524000E-03	 3.54343000E-02	 8.23528000E-03
					 2.37146000E-03	 2.92950000E-02	 7.70575000E-03
					 1.33106000E-03	 3.82122000E-02	 3.74058000E-03
					 2.79046000E-03	 3.68842000E-02	 8.24817000E-03
					 2.58308000E-03	 2.67503000E-02	 7.75867000E-03
					 1.38539000E-03	 3.53479000E-02	 3.83911000E-03
					-7.48953000E-05	 3.23213000E-02	-4.08083000E-04
					-3.11660000E-03	 3.22965000E-02	-9.07155000E-03
					-7.56330000E-05	 3.38267000E-02	-4.31341000E-04
					-3.05761000E-03	 3.38075000E-02	-9.08985000E-03
					-6.81687000E-05	 2.38212000E-02	-3.11692000E-04
					-1.59410000E-03	 3.22919000E-02	-4.70819000E-03
					-2.94757000E-03	 2.38541000E-02	-8.39931000E-03
					 2.96670000E-03	 3.24501000E-02	 8.25514000E-03
					 2.90595000E-03	 3.39601000E-02	 8.22665000E-03
					 2.80900000E-03	 2.39859000E-02	 7.77305000E-03
					 1.44434000E-03	 3.23674000E-02	 3.89229000E-03
					-9.17091000E-05	 5.66641000E-02	-7.14630000E-04
					-3.37616000E-03	 5.65422000E-02	-9.34722000E-03
					-8.75875000E-05	 5.34464000E-02	-6.63019000E-04
					-3.26060000E-03	 5.33139000E-02	-9.30677000E-03
					-8.31724000E-05	 4.75089000E-02	-6.09854000E-04
					-1.73021000E-03	 5.66217000E-02	-4.99430000E-03
					-3.18359000E-03	 4.74391000E-02	-9.42899000E-03
					-8.95097000E-05	 5.50400000E-02	-6.88917000E-04
					-3.31822000E-03	 5.49091000E-02	-9.33982000E-03
					-8.17397000E-05	 4.44213000E-02	-5.61768000E-04
					-1.67432000E-03	 5.33996000E-02	-4.95943000E-03
					-3.16984000E-03	 4.43413000E-02	-9.40663000E-03
					 3.19157000E-03	 5.67023000E-02	 7.92069000E-03
					 3.08558000E-03	 5.34753000E-02	 7.98414000E-03
					 3.01628000E-03	 4.76007000E-02	 8.21104000E-03
					 1.54638000E-03	 5.67006000E-02	 3.56561000E-03
					 3.13855000E-03	 5.50705000E-02	 7.96502000E-03
					 3.00644000E-03	 4.45049000E-02	 8.28520000E-03
					 1.49915000E-03	 5.34798000E-02	 3.63405000E-03
					-8.32717000E-05	 5.03191000E-02	-6.11011000E-04
					-3.14720000E-03	 5.01953000E-02	-9.24323000E-03
					-8.55660000E-05	 5.18673000E-02	-6.36942000E-04
					-3.20417000E-03	 5.17364000E-02	-9.27751000E-03
					-7.93941000E-05	 4.13336000E-02	-5.12184000E-04
					-1.61864000E-03	 5.02753000E-02	-4.90059000E-03
					-3.16675000E-03	 4.12521000E-02	-9.33106000E-03
					 2.98189000E-03	 5.03550000E-02	 8.02463000E-03
					 3.03396000E-03	 5.18972000E-02	 8.00734000E-03
					 3.00910000E-03	 4.14141000E-02	 8.30895000E-03
					 1.45239000E-03	 5.03545000E-02	 3.67908000E-03
					-8.73310000E-05	 7.31117000E-02	-8.81977000E-04
					-3.46913000E-03	 7.30317000E-02	-8.85852000E-03
					-7.90612000E-05	 6.97436000E-02	-8.20241000E-04
					-3.44184000E-03	 6.96618000E-02	-8.77386000E-03
					-9.41367000E-05	 6.51711000E-02	-8.04987000E-04
					-1.77763000E-03	 7.30747000E-02	-4.91127000E-03
					-3.43840000E-03	 6.50648000E-02	-9.04376000E-03
					-8.32066000E-05	 7.14240000E-02	-8.50743000E-04
					-3.45524000E-03	 7.13431000E-02	-8.82444000E-03
					-8.79220000E-05	 6.18856000E-02	-7.48631000E-04
					-1.75997000E-03	 6.97061000E-02	-4.85016000E-03
					-3.32870000E-03	 6.17737000E-02	-8.97714000E-03
					 3.29233000E-03	 7.31753000E-02	 7.09621000E-03
					 3.28283000E-03	 6.98074000E-02	 7.13481000E-03
					 3.24812000E-03	 6.52136000E-02	 7.43567000E-03
					 1.60238000E-03	 7.31478000E-02	 3.14753000E-03
					 3.28710000E-03	 7.14883000E-02	 7.12461000E-03
					 3.15221000E-03	 6.19244000E-02	 7.48199000E-03
					 1.60158000E-03	 6.97808000E-02	 3.20995000E-03
					-7.01318000E-05	 6.63888000E-02	-7.57821000E-04
					-3.40902000E-03	 6.63125000E-02	-8.73470000E-03
					-7.47421000E-05	 6.80638000E-02	-7.89492000E-04
					-3.42530000E-03	 6.79826000E-02	-8.71375000E-03
					-8.14249000E-05	 5.86916000E-02	-6.92059000E-04
					-1.74199000E-03	 6.63533000E-02	-4.83671000E-03
					-3.21011000E-03	 5.85934000E-02	-8.93087000E-03
					 3.26902000E-03	 6.64592000E-02	 7.22006000E-03
					 3.27574000E-03	 6.81277000E-02	 7.13589000E-03
					 3.04752000E-03	 5.87441000E-02	 7.54849000E-03
					 1.60181000E-03	 6.64296000E-02	 3.32135000E-03
					-6.82564000E-05	 8.92883000E-02	-1.02549000E-03
					-3.65540000E-03	 8.92881000E-02	-9.66935000E-03
					-5.67647000E-05	 8.56064000E-02	-9.56952000E-04
					-3.82718000E-03	 8.56087000E-02	-9.59281000E-03
					-7.57482000E-05	 8.09583000E-02	-9.51574000E-04
					-1.86402000E-03	 8.92617000E-02	-5.33721000E-03
					-3.52953000E-03	 8.09200000E-02	-9.10600000E-03
					-6.25592000E-05	 8.74721000E-02	-9.91722000E-04
					-3.74167000E-03	 8.74741000E-02	-9.65725000E-03
					-6.59382000E-05	 7.74499000E-02	-8.86124000E-04
					-1.94253000E-03	 8.55792000E-02	-5.29092000E-03
					-3.62488000E-03	 7.74158000E-02	-9.01730000E-03
					 3.51615000E-03	 8.94616000E-02	 7.61527000E-03
					 3.71193000E-03	 8.57862000E-02	 7.67579000E-03
					 3.37592000E-03	 8.10736000E-02	 7.20311000E-03
					 1.72673000E-03	 8.93485000E-02	 3.28566000E-03
					 3.61417000E-03	 8.76507000E-02	 7.67055000E-03
					 3.49193000E-03	 7.75718000E-02	 7.24496000E-03
					 1.82861000E-03	 8.56691000E-02	 3.37636000E-03
					-4.36094000E-05	 8.17529000E-02	-8.84880000E-04
					-4.00345000E-03	 8.17434000E-02	-9.52811000E-03
					-5.05517000E-05	 8.37042000E-02	-9.21370000E-04
					-3.91588000E-03	 8.37049000E-02	-9.52638000E-03
					-5.50261000E-05	 7.38437000E-02	-8.18774000E-04
					-2.01968000E-03	 8.17202000E-02	-5.25625000E-03
					-3.71686000E-03	 7.38061000E-02	-8.97361000E-03
					 3.91591000E-03	 8.19237000E-02	 7.75570000E-03
					 3.81380000E-03	 8.38829000E-02	 7.68084000E-03
					 3.60713000E-03	 7.39638000E-02	 7.33582000E-03
					 1.93254000E-03	 8.18124000E-02	 3.48581000E-03
					-6.53169000E-05	 1.08123000E-01	-1.21651000E-03
					-3.88109000E-03	 1.08080000E-01	-1.10299000E-02
					-5.17686000E-05	 1.04250000E-01	-1.13705000E-03
					-3.99057000E-03	 1.04202000E-01	-1.09585000E-02
					-6.64918000E-05	 9.83838000E-02	-1.11382000E-03
					-1.97298000E-03	 1.08086000E-01	-6.09067000E-03
					-3.80259000E-03	 9.83677000E-02	-1.03851000E-02
					-5.89131000E-05	 1.06202000E-01	-1.17696000E-03
					-3.93683000E-03	 1.06155000E-01	-1.10007000E-02
					-5.37111000E-05	 9.45655000E-02	-1.04049000E-03
					-2.02238000E-03	 1.04211000E-01	-6.01757000E-03
					-3.96137000E-03	 9.45445000E-02	-1.03175000E-02
					 3.74682000E-03	 1.08296000E-01	 8.59460000E-03
					 3.88464000E-03	 1.04425000E-01	 8.68235000E-03
					 3.66664000E-03	 9.85639000E-02	 8.15319000E-03
					 1.84146000E-03	 1.08192000E-01	 3.65741000E-03
					 3.81581000E-03	 1.06375000E-01	 8.64441000E-03
					 3.85189000E-03	 9.47463000E-02	 8.23256000E-03
					 1.91831000E-03	 1.04321000E-01	 3.74317000E-03
					-3.54608000E-05	 1.00253000E-01	-1.05506000E-03
					-4.10311000E-03	 1.00199000E-01	-1.08580000E-02
					-4.39797000E-05	 1.02269000E-01	-1.09665000E-03
					-4.04759000E-03	 1.02218000E-01	-1.09210000E-02
					-3.84891000E-05	 9.05768000E-02	-9.63122000E-04
					-2.06868000E-03	 1.00211000E-01	-5.91427000E-03
					-4.13291000E-03	 9.05407000E-02	-1.02313000E-02
					 4.03091000E-03	 1.00425000E-01	 8.74622000E-03
					 3.95803000E-03	 1.02443000E-01	 8.72571000E-03
					 4.05483000E-03	 9.07464000E-02	 8.30196000E-03
					 1.99754000E-03	 1.00322000E-01	 3.80409000E-03
					-5.09650000E-05	 1.28530000E-01	-1.43481000E-03
					-3.93459000E-03	 1.28426000E-01	-1.16046000E-02
					-3.90066000E-05	 1.24639000E-01	-1.34691000E-03
					-3.92693000E-03	 1.24527000E-01	-1.15127000E-02
					-6.00939000E-05	 1.18284000E-01	-1.32681000E-03
					-1.99000000E-03	 1.28480000E-01	-6.51024000E-03
					-3.91803000E-03	 1.18201000E-01	-1.14160000E-02
					-4.45881000E-05	 1.26588000E-01	-1.39022000E-03
					-3.92907000E-03	 1.26478000E-01	-1.15620000E-02
					-4.63885000E-05	 1.14402000E-01	-1.24176000E-03
					-1.97867000E-03	 1.24585000E-01	-6.42016000E-03
					-3.95967000E-03	 1.14313000E-01	-1.13326000E-02
					 3.82728000E-03	 1.28665000E-01	 8.73942000E-03
					 3.84722000E-03	 1.24771000E-01	 8.82304000E-03
					 3.79314000E-03	 1.18430000E-01	 8.76444000E-03
					 1.88653000E-03	 1.28599000E-01	 3.64158000E-03
					 3.83578000E-03	 1.26720000E-01	 8.78586000E-03
					 3.86491000E-03	 1.14548000E-01	 8.85123000E-03
					 1.89995000E-03	 1.24708000E-01	 3.72723000E-03
					-2.64912000E-05	 1.20722000E-01	-1.26166000E-03
					-3.90847000E-03	 1.20616000E-01	-1.13942000E-02
					-3.30637000E-05	 1.22676000E-01	-1.30414000E-03
					-3.91936000E-03	 1.22567000E-01	-1.14596000E-02
					-3.15440000E-05	 1.10462000E-01	-1.15755000E-03
					-1.96511000E-03	 1.20671000E-01	-6.31025000E-03
					-3.99536000E-03	 1.10372000E-01	-1.12207000E-02
					 3.85773000E-03	 1.20856000E-01	 8.87461000E-03
					 3.85389000E-03	 1.22810000E-01	 8.85502000E-03
					 3.93303000E-03	 1.10607000E-01	 8.90773000E-03
					 1.91259000E-03	 1.20791000E-01	 3.78789000E-03
					 0.00000000E+00	 0.00000000E+00	 0.00000000E+00
					 0.00000000E+00	 0.00000000E+00	 0.00000000E+00
					-2.57635000E-05	-6.73041000E-03	 1.67871000E-04
					-8.17695000E-04	-7.07034000E-03	 5.82148000E-03
					 0.00000000E+00	 0.00000000E+00	 0.00000000E+00
					 0.00000000E+00	 0.00000000E+00	 0.00000000E+00
					 5.37670000E-06	-7.20305000E-03	 1.56815000E-04
					-1.47317000E-04	-7.56551000E-03	 5.89072000E-03
					 0.00000000E+00	 0.00000000E+00	 0.00000000E+00
					-2.42229000E-05	-1.73906000E-03	 8.41266000E-05
					-4.23415000E-04	-6.77913000E-03	 2.90019000E-03
					-9.32978000E-04	-2.25760000E-03	 3.10115000E-03
					 0.00000000E+00	 0.00000000E+00	 0.00000000E+00
					 0.00000000E+00	 0.00000000E+00	 0.00000000E+00
					-9.73457000E-06	-7.08196000E-03	 1.61813000E-04
					-4.77018000E-04	-7.43234000E-03	 5.84708000E-03
					 0.00000000E+00	 0.00000000E+00	 0.00000000E+00
					 3.73931000E-06	-2.16667000E-03	 7.44227000E-05
					-7.20163000E-05	-7.25832000E-03	 2.91406000E-03
					-4.97607000E-05	-2.69017000E-03	 3.02438000E-03
					 0.00000000E+00	 0.00000000E+00	 0.00000000E+00
					 7.66519000E-04	-6.93655000E-03	-5.49825000E-03
					 0.00000000E+00	 0.00000000E+00	 0.00000000E+00
					 1.60849000E-04	-7.43127000E-03	-5.59204000E-03
					 0.00000000E+00	 0.00000000E+00	 0.00000000E+00
					 8.83076000E-04	-2.16862000E-03	-2.92785000E-03
					 3.72168000E-04	-6.71343000E-03	-2.56956000E-03
					 0.00000000E+00	 0.00000000E+00	 0.00000000E+00
					 4.59204000E-04	-7.29688000E-03	-5.53718000E-03
					 0.00000000E+00	 0.00000000E+00	 0.00000000E+00
					 5.85573000E-05	-2.60416000E-03	-2.86962000E-03
					 8.21772000E-05	-7.19239000E-03	-2.60696000E-03
					 0.00000000E+00	 0.00000000E+00	 0.00000000E+00
					 0.00000000E+00	 0.00000000E+00	 0.00000000E+00
					 3.36396000E-05	-7.03779000E-03	 1.52296000E-04
					 5.25459000E-04	-7.37064000E-03	 5.80651000E-03
					 0.00000000E+00	 0.00000000E+00	 0.00000000E+00
					 0.00000000E+00	 0.00000000E+00	 0.00000000E+00
					 1.99477000E-05	-7.23571000E-03	 1.51330000E-04
					 1.84485000E-04	-7.57751000E-03	 5.87562000E-03
					 0.00000000E+00	 0.00000000E+00	 0.00000000E+00
					 3.02824000E-05	-1.84674000E-03	 8.16473000E-05
					 2.80820000E-04	-7.08313000E-03	 2.84554000E-03
					 8.37806000E-04	-2.35806000E-03	 3.09862000E-03
					 0.00000000E+00	 0.00000000E+00	 0.00000000E+00
					-4.57311000E-04	-7.24161000E-03	-5.51573000E-03
					 0.00000000E+00	 0.00000000E+00	 0.00000000E+00
					-1.43746000E-04	-7.45083000E-03	-5.58754000E-03
					 0.00000000E+00	 0.00000000E+00	 0.00000000E+00
					-7.76474000E-04	-2.27064000E-03	-2.93152000E-03
					-2.13061000E-04	-7.02033000E-03	-2.54657000E-03
					-5.65918000E-05	-2.24608000E-02	 2.64725000E-04
					-1.06739000E-03	-2.27834000E-02	 9.49482000E-03
					-2.41670000E-05	-2.32746000E-02	 2.13147000E-04
					-6.36718000E-04	-2.35830000E-02	 9.47014000E-03
					-3.21942000E-05	-1.37661000E-02	 2.28962000E-04
					-5.65540000E-04	-2.25808000E-02	 4.86650000E-03
					-8.87124000E-04	-1.41580000E-02	 7.89431000E-03
					-4.00822000E-05	-2.29112000E-02	 2.37543000E-04
					-8.50714000E-04	-2.32213000E-02	 9.44871000E-03
					-1.76327000E-06	-1.43701000E-02	 2.00966000E-04
					-3.24653000E-04	-2.33862000E-02	 4.79708000E-03
					-3.35236000E-04	-1.47436000E-02	 7.89716000E-03
					 9.63702000E-04	-2.25392000E-02	-8.97755000E-03
					 5.90129000E-04	-2.33600000E-02	-9.05479000E-03
					 8.24905000E-04	-1.39688000E-02	-7.45074000E-03
					 4.54240000E-04	-2.24589000E-02	-4.34080000E-03
					 7.78541000E-04	-2.29933000E-02	-8.98229000E-03
					 3.35918000E-04	-1.45656000E-02	-7.51030000E-03
					 2.81341000E-04	-2.32764000E-02	-4.37046000E-03
					-3.56641000E-06	-2.36867000E-02	 1.67562000E-04
					-1.77510000E-04	-2.39595000E-02	 9.39595000E-03
					-1.29073000E-05	-2.35194000E-02	 1.90796000E-04
					-4.04567000E-04	-2.38460000E-02	 9.49037000E-03
					 2.33751000E-05	-1.44391000E-02	 1.80332000E-04
					-9.98960000E-05	-2.37760000E-02	 4.68115000E-03
					 2.32098000E-04	-1.47981000E-02	 7.84527000E-03
					 2.00383000E-04	-2.37673000E-02	-9.07336000E-03
					 3.95217000E-04	-2.36087000E-02	-9.12400000E-03
					-1.69652000E-04	-1.46376000E-02	-7.49847000E-03
					 1.00810000E-04	-2.36831000E-02	-4.34442000E-03
					-1.54388000E-04	-4.32989000E-02	 2.48504000E-04
					-1.77515000E-03	-4.34664000E-02	 1.13107000E-02
					-1.25183000E-04	-4.48277000E-02	 1.53818000E-04
					-1.61051000E-03	-4.50949000E-02	 1.12523000E-02
					-9.65356000E-05	-3.24218000E-02	 2.72197000E-04
					-9.60430000E-04	-4.33634000E-02	 5.75550000E-03
					-1.36783000E-03	-3.26935000E-02	 1.06517000E-02
					-1.37431000E-04	-4.40840000E-02	 2.05235000E-04
					-1.69447000E-03	-4.43135000E-02	 1.12181000E-02
					-6.71121000E-05	-3.35516000E-02	 1.95860000E-04
					-8.92106000E-04	-4.49451000E-02	 5.60087000E-03
					-1.05943000E-03	-3.38224000E-02	 1.06106000E-02
					 1.43519000E-03	-4.32066000E-02	-1.08019000E-02
					 1.36453000E-03	-4.47539000E-02	-1.09670000E-02
					 1.17540000E-03	-3.24169000E-02	-1.01148000E-02
					 6.40558000E-04	-4.32370000E-02	-5.24799000E-03
					 1.39921000E-03	-4.39943000E-02	-1.08244000E-02
					 9.34271000E-04	-3.35454000E-02	-1.02275000E-02
					 6.19549000E-04	-4.47800000E-02	-5.31392000E-03
					-1.09849000E-04	-4.62553000E-02	 5.60454000E-05
					-1.54233000E-03	-4.66243000E-02	 1.11153000E-02
					-1.16131000E-04	-4.55709000E-02	 1.02280000E-04
					-1.57724000E-03	-4.57639000E-02	 1.13004000E-02
					-3.89744000E-05	-3.44071000E-02	 1.21979000E-04
					-7.98070000E-04	-4.64273000E-02	 5.36469000E-03
					-7.73266000E-04	-3.46855000E-02	 1.05044000E-02
					 1.28573000E-03	-4.62086000E-02	-1.10522000E-02
					 1.32562000E-03	-4.54927000E-02	-1.11197000E-02
					 6.63404000E-04	-3.43945000E-02	-1.02716000E-02
					 5.81418000E-04	-4.62312000E-02	-5.29734000E-03
					-2.65392000E-04	-6.51744000E-02	 1.68555000E-04
					-2.75039000E-03	-6.50731000E-02	 1.05280000E-02