<?xml version="1.0"?>
<VTKFile type="UnstructuredGrid" version="0.1" byte_order="LittleEndian">
	<UnstructuredGrid>
		<Piece NumberOfPoints="522" NumberOfCells="64">
			<Points>
				<DataArray type="Float64" NumberOfComponents="3" format="ascii">
					 1.00000000E+00	 1.00000000E+00	-5.96046000E-08
					 1.00000000E+00	 5.00000000E-01	-5.96046000E-08
					 1.00000000E+00	 5.00000000E-01	 1.00000000E+00
					 1.00000000E+00	 1.00000000E+00	 1.00000000E+00
					 5.00000000E-01	 1.00000000E+00	-5.96046000E-08
					 5.00000000E-01	 5.00000000E-01	-5.96046000E-08
					 5.00000000E-01	 5.00000000E-01	 1.00000000E+00
					 5.00000000E-01	 1.00000000E+00	 1.00000000E+00
					 1.00000000E+00	 7.50000000E-01	-5.96046000E-08
					 1.00000000E+00	 5.00000000E-01	 5.00000000E-01
					 1.00000000E+00	 7.50000000E-01	 1.00000000E+00
					 1.00000000E+00	 1.00000000E+00	 5.00000000E-01
					 7.50000000E-01	 1.00000000E+00	-5.96046000E-08
					 7.50000000E-01	 5.00000000E-01	-5.96046000E-08
					 7.50000000E-01	 5.00000000E-01	 1.00000000E+00
					 7.50000000E-01	 1.00000000E+00	 1.00000000E+00
					 5.00000000E-01	 7.50000000E-01	-5.96046000E-08
					 5.00000000E-01	 5.00000000E-01	 5.00000000E-01
					 5.00000000E-01	 7.50000000E-01	 1.00000000E+00
					 5.00000000E-01	 1.00000000E+00	 5.00000000E-01
					 1.00000000E+00	-1.49012000E-08	-5.96046000E-08
					 1.00000000E+00	-1.49012000E-08	 1.00000000E+00
					 5.00000000E-01	-1.49012000E-08	-5.96046000E-08
					 5.00000000E-01	-1.49012000E-08	 1.00000000E+00
					 1.00000000E+00	 2.50000000E-01	-5.96046000E-08
					 1.00000000E+00	-1.49012000E-08	 5.00000000E-01
					 1.00000000E+00	 2.50000000E-01	 1.00000000E+00
					 7.50000000E-01	-1.49012000E-08	-5.96046000E-08
					 7.50000000E-01	-1.49012000E-08	 1.00000000E+00
					 5.00000000E-01	 2.50000000E-01	-5.96046000E-08
					 5.00000000E-01	-1.49012000E-08	 5.00000000E-01
					 5.00000000E-01	 2.50000000E-01	 1.00000000E+00
					-7.45058000E-09	 1.00000000E+00	-5.96046000E-08
					-7.45058000E-09	 5.00000000E-01	-5.96046000E-08
					-7.45058000E-09	 5.00000000E-01	 1.00000000E+00
					-7.45058000E-09	 1.00000000E+00	 1.00000000E+00
					 2.50000000E-01	 1.00000000E+00	-5.96046000E-08
					 2.50000000E-01	 5.00000000E-01	-5.96046000E-08
					 2.50000000E-01	 5.00000000E-01	 1.00000000E+00
					 2.50000000E-01	 1.00000000E+00	 1.00000000E+00
					-7.45058000E-09	 7.50000000E-01	-5.96046000E-08
					-7.45058000E-09	 5.00000000E-01	 5.00000000E-01
					-7.45058000E-09	 7.50000000E-01	 1.00000000E+00
					-7.45058000E-09	 1.00000000E+00	 5.00000000E-01
					-7.45058000E-09	-1.49012000E-08	-5.96046000E-08
					-7.45058000E-09	-1.49012000E-08	 1.00000000E+00
					 2.50000000E-01	-1.49012000E-08	-5.96046000E-08
					 2.50000000E-01	-1.49012000E-08	 1.00000000E+00
					-7.45058000E-09	 2.50000000E-01	-5.96046000E-08
					-7.45058000E-09	-1.49012000E-08	 5.00000000E-01
					-7.45058000E-09	 2.50000000E-01	 1.00000000E+00
					 1.00000000E+00	 5.00000000E-01	 2.00000000E+00
					 1.00000000E+00	 1.00000000E+00	 2.00000000E+00
					 5.00000000E-01	 5.00000000E-01	 2.00000000E+00
					 5.00000000E-01	 1.00000000E+00	 2.00000000E+00
					 1.00000000E+00	 5.00000000E-01	 1.50000000E+00
					 1.00000000E+00	 7.50000000E-01	 2.00000000E+00
					 1.00000000E+00	 1.00000000E+00	 1.50000000E+00
					 7.50000000E-01	 5.00000000E-01	 2.00000000E+00
					 7.50000000E-01	 1.00000000E+00	 2.00000000E+00
					 5.00000000E-01	 5.00000000E-01	 1.50000000E+00
					 5.00000000E-01	 7.50000000E-01	 2.00000000E+00
					 5.00000000E-01	 1.00000000E+00	 1.50000000E+00
					 1.00000000E+00	-1.49012000E-08	 2.00000000E+00
					 5.00000000E-01	-1.49012000E-08	 2.00000000E+00
					 1.00000000E+00	-1.49012000E-08	 1.50000000E+00
					 1.00000000E+00	 2.50000000E-01	 2.00000000E+00
					 7.50000000E-01	-1.49012000E-08	 2.00000000E+00
					 5.00000000E-01	-1.49012000E-08	 1.50000000E+00
					 5.00000000E-01	 2.50000000E-01	 2.00000000E+00
					-7.45058000E-09	 5.00000000E-01	 2.00000000E+00
					-7.45058000E-09	 1.00000000E+00	 2.00000000E+00
					 2.50000000E-01	 5.00000000E-01	 2.00000000E+00
					 2.50000000E-01	 1.00000000E+00	 2.00000000E+00
					-7.45058000E-09	 5.00000000E-01	 1.50000000E+00
					-7.45058000E-09	 7.50000000E-01	 2.00000000E+00
					-7.45058000E-09	 1.00000000E+00	 1.50000000E+00
					-7.45058000E-09	-1.49012000E-08	 2.00000000E+00
					 2.50000000E-01	-1.49012000E-08	 2.00000000E+00
					-7.45058000E-09	-1.49012000E-08	 1.50000000E+00
					-7.45058000E-09	 2.50000000E-01	 2.00000000E+00
					 1.00000000E+00	 5.00000000E-01	 3.00000000E+00
					 1.00000000E+00	 1.00000000E+00	 3.00000000E+00
					 5.00000000E-01	 5.00000000E-01	 3.00000000E+00
					 5.00000000E-01	 1.00000000E+00	 3.00000000E+00
					 1.00000000E+00	 5.00000000E-01	 2.50000000E+00
					 1.00000000E+00	 7.50000000E-01	 3.00000000E+00
					 1.00000000E+00	 1.00000000E+00	 2.50000000E+00
					 7.50000000E-01	 5.00000000E-01	 3.00000000E+00
					 7.50000000E-01	 1.00000000E+00	 3.00000000E+00
					 5.00000000E-01	 5.00000000E-01	 2.50000000E+00
					 5.00000000E-01	 7.50000000E-01	 3.00000000E+00
					 5.00000000E-01	 1.00000000E+00	 2.50000000E+00
					 1.00000000E+00	-1.49012000E-08	 3.00000000E+00
					 5.00000000E-01	-1.49012000E-08	 3.00000000E+00
					 1.00000000E+00	-1.49012000E-08	 2.50000000E+00
					 1.00000000E+00	 2.50000000E-01	 3.00000000E+00
					 7.50000000E-01	-1.49012000E-08	 3.00000000E+00
					 5.00000000E-01	-1.49012000E-08	 2.50000000E+00
					 5.00000000E-01	 2.50000000E-01	 3.00000000E+00
					-7.45058000E-09	 5.00000000E-01	 3.00000000E+00
					-7.45058000E-09	 1.00000000E+00	 3.00000000E+00
					 2.50000000E-01	 5.00000000E-01	 3.00000000E+00
					 2.50000000E-01	 1.00000000E+00	 3.00000000E+00
					-7.45058000E-09	 5.00000000E-01	 2.50000000E+00
					-7.45058000E-09	 7.50000000E-01	 3.00000000E+00
					-7.45058000E-09	 1.00000000E+00	 2.50000000E+00
					-7.45058000E-09	-1.49012000E-08	 3.00000000E+00
					 2.50000000E-01	-1.49012000E-08	 3.00000000E+00
					-7.45058000E-09	-1.49012000E-08	 2.50000000E+00
					-7.45058000E-09	 2.50000000E-01	 3.00000000E+00
					 1.00000000E+00	 5.00000000E-01	 4.00000000E+00
					 1.00000000E+00	 1.00000000E+00	 4.00000000E+00
					 5.00000000E-01	 5.00000000E-01	 4.00000000E+00
					 5.00000000E-01	 1.00000000E+00	 4.00000000E+00
					 1.00000000E+00	 5.00000000E-01	 3.50000000E+00
					 1.00000000E+00	 7.50000000E-01	 4.00000000E+00
					 1.00000000E+00	 1.00000000E+00	 3.50000000E+00
					 7.50000000E-01	 5.00000000E-01	 4.00000000E+00
					 7.50000000E-01	 1.00000000E+00	 4.00000000E+00
					 5.00000000E-01	 5.00000000E-01	 3.50000000E+00
					 5.00000000E-01	 7.50000000E-01	 4.00000000E+00
					 5.00000000E-01	 1.00000000E+00	 3.50000000E+00
					 1.00000000E+00	-1.49012000E-08	 4.00000000E+00
					 5.00000000E-01	-1.49012000E-08	 4.00000000E+00
					 1.00000000E+00	-1.49012000E-08	 3.50000000E+00
					 1.00000000E+00	 2.50000000E-01	 4.00000000E+00
					 7.50000000E-01	-1.49012000E-08	 4.00000000E+00
					 5.00000000E-01	-1.49012000E-08	 3.50000000E+00
					 5.00000000E-01	 2.50000000E-01	 4.00000000E+00
					-7.45058000E-09	 5.00000000E-01	 4.00000000E+00
					-7.45058000E-09	 1.00000000E+00	 4.00000000E+00
					 2.50000000E-01	 5.00000000E-01	 4.00000000E+00
					 2.50000000E-01	 1.00000000E+00	 4.00000000E+00
					-7.45058000E-09	 5.00000000E-01	 3.50000000E+00
					-7.45058000E-09	 7.50000000E-01	 4.00000000E+00
					-7.45058000E-09	 1.00000000E+00	 3.50000000E+00
					-7.45058000E-09	-1.49012000E-08	 4.00000000E+00
					 2.50000000E-01	-1.49012000E-08	 4.00000000E+00
					-7.45058000E-09	-1.49012000E-08	 3.50000000E+00
					-7.45058000E-09	 2.50000000E-01	 4.00000000E+00
					 1.00000000E+00	 5.00000000E-01	 5.00000000E+00
					 1.00000000E+00	 1.00000000E+00	 5.00000000E+00
					 5.00000000E-01	 5.00000000E-01	 5.00000000E+00
					 5.00000000E-01	 1.00000000E+00	 5.00000000E+00
					 1.00000000E+00	 5.00000000E-01	 4.50000000E+00
					 1.00000000E+00	 7.50000000E-01	 5.00000000E+00
					 1.00000000E+00	 1.00000000E+00	 4.50000000E+00
					 7.50000000E-01	 5.00000000E-01	 5.00000000E+00
					 7.50000000E-01	 1.00000000E+00	 5.00000000E+00
					 5.00000000E-01	 5.00000000E-01	 4.50000000E+00
					 5.00000000E-01	 7.50000000E-01	 5.00000000E+00
					 5.00000000E-01	 1.00000000E+00	 4.50000000E+00
					 1.00000000E+00	-1.49012000E-08	 5.00000000E+00
					 5.00000000E-01	-1.49012000E-08	 5.00000000E+00
					 1.00000000E+00	-1.49012000E-08	 4.50000000E+00
					 1.00000000E+00	 2.50000000E-01	 5.00000000E+00
					 7.50000000E-01	-1.49012000E-08	 5.00000000E+00
					 5.00000000E-01	-1.49012000E-08	 4.50000000E+00
					 5.00000000E-01	 2.50000000E-01	 5.00000000E+00
					-7.45058000E-09	 5.00000000E-01	 5.00000000E+00
					-7.45058000E-09	 1.00000000E+00	 5.00000000E+00
					 2.50000000E-01	 5.00000000E-01	 5.00000000E+00
					 2.50000000E-01	 1.00000000E+00	 5.00000000E+00
					-7.45058000E-09	 5.00000000E-01	 4.50000000E+00
					-7.45058000E-09	 7.50000000E-01	 5.00000000E+00
					-7.45058000E-09	 1.00000000E+00	 4.50000000E+00
					-7.45058000E-09	-1.49012000E-08	 5.00000000E+00
					 2.50000000E-01	-1.49012000E-08	 5.00000000E+00
					-7.45058000E-09	-1.49012000E-08	 4.50000000E+00
					-7.45058000E-09	 2.50000000E-01	 5.00000000E+00
					 1.00000000E+00	 5.00000000E-01	 6.00000000E+00
					 1.00000000E+00	 1.00000000E+00	 6.00000000E+00
					 5.00000000E-01	 5.00000000E-01	 6.00000000E+00
					 5.00000000E-01	 1.00000000E+00	 6.00000000E+00
					 1.00000000E+00	 5.00000000E-01	 5.50000000E+00
					 1.00000000E+00	 7.50000000E-01	 6.00000000E+00
					 1.00000000E+00	 1.00000000E+00	 5.50000000E+00
					 7.50000000E-01	 5.00000000E-01	 6.00000000E+00
					 7.50000000E-01	 1.00000000E+00	 6.00000000E+00
					 5.00000000E-01	 5.00000000E-01	 5.50000000E+00
					 5.00000000E-01	 7.50000000E-01	 6.00000000E+00
					 5.00000000E-01	 1.00000000E+00	 5.50000000E+00
					 1.00000000E+00	-1.49012000E-08	 6.00000000E+00
[...]
			<PointData>
				<DataArray type="Float32" Name="U" NumberOfComponents="3" ComponentName0="D1" ComponentName1="D2" ComponentName2="D3" format="ascii">
					 0.00000000E+00	 0.00000000E+00	 0.00000000E+00
					 0.00000000E+00	 0.00000000E+00	 0.00000000E+00
					 4.83274000E-05	 9.48863000E-04	 1.34202000E-04
					 2.21543000E-04	 1.06073000E-03	-1.14287000E-03
					 0.00000000E+00	 0.00000000E+00	 0.00000000E+00
					 0.00000000E+00	 0.00000000E+00	 0.00000000E+00
					 5.00756000E-06	 1.11902000E-03	 1.24036000E-04
					 8.90306000E-05	 1.25524000E-03	-1.13571000E-03
					 0.00000000E+00	 0.00000000E+00	 0.00000000E+00
					 4.97655000E-06	 5.84134000E-05	 8.06506000E-05
					 1.39982000E-04	 9.57276000E-04	-5.32470000E-04
					 2.38606000E-04	 1.46935000E-04	-5.09049000E-04
					 0.00000000E+00	 0.00000000E+00	 0.00000000E+00
					 0.00000000E+00	 0.00000000E+00	 0.00000000E+00
					 2.80925000E-05	 1.05650000E-03	 1.24669000E-04
					 1.66161000E-04	 1.13530000E-03	-1.16704000E-03
					 0.00000000E+00	 0.00000000E+00	 0.00000000E+00
					-8.08177000E-06	 2.28759000E-04	 8.83485000E-05
					 1.83334000E-05	 1.15873000E-03	-5.39272000E-04
					 1.20849000E-04	 3.35508000E-04	-5.03570000E-04
					 0.00000000E+00	 0.00000000E+00	 0.00000000E+00
					-2.90790000E-04	 9.65818000E-04	 1.47254000E-03
					 0.00000000E+00	 0.00000000E+00	 0.00000000E+00
					-7.53627000E-05	 1.23533000E-03	 1.43989000E-03
					 0.00000000E+00	 0.00000000E+00	 0.00000000E+00
					-2.81616000E-04	 2.01045000E-04	 7.00829000E-04
					-1.18927000E-04	 9.27854000E-04	 8.10191000E-04
					 0.00000000E+00	 0.00000000E+00	 0.00000000E+00
					-1.64739000E-04	 1.13805000E-03	 1.45033000E-03
					 0.00000000E+00	 0.00000000E+00	 0.00000000E+00
					-7.82331000E-05	 3.79739000E-04	 6.38824000E-04
					-2.07952000E-05	 1.12898000E-03	 8.17274000E-04
					 0.00000000E+00	 0.00000000E+00	 0.00000000E+00
					 0.00000000E+00	 0.00000000E+00	 0.00000000E+00
					-4.66897000E-05	 1.08510000E-03	 1.09410000E-04
					-2.80948000E-05	 1.31121000E-03	-1.19385000E-03
					 0.00000000E+00	 0.00000000E+00	 0.00000000E+00
					 0.00000000E+00	 0.00000000E+00	 0.00000000E+00
					-3.26583000E-05	 1.12489000E-03	 9.37808000E-05
					 1.45461000E-05	 1.21642000E-03	-1.18282000E-03
					 0.00000000E+00	 0.00000000E+00	 0.00000000E+00
					 3.26093000E-05	 2.39090000E-04	 5.63995000E-05
					-9.91138000E-05	 1.14956000E-03	-5.88362000E-04
					 1.73276000E-06	 4.21637000E-04	-5.19814000E-04
					 0.00000000E+00	 0.00000000E+00	 0.00000000E+00
					 1.45280000E-04	 1.19026000E-03	 1.42947000E-03
					 0.00000000E+00	 0.00000000E+00	 0.00000000E+00
					 3.95924000E-05	 1.19502000E-03	 1.39541000E-03
					 0.00000000E+00	 0.00000000E+00	 0.00000000E+00
					 6.60063000E-05	 4.39717000E-04	 6.49497000E-04
					 9.95334000E-05	 1.08197000E-03	 8.25781000E-04
					 2.64575000E-06	 5.56287000E-03	 6.55103000E-05
					-1.98061000E-05	 5.60674000E-03	-3.42131000E-03
					 7.56923000E-06	 5.23926000E-03	 2.70204000E-05
					-5.21975000E-04	 5.39649000E-03	-3.44571000E-03
					 4.84583000E-06	 2.70648000E-03	 6.42695000E-05
					-5.23530000E-05	 5.53429000E-03	-1.64578000E-03
					 1.05660000E-04	 2.84278000E-03	-2.14730000E-03
					-1.25249000E-05	 5.48239000E-03	 4.55405000E-05
					-2.68752000E-04	 5.64196000E-03	-3.46796000E-03
					-8.63188000E-06	 2.62434000E-03	 4.37199000E-05
					-2.27162000E-04	 5.27178000E-03	-1.70318000E-03
					-2.24454000E-04	 2.78587000E-03	-2.13487000E-03
					 4.05822000E-05	 5.73710000E-03	 3.42358000E-03
					 5.31837000E-04	 5.50880000E-03	 3.53368000E-03
					-1.07072000E-04	 2.84637000E-03	 2.35934000E-03
					 2.96036000E-05	 5.61910000E-03	 1.73261000E-03
					 2.95874000E-04	 5.69216000E-03	 3.56443000E-03
					 2.28764000E-04	 2.82171000E-03	 2.33521000E-03
					 2.68352000E-04	 5.32334000E-03	 1.77331000E-03
					-2.06423000E-06	 4.56510000E-03	 6.01093000E-05
					-9.53200000E-04	 4.61156000E-03	-3.36754000E-03
					 1.54282000E-05	 4.98439000E-03	 6.00446000E-05
					-7.53052000E-04	 5.12380000E-03	-3.33126000E-03
					-6.32106000E-06	 2.25185000E-03	 7.47870000E-05
					-4.16911000E-04	 4.53747000E-03	-1.72771000E-03
					-4.87708000E-04	 2.47692000E-03	-2.17198000E-03
					 9.28853000E-04	 4.71381000E-03	 3.46481000E-03
					 7.15154000E-04	 5.18572000E-03	 3.48280000E-03
					 5.22800000E-04	 2.44938000E-03	 2.35805000E-03
					 4.61779000E-04	 4.61256000E-03	 1.85340000E-03
					 6.58790000E-06	 1.61519000E-02	 9.26315000E-05
					-9.01957000E-04	 1.63146000E-02	-5.70858000E-03
					 3.13526000E-06	 1.52034000E-02	 8.92645000E-05
					-9.57049000E-04	 1.52818000E-02	-5.72505000E-03
					-6.20829000E-07	 1.01669000E-02	 8.95344000E-05
					-4.07494000E-04	 1.61831000E-02	-2.71382000E-03
					-3.79640000E-04	 1.02840000E-02	-4.69460000E-03
					 9.79359000E-06	 1.57010000E-02	 9.18760000E-05
					-9.16298000E-04	 1.57827000E-02	-5.70630000E-03
					 2.00292000E-05	 9.59774000E-03	 9.73593000E-05
					-4.97666000E-04	 1.52334000E-02	-2.73343000E-03
					-7.20248000E-04	 9.72630000E-03	-4.72268000E-03
					 8.32306000E-04	 1.62182000E-02	 5.89262000E-03
					 9.97162000E-04	 1.53405000E-02	 5.90420000E-03
					 4.33675000E-04	 1.03551000E-02	 4.80778000E-03
					 4.12607000E-04	 1.61574000E-02	 2.83658000E-03
					 9.13030000E-04	 1.58182000E-02	 5.87809000E-03
					 7.65991000E-04	 9.77313000E-03	 4.87124000E-03
					 5.02797000E-04	 1.52372000E-02	 2.92140000E-03
					-1.13957000E-05	 1.41616000E-02	 1.04070000E-04
					-1.28865000E-03	 1.42009000E-02	-5.75128000E-03
					-4.15799000E-06	 1.47136000E-02	 7.36492000E-05
					-1.11482000E-03	 1.47911000E-02	-5.73827000E-03
					 1.76414000E-05	 8.66910000E-03	 9.42783000E-05
					-6.36030000E-04	 1.41398000E-02	-2.70727000E-03
					-1.09924000E-03	 8.77414000E-03	-4.66932000E-03
					 1.42383000E-03	 1.39907000E-02	 5.82956000E-03
					 1.19167000E-03	 1.47814000E-02	 5.82698000E-03
					 1.18170000E-03	 8.80913000E-03	 4.81047000E-03
					 6.26377000E-04	 1.40745000E-02	 2.86484000E-03
					 2.08313000E-05	 2.90132000E-02	-8.93444000E-05
					-8.65720000E-04	 2.88798000E-02	-6.00249000E-03
					-2.13691000E-05	 2.81173000E-02	-1.28502000E-04
					-8.59402000E-04	 2.79649000E-02	-6.06621000E-03
					 3.06725000E-05	 2.25877000E-02	 1.74057000E-05
					-4.78284000E-04	 2.89754000E-02	-3.02874000E-03
					-8.88120000E-04	 2.25563000E-02	-6.07672000E-03
					-1.02340000E-05	 2.85009000E-02	-1.08834000E-04
					-8.80523000E-04	 2.84404000E-02	-6.04978000E-03
					 2.63157000E-07	 2.16418000E-02	-3.32388000E-05
					-4.06056000E-04	 2.80433000E-02	-3.04397000E-03
					-9.49448000E-04	 2.16697000E-02	-6.17346000E-03
					 9.46580000E-04	 2.89951000E-02	 5.84680000E-03
					 8.80338000E-04	 2.80738000E-02	 5.85726000E-03
					 9.41209000E-04	 2.26313000E-02	 6.11533000E-03
					 4.97966000E-04	 2.90301000E-02	 2.85448000E-03
					 9.24767000E-04	 2.85064000E-02	 5.84710000E-03
					 9.53397000E-04	 2.16540000E-02	 6.12463000E-03
					 4.18609000E-04	 2.81180000E-02	 2.84510000E-03
					-8.45596000E-06	 2.73172000E-02	-1.41699000E-04
					-6.15169000E-04	 2.73331000E-02	-6.01834000E-03
					-6.45946000E-06	 2.76974000E-02	-1.21299000E-04
					-7.65655000E-04	 2.75540000E-02	-6.06746000E-03
					-4.74221000E-06	 2.06918000E-02	-2.97824000E-06
					-3.67688000E-04	 2.73332000E-02	-3.04973000E-03
					-9.32885000E-04	 2.07794000E-02	-6.10517000E-03
					 6.06871000E-04	 2.74145000E-02	 5.82495000E-03
					 7.50625000E-04	 2.76280000E-02	 5.85518000E-03
					 9.57476000E-04	 2.07467000E-02	 6.08442000E-03
					 3.85705000E-04	 2.73394000E-02	 2.79272000E-03
					-3.45517000E-05	 4.06200000E-02	-1.97815000E-04
					-1.65455000E-03	 4.06728000E-02	-5.32400000E-03
					 1.89651000E-05	 3.90965000E-02	-1.47075000E-04
					-1.61838000E-03	 3.89322000E-02	-5.23693000E-03
					-3.36433000E-06	 3.50856000E-02	-1.55541000E-04
					-8.19973000E-04	 4.06474000E-02	-2.67629000E-03
					-1.30054000E-03	 3.49210000E-02	-5.64405000E-03
					-2.19191000E-05	 3.98827000E-02	-1.40032000E-04
					-1.60627000E-03	 3.97837000E-02	-5.39357000E-03
					-2.79314000E-05	 3.37977000E-02	-1.44009000E-04
					-8.23023000E-04	 3.90389000E-02	-2.73451000E-03
					-1.21168000E-03	 3.37175000E-02	-5.64154000E-03
					 1.69745000E-03	 4.07481000E-02	 4.94878000E-03
					 1.58618000E-03	 3.89573000E-02	 4.93726000E-03
					 1.31275000E-03	 3.50258000E-02	 5.35350000E-03
					 8.04993000E-04	 4.06876000E-02	 2.28371000E-03
					 1.65135000E-03	 3.98700000E-02	 5.05016000E-03
					 1.17635000E-03	 3.37988000E-02	 5.35405000E-03
					 8.18808000E-04	 3.90209000E-02	 2.42323000E-03
					-3.77878000E-05	 3.74852000E-02	-1.30753000E-04
					-1.51921000E-03	 3.73996000E-02	-5.23478000E-03
					 1.75558000E-06	 3.82620000E-02	-1.30189000E-04
					-1.58371000E-03	 3.81078000E-02	-5.11139000E-03
					-4.26786000E-05	 3.26809000E-02	-1.48217000E-04
					-8.10500000E-04	 3.74313000E-02	-2.83650000E-03
					-9.62301000E-04	 3.27035000E-02	-5.63173000E-03
					 1.44003000E-03	 3.75594000E-02	 5.02185000E-03
					 1.51560000E-03	 3.82309000E-02	 4.84559000E-03
					 9.25289000E-04	 3.27935000E-02	 5.40099000E-03
					 7.54057000E-04	 3.75514000E-02	 2.60352000E-03
					-6.01028000E-06	 5.17522000E-02	-1.38061000E-04
					-3.22645000E-03	 5.17044000E-02	-5.05538000E-03
					 4.14901000E-05	 4.85068000E-02	-1.26129000E-04
					-3.25082000E-03	 4.85575000E-02	-5.14903000E-03
					 3.04527000E-05	 4.62900000E-02	-1.76191000E-04
					-1.59014000E-03	 5.17188000E-02	-2.54389000E-03
					-2.50706000E-03	 4.62538000E-02	-5.09097000E-03
					 2.35754000E-05	 5.01283000E-02	-1.50112000E-04
					-3.25703000E-03	 5.01129000E-02	-5.18436000E-03
					 3.84032000E-05	 4.37693000E-02	-1.56715000E-04
					-1.58036000E-03	 4.85295000E-02	-2.64932000E-03
					-2.43332000E-03	 4.37171000E-02	-5.05748000E-03
					 3.40636000E-03	 5.20552000E-02	 4.87948000E-03
					 3.28799000E-03	 4.85620000E-02	 4.80151000E-03
					 2.64858000E-03	 4.64049000E-02	 4.80049000E-03
					 1.60923000E-03	 5.18782000E-02	 2.26309000E-03
					 3.31775000E-03	 5.02067000E-02	 4.90525000E-03
					 2.50130000E-03	 4.38061000E-02	 4.78641000E-03
					 1.66767000E-03	 4.85390000E-02	 2.34737000E-03
					 2.13391000E-04	 4.52111000E-02	-1.10937000E-04
					-3.35482000E-03	 4.50666000E-02	-5.11816000E-03
					 1.18271000E-04	 4.69016000E-02	-1.52745000E-04
					-3.27459000E-03	 4.68594000E-02	-5.00686000E-03
					 4.32267000E-05	 4.13284000E-02	-1.48417000E-04
					-1.55917000E-03	 4.51613000E-02	-2.71015000E-03
					-2.40273000E-03	 4.12718000E-02	-5.03796000E-03
					 3.30493000E-03	 4.53812000E-02	 4.74558000E-03
					 3.29871000E-03	 4.69750000E-02	 4.70504000E-03
					 2.47564000E-03	 4.13927000E-02	 4.78476000E-03
					 1.72733000E-03	 4.52806000E-02	 2.47235000E-03
					 1.28560000E-06	 6.22281000E-02	-2.90571000E-04
					-3.46365000E-03	 6.22839000E-02	-5.72997000E-03
					 1.15558000E-04	 5.86694000E-02	-1.90429000E-04
					-3.50714000E-03	 5.87544000E-02	-5.39898000E-03
					-4.27915000E-06	 5.70614000E-02	-1.85293000E-04
					-1.66241000E-03	 6.22430000E-02	-2.98601000E-03
					-3.58700000E-03	 5.71176000E-02	-5.41185000E-03
					 5.48410000E-05	 6.04529000E-02	-2.36933000E-04
					-3.47379000E-03	 6.05084000E-02	-5.50660000E-03
					 3.86294000E-05	 5.34904000E-02	-1.31649000E-04
					-1.69734000E-03	 5.87030000E-02	-2.82341000E-03
					-3.52573000E-03	 5.34469000E-02	-5.22034000E-03
					 3.69462000E-03	 6.22463000E-02	 4.94897000E-03
					 3.72123000E-03	 5.86848000E-02	 5.12550000E-03
					 3.62275000E-03	 5.71816000E-02	 4.88398000E-03
					 1.89037000E-03	 6.22219000E-02	 2.37711000E-03
					 3.70694000E-03	 6.04705000E-02	 5.02854000E-03
					 3.61391000E-03	 5.35832000E-02	 4.95008000E-03
					 1.89896000E-03	 5.86698000E-02	 2.46382000E-03
					 2.06942000E-04	 5.50803000E-02	-1.74003000E-04
					-3.67088000E-03	 5.49249000E-02	-5.34909000E-03
					 1.60628000E-04	 5.69087000E-02	-1.50069000E-04
					-3.58229000E-03	 5.69105000E-02	-5.39138000E-03
					 6.23878000E-05	 4.99356000E-02	-1.09621000E-04
					-1.69711000E-03	 5.49924000E-02	-2.69632000E-03
					-3.56757000E-03	 4.98942000E-02	-5.24610000E-03
					 3.69368000E-03	 5.49985000E-02	 5.22912000E-03
					 3.68202000E-03	 5.69659000E-02	 5.20836000E-03
					 3.81444000E-03	 4.98861000E-02	 5.04617000E-03
					 1.87883000E-03	 5.50420000E-02	 2.43415000E-03
					-5.70681000E-04	 7.29442000E-02	-1.00947000E-04
					-2.52356000E-03	 7.27594000E-02	-6.09706000E-03
					 1.58062000E-05	 6.97040000E-02	-3.46443000E-04
					-2.89278000E-03	 6.99092000E-02	-5.91974000E-03
					 4.16013000E-06	 6.74643000E-02	-2.65118000E-04
					-1.65284000E-03	 7.28257000E-02	-3.11362000E-03
					-3.14554000E-03	 6.73393000E-02	-5.86225000E-03
					-3.23903000E-04	 7.13417000E-02	-2.85939000E-04
					-2.72357000E-03	 7.15100000E-02	-6.02747000E-03
					 2.12830000E-05	 6.41533000E-02	-2.74978000E-04
					-1.35762000E-03	 6.98652000E-02	-3.02110000E-03
					-3.33596000E-03	 6.41404000E-02	-5.72351000E-03
					 2.88969000E-03	 7.29823000E-02	 5.41562000E-03
					 2.76186000E-03	 6.94616000E-02	 5.18874000E-03
					 3.36385000E-03	 6.76846000E-02	 5.27725000E-03
					 1.08604000E-03	 7.29876000E-02	 2.75852000E-03
					 2.87334000E-03	 7.11282000E-02	 5.15272000E-03
					 3.33052000E-03	 6.41677000E-02	 5.19011000E-03
					 1.43807000E-03	 6.95130000E-02	 2.44595000E-03
					 7.81127000E-04	 6.66055000E-02	 3.44250000E-04
					-2.68568000E-03	 6.63422000E-02	-4.84200000E-03
					 4.30622000E-04	 6.80959000E-02	-1.24978000E-04
					-2.83904000E-03	 6.81378000E-02	-5.48110000E-03
					 6.39763000E-05	 6.09074000E-02	-3.28227000E-05
					-9.57396000E-04	 6.64606000E-02	-2.29530000E-03
					-3.35418000E-03	 6.07041000E-02	-5.30913000E-03
					 2.27112000E-03	 6.69421000E-02	 4.84799000E-03
					 2.55448000E-03	 6.79155000E-02	 5.08778000E-03
					 3.21696000E-03	 6.11477000E-02	 5.11831000E-03
					 1.69072000E-03	 6.67922000E-02	 2.55555000E-03
					 0.00000000E+00	 0.00000000E+00	 0.00000000E+00
					 0.00000000E+00	 0.00000000E+00	 0.00000000E+00
					-2.07823000E-04	-1.57921000E-02	 4.12928000E-05
					-1.71263000E-03	-1.66218000E-02	 1.38374000E-02
					 0.00000000E+00	 0.00000000E+00	 0.00000000E+00
					 0.00000000E+00	 0.00000000E+00	 0.00000000E+00
					-2.06927000E-04	-1.64066000E-02	-8.33112000E-05
					 6.54712000E-06	-1.73052000E-02	 1.38556000E-02
					 0.00000000E+00	 0.00000000E+00	 0.00000000E+00
					-5.19359000E-05	-3.76867000E-03	 1.00124000E-04
					-9.57093000E-04	-1.58873000E-02	 6.73771000E-03
					-2.11305000E-03	-5.01297000E-03	 7.24636000E-03
					 0.00000000E+00	 0.00000000E+00	 0.00000000E+00
					 0.00000000E+00	 0.00000000E+00	 0.00000000E+00
					-2.15194000E-04	-1.63250000E-02	-3.08611000E-05
					-8.16966000E-04	-1.72673000E-02	 1.38811000E-02
					 0.00000000E+00	 0.00000000E+00	 0.00000000E+00
					-8.43049000E-05	-4.60513000E-03	 7.36073000E-06
					-9.01758000E-05	-1.65151000E-02	 6.71979000E-03
					-9.94325000E-06	-5.88201000E-03	 6.94057000E-03
					 0.00000000E+00	 0.00000000E+00	 0.00000000E+00
					 1.07149000E-03	-1.62843000E-02	-1.37965000E-02
					 0.00000000E+00	 0.00000000E+00	 0.00000000E+00
					-3.86892000E-04	-1.69755000E-02	-1.40861000E-02
					 0.00000000E+00	 0.00000000E+00	 0.00000000E+00
					 1.86906000E-03	-4.82281000E-03	-7.05668000E-03
					 4.76799000E-04	-1.56969000E-02	-6.67106000E-03
					 0.00000000E+00	 0.00000000E+00	 0.00000000E+00
					 3.60776000E-04	-1.68269000E-02	-1.40153000E-02
					 0.00000000E+00	 0.00000000E+00	 0.00000000E+00
					-1.14212000E-04	-5.68435000E-03	-6.98985000E-03
					-3.32168000E-04	-1.63797000E-02	-6.88975000E-03
					 0.00000000E+00	 0.00000000E+00	 0.00000000E+00
					 0.00000000E+00	 0.00000000E+00	 0.00000000E+00
					-1.63550000E-04	-1.53497000E-02	-1.93516000E-04
					 1.79726000E-03	-1.61607000E-02	 1.35437000E-02
					 0.00000000E+00	 0.00000000E+00	 0.00000000E+00
					 0.00000000E+00	 0.00000000E+00	 0.00000000E+00
					-1.96300000E-04	-1.61339000E-02	-1.70607000E-04
					 8.95660000E-04	-1.69761000E-02	 1.36779000E-02
					 0.00000000E+00	 0.00000000E+00	 0.00000000E+00
					-8.04663000E-05	-3.65057000E-03	-5.31693000E-05
					 8.85284000E-04	-1.54139000E-02	 6.56904000E-03
					 1.98304000E-03	-4.95246000E-03	 7.03371000E-03
					 0.00000000E+00	 0.00000000E+00	 0.00000000E+00
					-2.01563000E-03	-1.60282000E-02	-1.41012000E-02
					 0.00000000E+00	 0.00000000E+00	 0.00000000E+00
					-1.20036000E-03	-1.66795000E-02	-1.40856000E-02
					 0.00000000E+00	 0.00000000E+00	 0.00000000E+00
					-2.11876000E-03	-4.83119000E-03	-7.23469000E-03
					-1.17481000E-03	-1.53624000E-02	-6.99011000E-03
					-4.99732000E-04	-5.66555000E-02	-7.41193000E-04
					-1.15521000E-03	-5.80672000E-02	 2.36122000E-02
					-5.17939000E-04	-5.65003000E-02	-9.23371000E-04
					 3.56440000E-04	-5.79206000E-02	 2.37221000E-02
					-3.43299000E-04	-3.36054000E-02	-3.01347000E-04
					-8.46761000E-04	-5.72272000E-02	 1.12718000E-02
					-1.32968000E-03	-3.48394000E-02	 1.92530000E-02
					-5.30329000E-04	-5.68078000E-02	-8.36678000E-04
					-3.97936000E-04	-5.81380000E-02	 2.37610000E-02
					-3.43143000E-04	-3.37308000E-02	-4.31851000E-04
					-9.22760000E-05	-5.70543000E-02	 1.12726000E-02
					 2.57503000E-04	-3.50171000E-02	 1.91585000E-02
					 1.95194000E-04	-5.64704000E-02	-2.52809000E-02
					-1.29227000E-03	-5.64961000E-02	-2.54326000E-02
					 5.80974000E-04	-3.40374000E-02	-1.97671000E-02
					-1.90277000E-04	-5.64115000E-02	-1.28334000E-02
					-5.50369000E-04	-5.67170000E-02	-2.54133000E-02
					-9.24205000E-04	-3.41814000E-02	-1.99856000E-02
					-8.73053000E-04	-5.63620000E-02	-1.30491000E-02
					-4.62637000E-04	-5.50149000E-02	-9.46575000E-04
					 1.85159000E-03	-5.61597000E-02	 2.34726000E-02
					-4.80373000E-04	-5.59544000E-02	-9.05241000E-04
					 1.08910000E-03	-5.72449000E-02	 2.36073000E-02
					-3.25601000E-04	-3.24168000E-02	-5.09042000E-04
					 6.62692000E-04	-5.54496000E-02	 1.11984000E-02
					 1.79178000E-03	-3.36749000E-02	 1.89891000E-02
					-2.64206000E-03	-5.50003000E-02	-2.54053000E-02
					-1.98791000E-03	-5.59761000E-02	-2.54188000E-02
					-2.39475000E-03	-3.28907000E-02	-2.00140000E-02
					-1.49551000E-03	-5.48639000E-02	-1.30548000E-02
					-6.41129000E-04	-1.16350000E-01	-2.29828000E-03
					-1.60402000E-04	-1.17613000E-01	 2.89438000E-02
					-7.33958000E-04	-1.15536000E-01	-2.33787000E-03
					 1.99305000E-04	-1.16991000E-01	 2.89489000E-02
					-6.05430000E-04	-8.46528000E-02	-1.39773000E-03
					-4.29254000E-04	-1.16886000E-01	 1.30603000E-02
					-7.11901000E-04	-8.60661000E-02	 2.70118000E-02
					-6.75973000E-04	-1.15987000E-01	-2.31411000E-03
					 1.60988000E-05	-1.17362000E-01	 2.89184000E-02
					-5.90343000E-04	-8.43198000E-02	-1.48989000E-03
					-2.78186000E-04	-1.16174000E-01	 1.30925000E-02
					 3.01993000E-04	-8.57001000E-02	 2.71007000E-02
					-1.16634000E-03	-1.15637000E-01	-3.35084000E-02
					-1.53380000E-03	-1.14777000E-01	-3.37098000E-02
					-3.47940000E-04	-8.42348000E-02	-2.99642000E-02
					-8.88480000E-04	-1.15908000E-01	-1.76540000E-02
					-1.34624000E-03	-1.15263000E-01	-3.36139000E-02
					-1.41261000E-03	-8.39266000E-02	-3.00982000E-02
					-1.13233000E-03	-1.15109000E-01	-1.77932000E-02
					-7.78473000E-04	-1.14333000E-01	-2.26841000E-03
					 1.04557000E-03	-1.15415000E-01	 2.88445000E-02
					-7.67312000E-04	-1.15027000E-01	-2.33387000E-03
					 5.92349000E-04	-1.16251000E-01	 2.89368000E-02
					-5.53561000E-04	-8.28990000E-02	-1.52624000E-03
					 8.33149000E-05	-1.14816000E-01	 1.29583000E-02
					 1.36808000E-03	-8.42666000E-02	 2.68771000E-02
					-2.17178000E-03	-1.13675000E-01	-3.36616000E-02
					-1.84964000E-03	-1.14263000E-01	-3.37613000E-02
					-2.44942000E-03	-8.25167000E-02	-3.00237000E-02
					-1.48928000E-03	-1.13947000E-01	-1.76474000E-02
					-5.55968000E-04	-1.82123000E-01	-4.38733000E-03
					-3.33556000E-04	-1.83006000E-01	 2.75800000E-02