# vtk DataFile Version 3.0

ASCII
DATASET UNSTRUCTURED_GRID

POINTS 522 double
	 1.00000000E+00	 1.00000000E+00	-5.96046000E-08
	 1.00000000E+00	 5.00000000E-01	-5.96046000E-08
	 1.00000000E+00	 5.00000000E-01	 1.00000000E+00
	 1.00000000E+00	 1.00000000E+00	 1.00000000E+00
	 5.00000000E-01	 1.00000000E+00	-5.96046000E-08
	 5.00000000E-01	 5.00000000E-01	-5.96046000E-08
	 5.00000000E-01	 5.00000000E-01	 1.00000000E+00
	 5.00000000E-01	 1.00000000E+00	 1.00000000E+00
	 1.00000000E+00	 7.50000000E-01	-5.96046000E-08
	 1.00000000E+00	 5.00000000E-01	 5.00000000E-01
	 1.00000000E+00	 7.50000000E-01	 1.00000000E+00
	 1.00000000E+00	 1.00000000E+00	 5.00000000E-01
	 7.50000000E-01	 1.00000000E+00	-5.96046000E-08
	 7.50000000E-01	 5.00000000E-01	-5.96046000E-08
	 7.50000000E-01	 5.00000000E-01	 1.00000000E+00
	 7.50000000E-01	 1.00000000E+00	 1.00000000E+00
	 5.00000000E-01	 7.50000000E-01	-5.96046000E-08
	 5.00000000E-01	 5.00000000E-01	 5.00000000E-01
	 5.00000000E-01	 7.50000000E-01	 1.00000000E+00
	 5.00000000E-01	 1.00000000E+00	 5.00000000E-01
	 1.00000000E+00	-1.49012000E-08	-5.96046000E-08
	 1.00000000E+00	-1.49012000E-08	 1.00000000E+00
	 5.00000000E-01	-1.49012000E-08	-5.96046000E-08
	 5.00000000E-01	-1.49012000E-08	 1.00000000E+00
	 1.00000000E+00	 2.50000000E-01	-5.96046000E-08
	 1.00000000E+00	-1.49012000E-08	 5.00000000E-01
	 1.00000000E+00	 2.50000000E-01	 1.00000000E+00
	 7.50000000E-01	-1.49012000E-08	-5.96046000E-08
	 7.50000000E-01	-1.49012000E-08	 1.00000000E+00
	 5.00000000E-01	 2.50000000E-01	-5.96046000E-08
	 5.00000000E-01	-1.49012000E-08	 5.00000000E-01
	 5.00000000E-01	 2.50000000E-01	 1.00000000E+00
	-7.45058000E-09	 1.00000000E+00	-5.96046000E-08
	-7.45058000E-09	 5.00000000E-01	-5.96046000E-08
	-7.45058000E-09	 5.00000000E-01	 1.00000000E+00
	-7.45058000E-09	 1.00000000E+00	 1.00000000E+00
	 2.50000000E-01	 1.00000000E+00	-5.96046000E-08
	 2.50000000E-01	 5.00000000E-01	-5.96046000E-08
	 2.50000000E-01	 5.00000000E-01	 1.00000000E+00
	 2.50000000E-01	 1.00000000E+00	 1.00000000E+00
	-7.45058000E-09	 7.50000000E-01	-5.96046000E-08
	-7.45058000E-09	 5.00000000E-01	 5.00000000E-01
	-7.45058000E-09	 7.50000000E-01	 1.00000000E+00
	-7.45058000E-09	 1.00000000E+00	 5.00000000E-01
	-7.45058000E-09	-1.49012000E-08	-5.96046000E-08
	-7.45058000E-09	-1.49012000E-08	 1.00000000E+00
	 2.50000000E-01	-1.49012000E-08	-5.96046000E-08
	 2.50000000E-01	-1.49012000E-08	 1.00000000E+00
	-7.45058000E-09	 2.50000000E-01	-5.96046000E-08
	-7.45058000E-09	-1.49012000E-08	 5.00000000E-01
	-7.45058000E-09	 2.50000000E-01	 1.00000000E+00
	 1.00000000E+00	 5.00000000E-01	 2.00000000E+00
	 1.00000000E+00	 1.00000000E+00	 2.00000000E+00
	 5.00000000E-01	 5.00000000E-01	 2.00000000E+00
	 5.00000000E-01	 1.00000000E+00	 2.00000000E+00
	 1.00000000E+00	 5.00000000E-01	 1.50000000E+00
	 1.00000000E+00	 7.50000000E-01	 2.00000000E+00
	 1.00000000E+00	 1.00000000E+00	 1.50000000E+00
	 7.50000000E-01	 5.00000000E-01	 2.00000000E+00
	 7.50000000E-01	 1.00000000E+00	 2.00000000E+00
	 5.00000000E-01	 5.00000000E-01	 1.50000000E+00
	 5.00000000E-01	 7.50000000E-01	 2.00000000E+00
	 5.00000000E-01	 1.00000000E+00	 1.50000000E+00
	 1.00000000E+00	-1.49012000E-08	 2.00000000E+00
	 5.00000000E-01	-1.49012000E-08	 2.00000000E+00
	 1.00000000E+00	-1.49012000E-08	 1.50000000E+00
	 1.00000000E+00	 2.50000000E-01	 2.00000000E+00
	 7.50000000E-01	-1.49012000E-08	 2.00000000E+00
	 5.00000000E-01	-1.49012000E-08	 1.50000000E+00
	 5.00000000E-01	 2.50000000E-01	 2.00000000E+00
	-7.45058000E-09	 5.00000000E-01	 2.00000000E+00
	-7.45058000E-09	 1.00000000E+00	 2.00000000E+00
	 2.50000000E-01	 5.00000000E-01	 2.00000000E+00
	 2.50000000E-01	 1.00000000E+00	 2.00000000E+00
	-7.45058000E-09	 5.00000000E-01	 1.50000000E+00
	-7.45058000E-09	 7.50000000E-01	 2.00000000E+00
	-7.45058000E-09	 1.00000000E+00	 1.50000000E+00
	-7.45058000E-09	-1.49012000E-08	 2.00000000E+00
	 2.50000000E-01	-1.49012000E-08	 2.00000000E+00
	-7.45058000E-09	-1.49012000E-08	 1.50000000E+00
	-7.45058000E-09	 2.50000000E-01	 2.00000000E+00
	 1.00000000E+00	 5.00000000E-01	 3.00000000E+00
	 1.00000000E+00	 1.00000000E+00	 3.00000000E+00
	 5.00000000E-01	 5.00000000E-01	 3.00000000E+00
	 5.00000000E-01	 1.00000000E+00	 3.00000000E+00
	 1.00000000E+00	 5.00000000E-01	 2.50000000E+00
	 1.00000000E+00	 7.50000000E-01	 3.00000000E+00
	 1.00000000E+00	 1.00000000E+00	 2.50000000E+00
	 7.50000000E-01	 5.00000000E-01	 3.00000000E+00
	 7.50000000E-01	 1.00000000E+00	 3.00000000E+00
	 5.00000000E-01	 5.00000000E-01	 2.50000000E+00
	 5.00000000E-01	 7.50000000E-01	 3.00000000E+00
	 5.00000000E-01	 1.00000000E+00	 2.50000000E+00
	 1.00000000E+00	-1.49012000E-08	 3.00000000E+00
	 5.00000000E-01	-1.49012000E-08	 3.00000000E+00
	 1.00000000E+00	-1.49012000E-08	 2.50000000E+00
	 1.00000000E+00	 2.50000000E-01	 3.00000000E+00
	 7.50000000E-01	-1.49012000E-08	 3.00000000E+00
	 5.00000000E-01	-1.49012000E-08	 2.50000000E+00
	 5.00000000E-01	 2.50000000E-01	 3.00000000E+00
	-7.45058000E-09	 5.00000000E-01	 3.00000000E+00
	-7.45058000E-09	 1.00000000E+00	 3.00000000E+00
	 2.50000000E-01	 5.00000000E-01	 3.00000000E+00
	 2.50000000E-01	 1.00000000E+00	 3.00000000E+00
	-7.45058000E-09	 5.00000000E-01	 2.50000000E+00
	-7.45058000E-09	 7.50000000E-01	 3.00000000E+00
	-7.45058000E-09	 1.00000000E+00	 2.50000000E+00
	-7.45058000E-09	-1.49012000E-08	 3.00000000E+00
	 2.50000000E-01	-1.49012000E-08	 3.00000000E+00
	-7.45058000E-09	-1.49012000E-08	 2.50000000E+00
	-7.45058000E-09	 2.50000000E-01	 3.00000000E+00
	 1.00000000E+00	 5.00000000E-01	 4.00000000E+00
	 1.00000000E+00	 1.00000000E+00	 4.00000000E+00
	 5.00000000E-01	 5.00000000E-01	 4.00000000E+00
	 5.00000000E-01	 1.00000000E+00	 4.00000000E+00
	 1.00000000E+00	 5.00000000E-01	 3.50000000E+00
	 1.00000000E+00	 7.50000000E-01	 4.00000000E+00
	 1.00000000E+00	 1.00000000E+00	 3.50000000E+00
	 7.50000000E-01	 5.00000000E-01	 4.00000000E+00
	 7.50000000E-01	 1.00000000E+00	 4.00000000E+00
	 5.00000000E-01	 5.00000000E-01	 3.50000000E+00
	 5.00000000E-01	 7.50000000E-01	 4.00000000E+00
	 5.00000000E-01	 1.00000000E+00	 3.50000000E+00
	 1.00000000E+00	-1.49012000E-08	 4.00000000E+00
	 5.00000000E-01	-1.49012000E-08	 4.00000000E+00
	 1.00000000E+00	-1.49012000E-08	 3.50000000E+00
	 1.00000000E+00	 2.50000000E-01	 4.00000000E+00
	 7.50000000E-01	-1.49012000E-08	 4.00000000E+00
	 5.00000000E-01	-1.49012000E-08	 3.50000000E+00
	 5.00000000E-01	 2.50000000E-01	 4.00000000E+00
	-7.45058000E-09	 5.00000000E-01	 4.00000000E+00
	-7.45058000E-09	 1.00000000E+00	 4.00000000E+00
	 2.50000000E-01	 5.00000000E-01	 4.00000000E+00
	 2.50000000E-01	 1.00000000E+00	 4.00000000E+00
	-7.45058000E-09	 5.00000000E-01	 3.50000000E+00
	-7.45058000E-09	 7.50000000E-01	 4.00000000E+00
	-7.45058000E-09	 1.00000000E+00	 3.50000000E+00
	-7.45058000E-09	-1.49012000E-08	 4.00000000E+00
	 2.50000000E-01	-1.49012000E-08	 4.00000000E+00
	-7.45058000E-09	-1.49012000E-08	 3.50000000E+00
	-7.45058000E-09	 2.50000000E-01	 4.00000000E+00
	 1.00000000E+00	 5.00000000E-01	 5.00000000E+00
	 1.00000000E+00	 1.00000000E+00	 5.00000000E+00
	 5.00000000E-01	 5.00000000E-01	 5.00000000E+00
	 5.00000000E-01	 1.00000000E+00	 5.00000000E+00
	 1.00000000E+00	 5.00000000E-01	 4.50000000E+00
	 1.00000000E+00	 7.50000000E-01	 5.00000000E+00
	 1.00000000E+00	 1.00000000E+00	 4.50000000E+00
	 7.50000000E-01	 5.00000000E-01	 5.00000000E+00
	 7.50000000E-01	 1.00000000E+00	 5.00000000E+00
	 5.00000000E-01	 5.00000000E-01	 4.50000000E+00
	 5.00000000E-01	 7.50000000E-01	 5.00000000E+00
	 5.00000000E-01	 1.00000000E+00	 4.50000000E+00
	 1.00000000E+00	-1.49012000E-08	 5.00000000E+00
	 5.00000000E-01	-1.49012000E-08	 5.00000000E+00
	 1.00000000E+00	-1.49012000E-08	 4.50000000E+00
	 1.00000000E+00	 2.50000000E-01	 5.00000000E+00
	 7.50000000E-01	-1.49012000E-08	 5.00000000E+00
	 5.00000000E-01	-1.49012000E-08	 4.50000000E+00
	 5.00000000E-01	 2.50000000E-01	 5.00000000E+00
	-7.45058000E-09	 5.00000000E-01	 5.00000000E+00
	-7.45058000E-09	 1.00000000E+00	 5.00000000E+00
	 2.50000000E-01	 5.00000000E-01	 5.00000000E+00
	 2.50000000E-01	 1.00000000E+00	 5.00000000E+00
	-7.45058000E-09	 5.00000000E-01	 4.50000000E+00
	-7.45058000E-09	 7.50000000E-01	 5.00000000E+00
	-7.45058000E-09	 1.00000000E+00	 4.50000000E+00
	-7.45058000E-09	-1.49012000E-08	 5.00000000E+00
	 2.50000000E-01	-1.49012000E-08	 5.00000000E+00
	-7.45058000E-09	-1.49012000E-08	 4.50000000E+00
	-7.45058000E-09	 2.50000000E-01	 5.00000000E+00
	 1.00000000E+00	 5.00000000E-01	 6.00000000E+00
	 1.00000000E+00	 1.00000000E+00	 6.00000000E+00
	 5.00000000E-01	 5.00000000E-01	 6.00000000E+00
	 5.00000000E-01	 1.00000000E+00	 6.00000000E+00
	 1.00000000E+00	 5.00000000E-01	 5.50000000E+00
	 1.00000000E+00	 7.50000000E-01	 6.00000000E+00
	 1.00000000E+00	 1.00000000E+00	 5.50000000E+00
	 7.50000000E-01	 5.00000000E-01	 6.00000000E+00
	 7.50000000E-01	 1.00000000E+00	 6.00000000E+00
	 5.00000000E-01	 5.00000000E-01	 5.50000000E+00
	 5.00000000E-01	 7.50000000E-01	 6.00000000E+00
	 5.00000000E-01	 1.00000000E+00	 5.50000000E+00
	 1.00000000E+00	-1.49012000E-08	 6.00000000E+00
	 5.00000000E-01	-1.49012000E-08	 6.00000000E+00
	 1.00000000E+00	-1.49012000E-08	 5.50000000E+00
	 1.00000000E+00	 2.50000000E-01	 6.00000000E+00
	 7.50000000E-01	-1.49012000E-08	 6.00000000E+00
	 5.00000000E-01	-1.49012000E-08	 5.50000000E+00
	 5.00000000E-01	 2.50000000E-01	 6.00000000E+00
	-7.45058000E-09	 5.00000000E-01	 6.00000000E+00
	-7.45058000E-09	 1.00000000E+00	 6.00000000E+00
	 2.50000000E-01	 5.00000000E-01	 6.00000000E+00
	 2.50000000E-01	 1.00000000E+00	 6.00000000E+00
	-7.45058000E-09	 5.00000000E-01	 5.50000000E+00
	-7.45058000E-09	 7.50000000E-01	 6.00000000E+00
	-7.45058000E-09	 1.00000000E+00	 5.50000000E+00
	-7.45058000E-09	-1.49012000E-08	 6.00000000E+00
	 2.50000000E-01	-1.49012000E-08	 6.00000000E+00
	-7.45058000E-09	-1.49012000E-08	 5.50000000E+00
	-7.45058000E-09	 2.50000000E-01	 6.00000000E+00
	 1.00000000E+00	 5.00000000E-01	 7.00000000E+00
[...]
POINT_DATA 522
FIELD U 1
	U 3 522 double
		 0.00000000E+00	 0.00000000E+00	 0.00000000E+00
		 0.00000000E+00	 0.00000000E+00	 0.00000000E+00
		 2.06397000E-08	-7.82946000E-07	-3.60122000E-07
		-1.84392000E-05	-1.86610000E-07	 4.51829000E-06
		 0.00000000E+00	 0.00000000E+00	 0.00000000E+00
		 0.00000000E+00	 0.00000000E+00	 0.00000000E+00
		-3.75486000E-08	-2.01485000E-05	-4.14363000E-07
		-2.02047000E-05	-1.92945000E-05	 5.21183000E-06
		 0.00000000E+00	 0.00000000E+00	 0.00000000E+00
		 5.79073000E-08	 1.10834000E-06	-1.79893000E-07
		-9.21086000E-06	-5.03269000E-07	 2.64373000E-06
		-9.01255000E-06	 5.81302000E-07	 4.82607000E-06
		 0.00000000E+00	 0.00000000E+00	 0.00000000E+00
		 0.00000000E+00	 0.00000000E+00	 0.00000000E+00
		-6.66170000E-09	-1.04504000E-05	-3.90223000E-07
		-1.92819000E-05	-9.67037000E-06	 3.06964000E-06
		 0.00000000E+00	 0.00000000E+00	 0.00000000E+00
		-6.51770000E-09	-7.75777000E-06	-1.88043000E-07
		-1.00781000E-05	-1.96811000E-05	 1.11852000E-06
		-8.68135000E-06	-8.00010000E-06	 4.95691000E-06
		 0.00000000E+00	 0.00000000E+00	 0.00000000E+00
		 1.84869000E-05	-2.78311000E-07	-5.23901000E-06
		 0.00000000E+00	 0.00000000E+00	 0.00000000E+00
		 2.01399000E-05	-1.94070000E-05	-6.03703000E-06
		 0.00000000E+00	 0.00000000E+00	 0.00000000E+00
		 9.13246000E-06	 4.69772000E-07	-5.20311000E-06
		 9.24776000E-06	-5.44170000E-07	-3.35990000E-06
		 0.00000000E+00	 0.00000000E+00	 0.00000000E+00
		 1.92791000E-05	-9.77516000E-06	-3.84548000E-06
		 0.00000000E+00	 0.00000000E+00	 0.00000000E+00
		 8.67689000E-06	-8.12342000E-06	-5.35356000E-06
		 1.00041000E-05	-1.97391000E-05	-1.93748000E-06
		 0.00000000E+00	 0.00000000E+00	 0.00000000E+00
		 0.00000000E+00	 0.00000000E+00	 0.00000000E+00
		-9.87497000E-08	-4.11274000E-05	-4.46340000E-07
		-2.09801000E-05	-3.95199000E-05	 4.43965000E-06
		 0.00000000E+00	 0.00000000E+00	 0.00000000E+00
		 0.00000000E+00	 0.00000000E+00	 0.00000000E+00
		-6.68073000E-08	-3.05319000E-05	-4.33104000E-07
		-2.05839000E-05	-2.95040000E-05	 7.18564000E-06
		 0.00000000E+00	 0.00000000E+00	 0.00000000E+00
		-7.59971000E-08	-1.62491000E-05	-2.15951000E-07
		-1.07100000E-05	-4.02895000E-05	-1.59578000E-06
		-7.48805000E-06	-1.58925000E-05	 4.78723000E-06
		 0.00000000E+00	 0.00000000E+00	 0.00000000E+00
		 2.07913000E-05	-3.96417000E-05	-5.32349000E-06
		 0.00000000E+00	 0.00000000E+00	 0.00000000E+00
		 2.04544000E-05	-2.96229000E-05	-8.04342000E-06
		 0.00000000E+00	 0.00000000E+00	 0.00000000E+00
		 7.34269000E-06	-1.60289000E-05	-5.24368000E-06
		 1.05133000E-05	-4.03552000E-05	 7.13662000E-07
		-2.02372000E-07	 2.46323000E-05	-6.05042000E-07
		-5.16994000E-05	 2.94345000E-05	-3.21163000E-05
		-2.06245000E-07	-3.35799000E-05	-6.68311000E-07
		-6.41993000E-05	-2.78690000E-05	-3.07239000E-05
		-7.56158000E-08	 1.49762000E-06	-4.98089000E-07
		-2.60043000E-05	 2.56557000E-05	-1.57544000E-05
		-3.16199000E-05	 4.26906000E-06	-5.85758000E-06
		-2.03072000E-07	-3.16944000E-06	-6.41326000E-07
		-5.79352000E-05	 2.23827000E-06	-3.48968000E-05
		-1.04648000E-07	-3.29731000E-05	-5.75888000E-07
		-3.21186000E-05	-3.20566000E-05	-1.87360000E-05
		-3.73323000E-05	-2.99271000E-05	-4.82137000E-06
		 5.12709000E-05	 2.93632000E-05	 3.09913000E-05
		 6.37536000E-05	-2.79045000E-05	 2.94747000E-05
		 3.14755000E-05	 4.17594000E-06	 4.86597000E-06
		 2.56117000E-05	 2.55896000E-05	 1.45659000E-05
		 5.74927000E-05	 2.19386000E-06	 3.36861000E-05
		 3.71150000E-05	-3.00251000E-05	 3.68512000E-06
		 3.17001000E-05	-3.20774000E-05	 1.74033000E-05
		-2.10182000E-07	-1.03319000E-04	-7.13417000E-07
		-7.44840000E-05	-9.63537000E-05	-3.22382000E-05
		-2.12466000E-07	-6.69923000E-05	-6.77631000E-07
		-6.92726000E-05	-6.09468000E-05	-2.61849000E-05
		-1.37761000E-07	-7.29517000E-05	-6.30979000E-07
		-3.75671000E-05	-1.01156000E-04	-2.46186000E-05
		-4.20506000E-05	-6.91928000E-05	-5.97763000E-06
		 7.40614000E-05	-9.63672000E-05	 3.08914000E-05
		 6.88470000E-05	-6.09592000E-05	 2.49082000E-05
		 4.17766000E-05	-6.92954000E-05	 4.74967000E-06
		 3.71486000E-05	-1.01154000E-04	 2.31957000E-05
		-3.30936000E-07	 2.71351000E-04	-4.35097000E-07
		-1.43851000E-04	 2.80942000E-04	-1.65675000E-04
		-2.52642000E-07	 1.09038000E-04	-3.11501000E-07
		-1.75315000E-04	 1.22441000E-04	-1.65521000E-04
		-3.04757000E-07	 9.76378000E-05	-6.32156000E-07
		-7.27881000E-05	 2.72164000E-04	-7.38643000E-05
		-8.55976000E-05	 1.05765000E-04	-8.66743000E-05
		-3.00299000E-07	 1.93584000E-04	-4.24927000E-07
		-1.59592000E-04	 2.05888000E-04	-1.76390000E-04
		-3.05449000E-07	 6.50447000E-07	-6.18750000E-07
		-8.75905000E-05	 1.11780000E-04	-8.46817000E-05
		-1.06933000E-04	 1.05322000E-05	-8.47739000E-05
		 1.43140000E-04	 2.81302000E-04	 1.64768000E-04
		 1.74822000E-04	 1.22922000E-04	 1.64871000E-04
		 8.49218000E-05	 1.05882000E-04	 8.55378000E-05
		 7.20407000E-05	 2.72437000E-04	 7.29994000E-05
		 1.59002000E-04	 2.06282000E-04	 1.75529000E-04
		 1.06308000E-04	 1.07512000E-05	 8.36480000E-05
		 8.70798000E-05	 1.12020000E-04	 8.41094000E-05
		-5.63568000E-08	-7.87984000E-05	 2.33633000E-08
		-2.01561000E-04	-6.41516000E-05	-1.65161000E-04
		-1.66527000E-07	 1.89378000E-05	-1.79680000E-07
		-1.88257000E-04	 3.25779000E-05	-1.52929000E-04
		-2.37730000E-07	-1.15598000E-04	-5.34584000E-07
		-1.00929000E-04	-7.51689000E-05	-9.65827000E-05
		-1.25185000E-04	-1.04493000E-04	-8.66051000E-05
		 2.01352000E-04	-6.34999000E-05	 1.65206000E-04
		 1.87826000E-04	 3.30873000E-05	 1.52600000E-04
		 1.24667000E-04	-1.04193000E-04	 8.55981000E-05
		 1.00791000E-04	-7.48815000E-05	 9.66501000E-05
		-1.24933000E-07	 1.19218000E-03	 9.01481000E-07
		-4.43985000E-04	 1.17898000E-03	-3.11640000E-04
		 8.67259000E-07	 7.37394000E-04	 1.41627000E-06
		-4.48863000E-04	 7.34521000E-04	-3.22538000E-04
		-3.30961000E-07	 6.22558000E-04	-1.16798000E-08
		-2.25025000E-04	 1.18322000E-03	-1.03463000E-04
		-2.55863000E-04	 6.23456000E-04	-2.64488000E-04
		 3.76649000E-07	 9.65150000E-04	 1.31173000E-06
		-4.46378000E-04	 9.60351000E-04	-3.49519000E-04
		 1.77952000E-07	 3.48839000E-04	 3.37196000E-07
		-2.23419000E-04	 7.33041000E-04	-1.40695000E-04
		-2.83043000E-04	 3.56417000E-04	-2.67343000E-04
		 4.43890000E-04	 1.18062000E-03	 3.14347000E-04
		 4.50633000E-04	 7.35898000E-04	 3.26127000E-04
		 2.55291000E-04	 6.24124000E-04	 2.64461000E-04
		 2.25152000E-04	 1.18361000E-03	 1.05474000E-04
		 4.47139000E-04	 9.62040000E-04	 3.52947000E-04
		 2.83336000E-04	 3.57069000E-04	 2.68067000E-04
		 2.25266000E-04	 7.33676000E-04	 1.43562000E-04
		 1.50446000E-06	 2.92761000E-04	 1.92668000E-06
		-4.43967000E-04	 2.89691000E-04	-3.10957000E-04
		 1.17438000E-06	 5.16336000E-04	 1.61295000E-06
		-4.45886000E-04	 5.13907000E-04	-2.93647000E-04
		 5.94133000E-07	 5.61696000E-05	 9.17255000E-07
		-2.19832000E-04	 2.89050000E-04	-1.58316000E-04
		-3.03022000E-04	 6.41761000E-05	-2.63454000E-04
		 4.47371000E-04	 2.90644000E-04	 3.15274000E-04
		 4.48628000E-04	 5.15220000E-04	 2.97287000E-04
		 3.04211000E-04	 6.48757000E-05	 2.65501000E-04
		 2.23005000E-04	 2.89654000E-04	 1.62254000E-04
		-1.69020000E-06	 2.75066000E-03	 9.28504000E-06
		-1.24814000E-03	 2.63871000E-03	 2.56193000E-04
		 4.07105000E-07	 1.60109000E-03	 5.93195000E-06
		-1.04460000E-03	 1.49649000E-03	 2.24374000E-04
		 2.01047000E-07	 1.98744000E-03	 3.47661000E-06
		-6.27294000E-04	 2.71918000E-03	 2.72378000E-04
		-7.69560000E-04	 1.92336000E-03	-1.85673000E-04
		-4.36306000E-07	 2.14952000E-03	 7.58582000E-06
		-1.14532000E-03	 2.04357000E-03	 1.61548000E-04
		 1.34827000E-06	 1.24589000E-03	 3.06963000E-06
		-5.22046000E-04	 1.57396000E-03	 1.80335000E-04
		-6.96124000E-04	 1.19437000E-03	-2.08806000E-04
		 1.24634000E-03	 2.64856000E-03	-2.38102000E-04
		 1.04783000E-03	 1.50287000E-03	-2.12781000E-04
		 7.70281000E-04	 1.92796000E-03	 1.94344000E-04
		 6.23143000E-04	 2.72528000E-03	-2.54269000E-04
		 1.14683000E-03	 2.05147000E-03	-1.46395000E-04
		 6.99985000E-04	 1.19790000E-03	 2.16187000E-04
		 5.23200000E-04	 1.57717000E-03	-1.68034000E-04
		 1.75207000E-06	 6.57661000E-04	 3.56158000E-06
		-8.32733000E-04	 5.59425000E-04	 2.51143000E-04
		 1.28401000E-06	 1.10481000E-03	 4.32192000E-06
		-9.38796000E-04	 1.00169000E-03	 2.77772000E-04
		 2.06217000E-06	 5.91320000E-04	 2.81186000E-06
		-4.17081000E-04	 6.34815000E-04	 1.47953000E-04
		-6.09464000E-04	 5.43034000E-04	-1.87061000E-04
		 8.37478000E-04	 5.63125000E-04	-2.43894000E-04
		 9.42634000E-04	 1.00605000E-03	-2.68915000E-04
		 6.14495000E-04	 5.44945000E-04	 1.93003000E-04
		 4.20875000E-04	 6.36071000E-04	-1.40456000E-04
		-1.66193000E-05	 1.88051000E-03	 1.46584000E-05
		-2.46502000E-03	 1.67592000E-03	 2.53716000E-03
		-9.10013000E-06	-3.32815000E-04	 7.22322000E-06
		-2.02042000E-03	-5.55786000E-04	 2.52988000E-03
		-8.89723000E-06	 2.95983000E-03	 1.60851000E-05
		-1.23200000E-03	 1.83898000E-03	 1.35772000E-03
		-1.85088000E-03	 2.79671000E-03	 1.22850000E-03
		-1.27667000E-05	 7.19298000E-04	 1.05728000E-05
		-2.24357000E-03	 4.99519000E-04	 2.45525000E-03
		-4.04287000E-06	 1.29193000E-03	 8.54632000E-06
		-1.01325000E-03	-3.83689000E-04	 1.27046000E-03
		-1.50341000E-03	 1.12760000E-03	 1.19537000E-03
		 2.43130000E-03	 1.69714000E-03	-2.50521000E-03
		 2.00021000E-03	-5.35633000E-04	-2.51156000E-03
		 1.83563000E-03	 2.80959000E-03	-1.19941000E-03
		 1.20198000E-03	 1.84683000E-03	-1.32665000E-03
		 2.21591000E-03	 5.19779000E-04	-2.43080000E-03
		 1.49610000E-03	 1.13563000E-03	-1.17907000E-03
		 9.95564000E-04	-3.72875000E-04	-1.25610000E-03
		-4.91739000E-06	-2.13960000E-03	-2.32108000E-06
		-1.58161000E-03	-2.35238000E-03	 2.52133000E-03
		-6.69149000E-06	-1.29366000E-03	 3.77138000E-06
		-1.79961000E-03	-1.51687000E-03	 2.60351000E-03
		-1.45333000E-06	-3.94906000E-05	 1.98236000E-06
		-7.97975000E-04	-2.18869000E-03	 1.18486000E-03
		-1.14682000E-03	-1.90562000E-04	 1.21807000E-03
		 1.57782000E-03	-2.33486000E-03	-2.52131000E-03
		 1.78932000E-03	-1.49360000E-03	-2.59373000E-03
		 1.14760000E-03	-1.86406000E-04	-1.21134000E-03
		 7.89731000E-04	-2.17780000E-03	-1.18788000E-03
		 2.92548000E-05	-5.76444000E-03	-3.95434000E-06
		-2.79618000E-03	-5.89238000E-03	 4.72377000E-03
		 2.72435000E-05	-8.52292000E-03	-2.64403000E-05
		-2.63181000E-03	-8.64045000E-03	 4.73595000E-03
		 1.42395000E-06	-1.13213000E-03	 1.43127000E-07
		-1.39149000E-03	-5.81398000E-03	 2.28474000E-03
		-2.80238000E-03	-1.29203000E-03	 3.83989000E-03
		 2.82946000E-05	-7.16621000E-03	-1.26054000E-05
		-2.71308000E-03	-7.29252000E-03	 4.73993000E-03
		 1.97267000E-06	-3.74239000E-03	-3.24872000E-06
		-1.31074000E-03	-8.56101000E-03	 2.28806000E-03
		-2.43563000E-03	-3.92517000E-03	 3.86267000E-03
		 2.88072000E-03	-5.78943000E-03	-4.76017000E-03
		 2.70600000E-03	-8.56827000E-03	-4.81724000E-03
		 2.79791000E-03	-1.23877000E-03	-3.82921000E-03
		 1.45101000E-03	-5.74797000E-03	-2.31079000E-03
		 2.79763000E-03	-7.20181000E-03	-4.79166000E-03
		 2.44537000E-03	-3.86822000E-03	-3.86686000E-03
		 1.36685000E-03	-8.52546000E-03	-2.34805000E-03
		 2.34548000E-05	-1.11091000E-02	-4.25520000E-05
		-2.49675000E-03	-1.12368000E-02	 4.69549000E-03
		 2.46602000E-05	-9.83701000E-03	-3.90377000E-05
		-2.56775000E-03	-9.94662000E-03	 4.75303000E-03
		 2.96031000E-06	-6.02065000E-03	-9.56896000E-06
		-1.22974000E-03	-1.11462000E-02	 2.22034000E-03
		-2.10926000E-03	-6.20713000E-03	 3.81590000E-03
		 2.54075000E-03	-1.11744000E-02	-4.78940000E-03
		 2.62195000E-03	-9.89277000E-03	-4.84492000E-03
		 2.11370000E-03	-6.15374000E-03	-3.84548000E-03
		 1.27951000E-03	-1.11247000E-02	-2.30560000E-03
		 2.01170000E-06	-1.60577000E-02	-4.70900000E-05
		-2.87296000E-03	-1.58182000E-02	 4.81053000E-03
		 9.13611000E-05	-1.89781000E-02	-9.84470000E-05
		-2.84464000E-03	-1.91275000E-02	 5.01826000E-03
		 1.51727000E-05	-1.09779000E-02	 2.94077000E-06
		-1.39686000E-03	-1.59277000E-02	 2.43972000E-03
		-2.78838000E-03	-1.10189000E-02	 4.91873000E-03
		 5.25472000E-05	-1.74890000E-02	-7.21011000E-05
		-2.85454000E-03	-1.74240000E-02	 4.87019000E-03
		 5.08322000E-05	-1.37837000E-02	-7.09098000E-05
		-1.32196000E-03	-1.90504000E-02	 2.43160000E-03
		-2.78594000E-03	-1.38440000E-02	 4.97512000E-03
		 2.74924000E-03	-1.61515000E-02	-5.08585000E-03
		 2.81772000E-03	-1.89576000E-02	-5.16326000E-03
		 2.82974000E-03	-1.09872000E-02	-5.05504000E-03
		 1.36590000E-03	-1.61401000E-02	-2.55807000E-03
		 2.77599000E-03	-1.75498000E-02	-5.13750000E-03
		 2.79412000E-03	-1.38018000E-02	-5.12962000E-03
		 1.44844000E-03	-1.89772000E-02	-2.62594000E-03
		 7.51182000E-05	-2.18808000E-02	-9.63162000E-05
		-2.81815000E-03	-2.20988000E-02	 5.07388000E-03
		 9.69199000E-05	-2.04368000E-02	-1.04307000E-04
		-2.83703000E-03	-2.06620000E-02	 5.08286000E-03
		 5.11549000E-05	-1.65565000E-02	-9.53287000E-05
		-1.38226000E-03	-2.20223000E-02	 2.43479000E-03
		-2.70526000E-03	-1.66549000E-02	 4.99821000E-03
		 2.85541000E-03	-2.17315000E-02	-5.15178000E-03
		 2.84214000E-03	-2.03479000E-02	-5.16036000E-03
		 2.75796000E-03	-1.65383000E-02	-5.11291000E-03
		 1.47631000E-03	-2.17904000E-02	-2.62174000E-03
		 0.00000000E+00	 0.00000000E+00	 0.00000000E+00
		 0.00000000E+00	 0.00000000E+00	 0.00000000E+00
		 7.09875000E-05	-1.13317000E-02	-1.49323000E-04
		-3.25799000E-03	-1.23221000E-02	 1.26794000E-02
		 0.00000000E+00	 0.00000000E+00	 0.00000000E+00
		 0.00000000E+00	 0.00000000E+00	 0.00000000E+00
		 6.38309000E-05	-1.37547000E-02	-1.78119000E-04
		-1.49006000E-03	-1.47960000E-02	 1.27717000E-02
		 0.00000000E+00	 0.00000000E+00	 0.00000000E+00
		 4.39152000E-05	-1.89729000E-03	-4.50461000E-05
		-1.59814000E-03	-1.15278000E-02	 6.32098000E-03
		-2.62893000E-03	-3.07874000E-03	 6.34192000E-03
		 0.00000000E+00	 0.00000000E+00	 0.00000000E+00
		 0.00000000E+00	 0.00000000E+00	 0.00000000E+00
		 6.90943000E-05	-1.28364000E-02	-1.67469000E-04
		-2.35921000E-03	-1.38466000E-02	 1.25703000E-02
		 0.00000000E+00	 0.00000000E+00	 0.00000000E+00
		 2.41465000E-05	-3.51868000E-03	-5.05974000E-05
		-7.12869000E-04	-1.39628000E-02	 6.19369000E-03
		-7.27764000E-04	-4.67813000E-03	 6.15074000E-03
		 0.00000000E+00	 0.00000000E+00	 0.00000000E+00
		 3.37130000E-03	-1.19353000E-02	-1.30344000E-02
		 0.00000000E+00	 0.00000000E+00	 0.00000000E+00
		 1.62282000E-03	-1.44049000E-02	-1.31893000E-02
		 0.00000000E+00	 0.00000000E+00	 0.00000000E+00
		 2.69679000E-03	-2.95520000E-03	-6.45023000E-03
		 1.73027000E-03	-1.13265000E-02	-6.64029000E-03
		 0.00000000E+00	 0.00000000E+00	 0.00000000E+00
		 2.48938000E-03	-1.34558000E-02	-1.29604000E-02
		 0.00000000E+00	 0.00000000E+00	 0.00000000E+00
		 7.77879000E-04	-4.55779000E-03	-6.25936000E-03
		 8.41188000E-04	-1.37635000E-02	-6.57119000E-03
		 0.00000000E+00	 0.00000000E+00	 0.00000000E+00
		 0.00000000E+00	 0.00000000E+00	 0.00000000E+00
		 5.04844000E-05	-1.44439000E-02	-1.58352000E-04
		 2.88547000E-04	-1.54103000E-02	 1.26745000E-02
		 0.00000000E+00	 0.00000000E+00	 0.00000000E+00
		 0.00000000E+00	 0.00000000E+00	 0.00000000E+00
		 5.70447000E-05	-1.43896000E-02	-1.77872000E-04
		-6.12597000E-04	-1.53954000E-02	 1.28479000E-02
		 0.00000000E+00	 0.00000000E+00	 0.00000000E+00
		 3.40487000E-06	-3.40207000E-03	-3.10872000E-05
		 1.69437000E-04	-1.46206000E-02	 6.02576000E-03
		 1.23068000E-03	-4.52431000E-03	 6.35944000E-03
		 0.00000000E+00	 0.00000000E+00	 0.00000000E+00
		-1.54566000E-04	-1.50371000E-02	-1.30424000E-02
		 0.00000000E+00	 0.00000000E+00	 0.00000000E+00
		 7.41034000E-04	-1.50071000E-02	-1.32640000E-02
		 0.00000000E+00	 0.00000000E+00	 0.00000000E+00
		-1.20479000E-03	-4.40028000E-03	-6.43275000E-03
		-5.51621000E-05	-1.44388000E-02	-6.35644000E-03
		 1.82542000E-04	-4.82016000E-02	-8.57370000E-04
		-4.51448000E-03	-4.95464000E-02	 2.31811000E-02
		 1.91590000E-04	-5.21340000E-02	-9.80796000E-04
		-2.99277000E-03	-5.34766000E-02	 2.30905000E-02
		 1.27120000E-04	-2.68964000E-02	-4.02443000E-04
		-2.16562000E-03	-4.87067000E-02	 1.11830000E-02
		-3.94230000E-03	-2.81325000E-02	 1.83202000E-02
		 1.88896000E-04	-5.03374000E-02	-9.29051000E-04
		-3.75186000E-03	-5.16790000E-02	 2.30436000E-02
		 1.19838000E-04	-3.01178000E-02	-4.71851000E-04
		-1.39741000E-03	-5.26361000E-02	 1.09926000E-02
		-2.25932000E-03	-3.13510000E-02	 1.82925000E-02
		 4.87979000E-03	-4.83003000E-02	-2.49806000E-02
		 3.38464000E-03	-5.22630000E-02	-2.51380000E-02
		 4.17531000E-03	-2.73690000E-02	-1.92036000E-02
		 2.52725000E-03	-4.80799000E-02	-1.29193000E-02
		 4.13747000E-03	-5.04604000E-02	-2.49822000E-02
		 2.50593000E-03	-3.05972000E-02	-1.93165000E-02
		 1.78677000E-03	-5.20336000E-02	-1.29717000E-02
		 1.80953000E-04	-5.45807000E-02	-1.02786000E-03
		-1.47180000E-03	-5.58814000E-02	 2.30064000E-02
		 1.87645000E-04	-5.35261000E-02	-1.01368000E-03
		-2.22985000E-03	-5.48868000E-02	 2.31679000E-02
		 1.02247000E-04	-3.16672000E-02	-4.76248000E-04
		-6.54591000E-04	-5.50508000E-02	 1.07986000E-02
		-5.92119000E-04	-3.28875000E-02	 1.82458000E-02
		 1.88748000E-03	-5.47195000E-02	-2.51481000E-02
		 2.63585000E-03	-5.36558000E-02	-2.52864000E-02
		 8.41106000E-04	-3.21684000E-02	-1.92765000E-02
		 1.03278000E-03	-5.44878000E-02	-1.28687000E-02
		 3.62157000E-04	-1.05351000E-01	-2.49560000E-03
		-5.50706000E-03	-1.06995000E-01	 3.03468000E-02
		 3.87458000E-04	-1.10596000E-01	-2.72897000E-03
		-4.29851000E-03	-1.12344000E-01	 3.01507000E-02
		 2.64196000E-04	-7.45345000E-02	-1.54635000E-03
		-2.56772000E-03	-1.06024000E-01	 1.39383000E-02
		-5.03000000E-03	-7.60538000E-02	 2.71702000E-02
		 3.78986000E-04	-1.08125000E-01	-2.61724000E-03
		-4.90198000E-03	-1.09830000E-01	 3.01496000E-02
		 2.78140000E-04	-7.91518000E-02	-1.72768000E-03
		-1.98212000E-03	-1.11320000E-01	 1.36221000E-02
		-3.67421000E-03	-8.06710000E-02	 2.70322000E-02
		 6.19350000E-03	-1.04792000E-01	-3.54011000E-02
		 5.08592000E-03	-1.10067000E-01	-3.57102000E-02
		 5.55277000E-03	-7.43284000E-02	-3.03514000E-02
		 3.27795000E-03	-1.04924000E-01	-1.89389000E-02
		 5.64079000E-03	-1.07578000E-01	-3.54761000E-02
		 4.25091000E-03	-7.89553000E-02	-3.05741000E-02
		 2.73667000E-03	-1.10193000E-01	-1.91200000E-02
		 3.88385000E-04	-1.14715000E-01	-2.89298000E-03
		-3.21866000E-03	-1.16559000E-01	 2.99427000E-02
		 3.90238000E-04	-1.12816000E-01	-2.82369000E-03
		-3.76037000E-03	-1.14492000E-01	 3.01739000E-02
		 2.81800000E-04	-8.24476000E-02	-1.83233000E-03
		-1.38822000E-03	-1.15484000E-01	 1.32984000E-02
		-2.36847000E-03	-8.39737000E-02	 2.68881000E-02
		 3.97553000E-03	-1.14232000E-01	-3.58603000E-02
		 4.53344000E-03	-1.12281000E-01	-3.59290000E-02
		 2.92730000E-03	-8.22726000E-02	-3.06404000E-02
		 2.17106000E-03	-1.14353000E-01	-1.91471000E-02
		 6.61957000E-04	-1.78119000E-01	-5.14658000E-03
		-5.96222000E-03	-1.79904000E-01	 3.37955000E-02
		 6.91853000E-04	-1.84436000E-01	-5.47548000E-03
		-5.36060000E-03	-1.86681000E-01	 3.35193000E-02
		 4.67442000E-04	-1.40092000E-01	-3.69951000E-03
		-2.64794000E-03	-1.78920000E-01	 1.42712000E-02
		-5.84348000E-03	-1.41916000E-01	 3.25348000E-02
		 6.81579000E-04	-1.81326000E-01	-5.31511000E-03
		-5.64872000E-03	-1.83291000E-01	 3.36271000E-02
		 4.89661000E-04	-1.45965000E-01	-4.02639000E-03
		-2.21423000E-03	-1.85450000E-01	 1.39311000E-02
		-4.94571000E-03	-1.47739000E-01	 3.23399000E-02
		 7.12653000E-03	-1.76888000E-01	-4.41433000E-02
		 6.46146000E-03	-1.83076000E-01	-4.45167000E-02
		 6.75565000E-03	-1.39180000E-01	-4.00014000E-02
		 3.88797000E-03	-1.77428000E-01	-2.45725000E-02
		 6.80083000E-03	-1.80065000E-01	-4.43129000E-02
		 5.86596000E-03	-1.45036000E-01	-4.03605000E-02
		 3.56237000E-03	-1.83655000E-01	-2.48968000E-02
		 5.61545000E-04	-1.90117000E-01	-5.75737000E-03
		-4.66027000E-03	-1.92698000E-01	 3.31993000E-02
		 6.30287000E-04	-1.87323000E-01	-5.62682000E-03
		-5.00720000E-03	-1.90264000E-01	 3.34249000E-02
		 4.66574000E-04	-1.50934000E-01	-4.31806000E-03
		-2.16975000E-03	-1.91280000E-01	 1.35517000E-02
		-3.90818000E-03	-1.52572000E-01	 3.20685000E-02
		 5.80735000E-03	-1.88626000E-01	-4.47455000E-02