<?xml version="1.0"?>
<VTKFile type="UnstructuredGrid" version="0.1" byte_order="LittleEndian">
	<UnstructuredGrid>
		<Piece NumberOfPoints="522" NumberOfCells="64">
			<Points>
				<DataArray type="Float64" NumberOfComponents="3" format="ascii">
					 1.00000000E+00	 1.00000000E+00	-5.96046000E-08
					 1.00000000E+00	 5.00000000E-01	-5.96046000E-08
					 1.00000000E+00	 5.00000000E-01	 1.00000000E+00
					 1.00000000E+00	 1.00000000E+00	 1.00000000E+00
					 5.00000000E-01	 1.00000000E+00	-5.96046000E-08
					 5.00000000E-01	 5.00000000E-01	-5.96046000E-08
					 5.00000000E-01	 5.00000000E-01	 1.00000000E+00
					 5.00000000E-01	 1.00000000E+00	 1.00000000E+00
					 1.00000000E+00	 7.50000000E-01	-5.96046000E-08
					 1.00000000E+00	 5.00000000E-01	 5.00000000E-01
					 1.00000000E+00	 7.50000000E-01	 1.00000000E+00
					 1.00000000E+00	 1.00000000E+00	 5.00000000E-01
					 7.50000000E-01	 1.00000000E+00	-5.96046000E-08
					 7.50000000E-01	 5.00000000E-01	-5.96046000E-08
					 7.50000000E-01	 5.00000000E-01	 1.00000000E+00
					 7.50000000E-01	 1.00000000E+00	 1.00000000E+00
					 5.00000000E-01	 7.50000000E-01	-5.96046000E-08
					 5.00000000E-01	 5.00000000E-01	 5.00000000E-01
					 5.00000000E-01	 7.50000000E-01	 1.00000000E+00
					 5.00000000E-01	 1.00000000E+00	 5.00000000E-01
					 1.00000000E+00	-1.49012000E-08	-5.96046000E-08
					 1.00000000E+00	-1.49012000E-08	 1.00000000E+00
					 5.00000000E-01	-1.49012000E-08	-5.96046000E-08
					 5.00000000E-01	-1.49012000E-08	 1.00000000E+00
					 1.00000000E+00	 2.50000000E-01	-5.96046000E-08
					 1.00000000E+00	-1.49012000E-08	 5.00000000E-01
					 1.00000000E+00	 2.50000000E-01	 1.00000000E+00
					 7.50000000E-01	-1.49012000E-08	-5.96046000E-08
					 7.50000000E-01	-1.49012000E-08	 1.00000000E+00
					 5.00000000E-01	 2.50000000E-01	-5.96046000E-08
					 5.00000000E-01	-1.49012000E-08	 5.00000000E-01
					 5.00000000E-01	 2.50000000E-01	 1.00000000E+00
					-7.45058000E-09	 1.00000000E+00	-5.96046000E-08
					-7.45058000E-09	 5.00000000E-01	-5.96046000E-08
					-7.45058000E-09	 5.00000000E-01	 1.00000000E+00
					-7.45058000E-09	 1.00000000E+00	 1.00000000E+00
					 2.50000000E-01	 1.00000000E+00	-5.96046000E-08
					 2.50000000E-01	 5.00000000E-01	-5.96046000E-08
					 2.50000000E-01	 5.00000000E-01	 1.00000000E+00
					 2.50000000E-01	 1.00000000E+00	 1.00000000E+00
					-7.45058000E-09	 7.50000000E-01	-5.96046000E-08
					-7.45058000E-09	 5.00000000E-01	 5.00000000E-01
					-7.45058000E-09	 7.50000000E-01	 1.00000000E+00
					-7.45058000E-09	 1.00000000E+00	 5.00000000E-01
					-7.45058000E-09	-1.49012000E-08	-5.96046000E-08
					-7.45058000E-09	-1.49012000E-08	 1.00000000E+00
					 2.50000000E-01	-1.49012000E-08	-5.96046000E-08
					 2.50000000E-01	-1.49012000E-08	 1.00000000E+00
					-7.45058000E-09	 2.50000000E-01	-5.96046000E-08
					-7.45058000E-09	-1.49012000E-08	 5.00000000E-01
					-7.45058000E-09	 2.50000000E-01	 1.00000000E+00
					 1.00000000E+00	 5.00000000E-01	 2.00000000E+00
					 1.00000000E+00	 1.00000000E+00	 2.00000000E+00
					 5.00000000E-01	 5.00000000E-01	 2.00000000E+00
					 5.00000000E-01	 1.00000000E+00	 2.00000000E+00
					 1.00000000E+00	 5.00000000E-01	 1.50000000E+00
					 1.00000000E+00	 7.50000000E-01	 2.00000000E+00
					 1.00000000E+00	 1.00000000E+00	 1.50000000E+00
					 7.50000000E-01	 5.00000000E-01	 2.00000000E+00
					 7.50000000E-01	 1.00000000E+00	 2.00000000E+00
					 5.00000000E-01	 5.00000000E-01	 1.50000000E+00
					 5.00000000E-01	 7.50000000E-01	 2.00000000E+00
					 5.00000000E-01	 1.00000000E+00	 1.50000000E+00
					 1.00000000E+00	-1.49012000E-08	 2.00000000E+00
					 5.00000000E-01	-1.49012000E-08	 2.00000000E+00
					 1.00000000E+00	-1.49012000E-08	 1.50000000E+00
					 1.00000000E+00	 2.50000000E-01	 2.00000000E+00
					 7.50000000E-01	-1.49012000E-08	 2.00000000E+00
					 5.00000000E-01	-1.49012000E-08	 1.50000000E+00
					 5.00000000E-01	 2.50000000E-01	 2.00000000E+00
					-7.45058000E-09	 5.00000000E-01	 2.00000000E+00
					-7.45058000E-09	 1.00000000E+00	 2.00000000E+00
					 2.50000000E-01	 5.00000000E-01	 2.00000000E+00
					 2.50000000E-01	 1.00000000E+00	 2.00000000E+00
					-7.45058000E-09	 5.00000000E-01	 1.50000000E+00
					-7.45058000E-09	 7.50000000E-01	 2.00000000E+00
					-7.45058000E-09	 1.00000000E+00	 1.50000000E+00
					-7.45058000E-09	-1.49012000E-08	 2.00000000E+00
					 2.50000000E-01	-1.49012000E-08	 2.00000000E+00
					-7.45058000E-09	-1.49012000E-08	 1.50000000E+00
					-7.45058000E-09	 2.50000000E-01	 2.00000000E+00
					 1.00000000E+00	 5.00000000E-01	 3.00000000E+00
					 1.00000000E+00	 1.00000000E+00	 3.00000000E+00
					 5.00000000E-01	 5.00000000E-01	 3.00000000E+00
					 5.00000000E-01	 1.00000000E+00	 3.00000000E+00
					 1.00000000E+00	 5.00000000E-01	 2.50000000E+00
					 1.00000000E+00	 7.50000000E-01	 3.00000000E+00
					 1.00000000E+00	 1.00000000E+00	 2.50000000E+00
					 7.50000000E-01	 5.00000000E-01	 3.00000000E+00
					 7.50000000E-01	 1.00000000E+00	 3.00000000E+00
					 5.00000000E-01	 5.00000000E-01	 2.50000000E+00
					 5.00000000E-01	 7.50000000E-01	 3.00000000E+00
					 5.00000000E-01	 1.00000000E+00	 2.50000000E+00
					 1.00000000E+00	-1.49012000E-08	 3.00000000E+00
					 5.00000000E-01	-1.49012000E-08	 3.00000000E+00
					 1.00000000E+00	-1.49012000E-08	 2.50000000E+00
					 1.00000000E+00	 2.50000000E-01	 3.00000000E+00
					 7.50000000E-01	-1.49012000E-08	 3.00000000E+00
					 5.00000000E-01	-1.49012000E-08	 2.50000000E+00
					 5.00000000E-01	 2.50000000E-01	 3.00000000E+00
					-7.45058000E-09	 5.00000000E-01	 3.00000000E+00
					-7.45058000E-09	 1.00000000E+00	 3.00000000E+00
					 2.50000000E-01	 5.00000000E-01	 3.00000000E+00
					 2.50000000E-01	 1.00000000E+00	 3.00000000E+00
					-7.45058000E-09	 5.00000000E-01	 2.50000000E+00
					-7.45058000E-09	 7.50000000E-01	 3.00000000E+00
					-7.45058000E-09	 1.00000000E+00	 2.50000000E+00
					-7.45058000E-09	-1.49012000E-08	 3.00000000E+00
					 2.50000000E-01	-1.49012000E-08	 3.00000000E+00
					-7.45058000E-09	-1.49012000E-08	 2.50000000E+00
					-7.45058000E-09	 2.50000000E-01	 3.00000000E+00
					 1.00000000E+00	 5.00000000E-01	 4.00000000E+00
					 1.00000000E+00	 1.00000000E+00	 4.00000000E+00
					 5.00000000E-01	 5.00000000E-01	 4.00000000E+00
					 5.00000000E-01	 1.00000000E+00	 4.00000000E+00
					 1.00000000E+00	 5.00000000E-01	 3.50000000E+00
					 1.00000000E+00	 7.50000000E-01	 4.00000000E+00
					 1.00000000E+00	 1.00000000E+00	 3.50000000E+00
					 7.50000000E-01	 5.00000000E-01	 4.00000000E+00
					 7.50000000E-01	 1.00000000E+00	 4.00000000E+00
					 5.00000000E-01	 5.00000000E-01	 3.50000000E+00
					 5.00000000E-01	 7.50000000E-01	 4.00000000E+00
					 5.00000000E-01	 1.00000000E+00	 3.50000000E+00
					 1.00000000E+00	-1.49012000E-08	 4.00000000E+00
					 5.00000000E-01	-1.49012000E-08	 4.00000000E+00
					 1.00000000E+00	-1.49012000E-08	 3.50000000E+00
					 1.00000000E+00	 2.50000000E-01	 4.00000000E+00
					 7.50000000E-01	-1.49012000E-08	 4.00000000E+00
					 5.00000000E-01	-1.49012000E-08	 3.50000000E+00
					 5.00000000E-01	 2.50000000E-01	 4.00000000E+00
					-7.45058000E-09	 5.00000000E-01	 4.00000000E+00
					-7.45058000E-09	 1.00000000E+00	 4.00000000E+00
					 2.50000000E-01	 5.00000000E-01	 4.00000000E+00
					 2.50000000E-01	 1.00000000E+00	 4.00000000E+00
					-7.45058000E-09	 5.00000000E-01	 3.50000000E+00
					-7.45058000E-09	 7.50000000E-01	 4.00000000E+00
					-7.45058000E-09	 1.00000000E+00	 3.50000000E+00
					-7.45058000E-09	-1.49012000E-08	 4.00000000E+00
					 2.50000000E-01	-1.49012000E-08	 4.00000000E+00
					-7.45058000E-09	-1.49012000E-08	 3.50000000E+00
					-7.45058000E-09	 2.50000000E-01	 4.00000000E+00
					 1.00000000E+00	 5.00000000E-01	 5.00000000E+00
					 1.00000000E+00	 1.00000000E+00	 5.00000000E+00
					 5.00000000E-01	 5.00000000E-01	 5.00000000E+00
					 5.00000000E-01	 1.00000000E+00	 5.00000000E+00
					 1.00000000E+00	 5.00000000E-01	 4.50000000E+00
					 1.00000000E+00	 7.50000000E-01	 5.00000000E+00
					 1.00000000E+00	 1.00000000E+00	 4.50000000E+00
					 7.50000000E-01	 5.00000000E-01	 5.00000000E+00
					 7.50000000E-01	 1.00000000E+00	 5.00000000E+00
					 5.00000000E-01	 5.00000000E-01	 4.50000000E+00
					 5.00000000E-01	 7.50000000E-01	 5.00000000E+00
					 5.00000000E-01	 1.00000000E+00	 4.50000000E+00
					 1.00000000E+00	-1.49012000E-08	 5.00000000E+00
					 5.00000000E-01	-1.49012000E-08	 5.00000000E+00
					 1.00000000E+00	-1.49012000E-08	 4.50000000E+00
					 1.00000000E+00	 2.50000000E-01	 5.00000000E+00
					 7.50000000E-01	-1.49012000E-08	 5.00000000E+00
					 5.00000000E-01	-1.49012000E-08	 4.50000000E+00
					 5.00000000E-01	 2.50000000E-01	 5.00000000E+00
					-7.45058000E-09	 5.00000000E-01	 5.00000000E+00
					-7.45058000E-09	 1.00000000E+00	 5.00000000E+00
					 2.50000000E-01	 5.00000000E-01	 5.00000000E+00
					 2.50000000E-01	 1.00000000E+00	 5.00000000E+00
					-7.45058000E-09	 5.00000000E-01	 4.50000000E+00
					-7.45058000E-09	 7.50000000E-01	 5.00000000E+00
					-7.45058000E-09	 1.00000000E+00	 4.50000000E+00
					-7.45058000E-09	-1.49012000E-08	 5.00000000E+00
					 2.50000000E-01	-1.49012000E-08	 5.00000000E+00
					-7.45058000E-09	-1.49012000E-08	 4.50000000E+00
					-7.45058000E-09	 2.50000000E-01	 5.00000000E+00
					 1.00000000E+00	 5.00000000E-01	 6.00000000E+00
					 1.00000000E+00	 1.00000000E+00	 6.00000000E+00
					 5.00000000E-01	 5.00000000E-01	 6.00000000E+00
					 5.00000000E-01	 1.00000000E+00	 6.00000000E+00
					 1.00000000E+00	 5.00000000E-01	 5.50000000E+00
					 1.00000000E+00	 7.50000000E-01	 6.00000000E+00
					 1.00000000E+00	 1.00000000E+00	 5.50000000E+00
					 7.50000000E-01	 5.00000000E-01	 6.00000000E+00
					 7.50000000E-01	 1.00000000E+00	 6.00000000E+00
					 5.00000000E-01	 5.00000000E-01	 5.50000000E+00
					 5.00000000E-01	 7.50000000E-01	 6.00000000E+00
					 5.00000000E-01	 1.00000000E+00	 5.50000000E+00
					 1.00000000E+00	-1.49012000E-08	 6.00000000E+00
[...]
			<PointData>
				<DataArray type="Float32" Name="U" NumberOfComponents="3" ComponentName0="D1" ComponentName1="D2" ComponentName2="D3" format="ascii">
					 0.00000000E+00	 0.00000000E+00	 0.00000000E+00
					 0.00000000E+00	 0.00000000E+00	 0.00000000E+00
					 2.19864000E-05	-2.65282000E-03	-3.20724000E-05
					-7.71029000E-05	-2.70249000E-03	 1.87504000E-03
					 0.00000000E+00	 0.00000000E+00	 0.00000000E+00
					 0.00000000E+00	 0.00000000E+00	 0.00000000E+00
					 1.16363000E-05	-2.63594000E-03	-1.12151000E-05
					 7.03266000E-05	-2.76761000E-03	 1.91811000E-03
					 0.00000000E+00	 0.00000000E+00	 0.00000000E+00
					 1.77253000E-05	-7.51219000E-04	-9.14666000E-06
					-4.29554000E-05	-2.64981000E-03	 8.77511000E-04
					-2.00826000E-04	-8.99409000E-04	 1.05299000E-03
					 0.00000000E+00	 0.00000000E+00	 0.00000000E+00
					 0.00000000E+00	 0.00000000E+00	 0.00000000E+00
					 1.04278000E-05	-2.71601000E-03	-2.19389000E-05
					 1.22850000E-05	-2.77059000E-03	 1.88967000E-03
					 0.00000000E+00	 0.00000000E+00	 0.00000000E+00
					 1.58013000E-05	-8.29576000E-04	-4.58668000E-07
					 3.55237000E-05	-2.64568000E-03	 9.01904000E-04
					 6.23935000E-05	-9.94011000E-04	 1.02661000E-03
					 0.00000000E+00	 0.00000000E+00	 0.00000000E+00
					 7.45116000E-05	-2.72351000E-03	-1.90415000E-03
					 0.00000000E+00	 0.00000000E+00	 0.00000000E+00
					-7.75568000E-05	-2.72869000E-03	-1.94991000E-03
					 0.00000000E+00	 0.00000000E+00	 0.00000000E+00
					 2.40586000E-04	-9.05802000E-04	-1.09203000E-03
					 4.25732000E-05	-2.61760000E-03	-8.80179000E-04
					 0.00000000E+00	 0.00000000E+00	 0.00000000E+00
					 1.11782000E-05	-2.81834000E-03	-1.93221000E-03
					 0.00000000E+00	 0.00000000E+00	 0.00000000E+00
					-6.79864000E-05	-9.86678000E-04	-1.03863000E-03
					-3.72088000E-05	-2.65378000E-03	-9.29135000E-04
					 0.00000000E+00	 0.00000000E+00	 0.00000000E+00
					 0.00000000E+00	 0.00000000E+00	 0.00000000E+00
					-1.01264000E-05	-2.47391000E-03	-1.71685000E-05
					 3.02596000E-04	-2.55428000E-03	 1.86368000E-03
					 0.00000000E+00	 0.00000000E+00	 0.00000000E+00
					 0.00000000E+00	 0.00000000E+00	 0.00000000E+00
					 1.02182000E-05	-2.58642000E-03	-6.02001000E-06
					 1.64679000E-04	-2.68078000E-03	 1.89185000E-03
					 0.00000000E+00	 0.00000000E+00	 0.00000000E+00
					-9.98944000E-06	-6.53142000E-04	 2.61026000E-06
					 1.49396000E-04	-2.49982000E-03	 8.65017000E-04
					 3.39823000E-04	-8.07473000E-04	 1.03959000E-03
					 0.00000000E+00	 0.00000000E+00	 0.00000000E+00
					-2.67839000E-04	-2.58533000E-03	-1.92180000E-03
					 0.00000000E+00	 0.00000000E+00	 0.00000000E+00
					-1.80368000E-04	-2.69832000E-03	-1.91058000E-03
					 0.00000000E+00	 0.00000000E+00	 0.00000000E+00
					-3.19307000E-04	-8.14207000E-04	-1.04123000E-03
					-1.43154000E-04	-2.47068000E-03	-9.37437000E-04
					 5.76015000E-06	-8.07270000E-03	-3.93902000E-05
					 3.04653000E-04	-8.13680000E-03	 2.56316000E-03
					 3.91753000E-06	-7.81844000E-03	-5.51532000E-05
					 2.80514000E-04	-7.83817000E-03	 2.57089000E-03
					-9.43708000E-06	-5.21941000E-03	-1.89827000E-05
					 1.31388000E-04	-8.10386000E-03	 1.18224000E-03
					 7.99464000E-05	-5.28663000E-03	 2.33956000E-03
					 2.16887000E-06	-7.92335000E-03	-4.03604000E-05
					 2.93682000E-04	-7.96585000E-03	 2.58106000E-03
					-4.03306000E-06	-5.08216000E-03	-2.66578000E-05
					 1.42783000E-04	-7.82905000E-03	 1.24581000E-03
					 2.00209000E-04	-5.12734000E-03	 2.36148000E-03
					-2.44919000E-04	-8.10505000E-03	-2.65939000E-03
					-2.67974000E-04	-7.85620000E-03	-2.61026000E-03
					-1.00849000E-04	-5.29326000E-03	-2.41461000E-03
					-9.77773000E-05	-8.10883000E-03	-1.31556000E-03
					-2.59672000E-04	-7.92610000E-03	-2.66887000E-03
					-1.76161000E-04	-5.14832000E-03	-2.43790000E-03
					-1.30155000E-04	-7.81947000E-03	-1.32054000E-03
					 4.85107000E-06	-7.48812000E-03	-8.68825000E-06
					 3.26533000E-04	-7.57971000E-03	 2.53917000E-03
					 3.08517000E-06	-7.62756000E-03	-5.07545000E-05
					 3.20297000E-04	-7.70006000E-03	 2.54344000E-03
					 9.10841000E-06	-4.84404000E-03	-2.41699000E-05
					 1.59282000E-04	-7.51174000E-03	 1.31063000E-03
					 2.59284000E-04	-4.91903000E-03	 2.34573000E-03
					-3.23707000E-04	-7.55523000E-03	-2.62510000E-03
					-3.04338000E-04	-7.66830000E-03	-2.62711000E-03
					-2.63484000E-04	-4.89770000E-03	-2.39850000E-03
					-1.62636000E-04	-7.53542000E-03	-1.31705000E-03
					-1.58136000E-05	-1.39378000E-02	-2.08858000E-05
					 5.97645000E-04	-1.40083000E-02	 2.93089000E-03
					 3.00541000E-05	-1.32861000E-02	-3.93604000E-05
					 7.13220000E-04	-1.33674000E-02	 2.90634000E-03
					 4.20870000E-05	-1.09193000E-02	-3.20716000E-05
					 3.00813000E-04	-1.39431000E-02	 1.42876000E-03
					 4.36478000E-04	-1.09809000E-02	 2.71953000E-03
					 1.64235000E-05	-1.36247000E-02	-1.17706000E-05
					 6.36414000E-04	-1.37068000E-02	 2.93835000E-03
					 3.22643000E-05	-1.04840000E-02	-5.95492000E-05
					 3.64447000E-04	-1.33305000E-02	 1.44687000E-03
					 5.09320000E-04	-1.04940000E-02	 2.72954000E-03
					-5.92070000E-04	-1.39874000E-02	-2.98964000E-03
					-6.65913000E-04	-1.32886000E-02	-2.97846000E-03
					-4.01483000E-04	-1.09478000E-02	-2.76909000E-03
					-3.15732000E-04	-1.39356000E-02	-1.48097000E-03
					-6.28133000E-04	-1.36552000E-02	-3.00794000E-03
					-4.59402000E-04	-1.04826000E-02	-2.79133000E-03
					-3.20231000E-04	-1.32964000E-02	-1.53899000E-03
					 2.89468000E-05	-1.25813000E-02	-4.24024000E-05
					 7.84695000E-04	-1.26431000E-02	 2.91145000E-03
					 2.96068000E-05	-1.29472000E-02	-2.52915000E-05
					 7.53897000E-04	-1.30095000E-02	 2.90492000E-03
					 1.05771000E-05	-9.96390000E-03	-5.34587000E-05
					 4.33982000E-04	-1.26004000E-02	 1.49114000E-03
					 5.63830000E-04	-1.00256000E-02	 2.70185000E-03
					-7.26807000E-04	-1.25775000E-02	-2.97881000E-03
					-6.95609000E-04	-1.29765000E-02	-2.95275000E-03
					-4.54063000E-04	-1.00139000E-02	-2.78608000E-03
					-3.27322000E-04	-1.25511000E-02	-1.55822000E-03
					 5.72713000E-05	-2.07020000E-02	-5.51637000E-05
					 8.49739000E-04	-2.07672000E-02	 3.47519000E-03
					 5.22112000E-05	-1.98671000E-02	 5.07878000E-05
					 9.00792000E-04	-1.98890000E-02	 3.53541000E-03
					 7.02927000E-06	-1.71923000E-02	-2.55543000E-05
					 4.60669000E-04	-2.07306000E-02	 1.71537000E-03
					 7.31352000E-04	-1.72721000E-02	 3.24739000E-03
					 3.66746000E-05	-2.02751000E-02	-2.22801000E-05
					 8.90302000E-04	-2.03351000E-02	 3.48623000E-03
					 1.80887000E-06	-1.64381000E-02	 1.51085000E-05
					 4.80487000E-04	-1.98668000E-02	 1.77646000E-03
					 7.84779000E-04	-1.65081000E-02	 3.26480000E-03
					-8.02152000E-04	-2.07513000E-02	-3.53520000E-03
					-8.50049000E-04	-1.98765000E-02	-3.51856000E-03
					-7.20454000E-04	-1.72203000E-02	-3.30562000E-03
					-3.81663000E-04	-2.07218000E-02	-1.76145000E-03
					-8.06433000E-04	-2.03162000E-02	-3.49627000E-03
					-8.02707000E-04	-1.64331000E-02	-3.26075000E-03
					-3.86222000E-04	-1.98636000E-02	-1.70774000E-03
					 3.99084000E-05	-1.89425000E-02	 6.43018000E-05
					 1.05144000E-03	-1.89429000E-02	 3.56501000E-03
					 4.77579000E-05	-1.94450000E-02	 5.26924000E-05
					 9.57503000E-04	-1.94872000E-02	 3.56877000E-03
					 1.98594000E-05	-1.55843000E-02	-1.06441000E-06
					 5.06642000E-04	-1.89368000E-02	 1.76541000E-03
					 9.10860000E-04	-1.56293000E-02	 3.25067000E-03
					-9.14199000E-04	-1.89707000E-02	-3.43300000E-03
					-8.86313000E-04	-1.94131000E-02	-3.51647000E-03
					-9.31136000E-04	-1.55734000E-02	-3.23450000E-03
					-4.37474000E-04	-1.89496000E-02	-1.64715000E-03
					-1.15505000E-06	-2.74282000E-02	-6.41483000E-06
					 3.05280000E-04	-2.75065000E-02	 3.69154000E-03
					 2.23795000E-05	-2.72260000E-02	-4.84821000E-05
					 2.45440000E-04	-2.72097000E-02	 3.69154000E-03
					 2.16139000E-05	-2.41135000E-02	-2.31157000E-05
					 1.04522000E-04	-2.74537000E-02	 1.93603000E-03
					 6.99161000E-04	-2.41678000E-02	 3.61438000E-03
					 3.61377000E-05	-2.73191000E-02	-2.57553000E-05
					 2.54768000E-04	-2.72941000E-02	 3.62266000E-03
					 6.16581000E-05	-2.34959000E-02	 5.67317000E-06
					 1.23107000E-04	-2.72045000E-02	 1.82400000E-03
					 6.84400000E-04	-2.35451000E-02	 3.63503000E-03
					-2.46478000E-04	-2.75043000E-02	-3.73441000E-03
					-1.88373000E-04	-2.72070000E-02	-3.73942000E-03
					-5.85979000E-04	-2.42195000E-02	-3.67404000E-03
					-7.29022000E-05	-2.74466000E-02	-1.98789000E-03
					-2.22478000E-04	-2.73295000E-02	-3.67661000E-03
					-5.53865000E-04	-2.35433000E-02	-3.64953000E-03
					-1.03354000E-04	-2.71994000E-02	-1.89532000E-03
					 1.97292000E-05	-2.69988000E-02	-2.14700000E-05
					 2.03238000E-04	-2.70408000E-02	 3.72660000E-03
					 2.22451000E-05	-2.71050000E-02	-2.88627000E-05
					 2.23000000E-04	-2.71215000E-02	 3.81197000E-03
					 6.23016000E-05	-2.28821000E-02	 4.47455000E-05
					 9.92409000E-05	-2.70079000E-02	 1.78649000E-03
					 7.17770000E-04	-2.28801000E-02	 3.67927000E-03
					-2.85002000E-04	-2.68816000E-02	-3.74565000E-03
					-2.12437000E-04	-2.71240000E-02	-3.78657000E-03
					-6.33331000E-04	-2.28384000E-02	-3.61383000E-03
					-8.93517000E-05	-2.69612000E-02	-1.85307000E-03
					 5.58273000E-05	-3.38096000E-02	 1.20215000E-05
					-1.12262000E-03	-3.37626000E-02	 4.32504000E-03
					 5.97923000E-05	-3.48074000E-02	 2.57483000E-05
					-8.75649000E-04	-3.48892000E-02	 4.27584000E-03
					 3.28869000E-05	-3.04225000E-02	-7.00179000E-06
					-4.64598000E-04	-3.38182000E-02	 2.19590000E-03
					-4.65913000E-04	-3.04424000E-02	 3.95242000E-03
					 3.80276000E-05	-3.43645000E-02	 1.18596000E-05
					-9.60644000E-04	-3.44357000E-02	 4.21518000E-03
					 2.37558000E-05	-3.08421000E-02	-2.46996000E-05
					-3.91423000E-04	-3.48255000E-02	 2.15267000E-03
					-3.25100000E-04	-3.09564000E-02	 3.92269000E-03
					 1.28233000E-03	-3.37106000E-02	-4.29106000E-03
					 9.63138000E-04	-3.48297000E-02	-4.36854000E-03
					 5.38265000E-04	-3.03506000E-02	-3.94887000E-03
					 5.84276000E-04	-3.37539000E-02	-2.19699000E-03
					 1.11827000E-03	-3.43722000E-02	-4.28440000E-03
					 4.17457000E-04	-3.08627000E-02	-3.94045000E-03
					 5.17301000E-04	-3.48292000E-02	-2.20537000E-03
					 9.09714000E-05	-3.56187000E-02	-1.84972000E-05
					-7.14278000E-04	-3.58393000E-02	 4.25708000E-03
					 7.28663000E-05	-3.52412000E-02	 1.22081000E-05
					-7.85200000E-04	-3.53408000E-02	 4.28509000E-03
					 6.00188000E-05	-3.11790000E-02	-3.36694000E-05
					-2.97700000E-04	-3.57315000E-02	 2.10923000E-03
					-2.41261000E-04	-3.12360000E-02	 3.87422000E-03
					 8.67075000E-04	-3.57840000E-02	-4.38046000E-03
					 9.04242000E-04	-3.53081000E-02	-4.43898000E-03
					 3.27147000E-04	-3.11857000E-02	-3.92152000E-03
					 4.05992000E-04	-3.56350000E-02	-2.13669000E-03
					-3.04832000E-05	-4.35131000E-02	-1.54931000E-04
					-6.82301000E-04	-4.34378000E-02	 4.61617000E-03
					 5.87418000E-05	-4.44269000E-02	-1.57887000E-04
					-7.65485000E-04	-4.43895000E-02	 4.78053000E-03
					 5.15046000E-05	-3.84777000E-02	-2.58378000E-06
					-3.03930000E-04	-4.34130000E-02	 2.18205000E-03
					-1.10347000E-03	-3.84019000E-02	 4.57760000E-03
					 2.58350000E-05	-4.39539000E-02	-1.63704000E-04
					-7.47321000E-04	-4.39852000E-02	 4.73316000E-03
					 6.92088000E-05	-3.94794000E-02	-8.60176000E-05
					-3.72946000E-04	-4.44153000E-02	 2.28572000E-03
					-9.27138000E-04	-3.95400000E-02	 4.62056000E-03
					 8.28468000E-04	-4.37144000E-02	-4.98177000E-03
					 9.09026000E-04	-4.43292000E-02	-4.89427000E-03
					 1.11740000E-03	-3.84421000E-02	-4.69524000E-03
					 4.40169000E-04	-4.36491000E-02	-2.52919000E-03
					 8.66044000E-04	-4.40070000E-02	-4.96245000E-03
					 9.63161000E-04	-3.94906000E-02	-4.74963000E-03
					 4.80611000E-04	-4.43454000E-02	-2.44616000E-03
					 5.39566000E-05	-4.51610000E-02	-1.44081000E-04
					-8.96774000E-04	-4.53415000E-02	 4.61394000E-03
					 3.97709000E-05	-4.48301000E-02	-1.68925000E-04
					-7.94626000E-04	-4.47768000E-02	 4.69582000E-03
					 4.11565000E-05	-4.03951000E-02	-6.79319000E-05
					-3.48701000E-04	-4.52093000E-02	 2.25737000E-03
					-8.96374000E-04	-4.05095000E-02	 4.52958000E-03
					 8.45248000E-04	-4.53253000E-02	-4.91835000E-03
					 8.87857000E-04	-4.47851000E-02	-4.87096000E-03
					 9.62025000E-04	-4.04543000E-02	-4.77407000E-03
					 4.52206000E-04	-4.52946000E-02	-2.55881000E-03
					-3.92675000E-06	-5.33327000E-02	-2.37551000E-04
					 2.17171000E-04	-5.41628000E-02	 4.85197000E-03
					-5.22943000E-06	-5.41733000E-02	-3.12749000E-04
					-7.06914000E-04	-5.43440000E-02	 5.03983000E-03
					 1.26410000E-04	-4.84887000E-02	-2.49925000E-04
					-6.89467000E-05	-5.37147000E-02	 2.21800000E-03
					-6.32018000E-04	-4.87447000E-02	 4.77582000E-03
					 6.55687000E-06	-5.38010000E-02	-1.99697000E-04
					-2.80821000E-04	-5.40579000E-02	 4.97498000E-03
					 7.76422000E-05	-4.92254000E-02	-1.90952000E-04
					-3.58384000E-04	-5.42452000E-02	 2.31364000E-03
					-6.32212000E-04	-4.92934000E-02	 4.89628000E-03
					 1.37992000E-03	-5.31364000E-02	-5.10362000E-03
					 9.65482000E-04	-5.37239000E-02	-4.49672000E-03
					 8.72338000E-04	-4.84187000E-02	-5.03602000E-03
					 6.00074000E-04	-5.32075000E-02	-2.65813000E-03
					 1.14933000E-03	-5.34755000E-02	-4.74668000E-03
					 8.36960000E-04	-4.92735000E-02	-4.81428000E-03
					 5.24919000E-04	-5.40016000E-02	-2.55897000E-03
					-1.26451000E-04	-5.46976000E-02	-6.87459000E-04
					-1.26425000E-03	-5.50433000E-02	 4.46705000E-03
					-4.08814000E-05	-5.44007000E-02	-3.32328000E-04
					-1.01115000E-03	-5.46214000E-02	 4.75381000E-03
					 9.86413000E-05	-5.00198000E-02	-3.77703000E-04
					-7.10188000E-04	-5.48980000E-02	 1.88041000E-03
					-5.72228000E-04	-5.00320000E-02	 4.60278000E-03
					 7.70371000E-04	-5.43301000E-02	-4.56873000E-03
					 8.34542000E-04	-5.40374000E-02	-4.66487000E-03
					 9.13777000E-04	-5.00820000E-02	-4.79751000E-03
					 3.00358000E-04	-5.44849000E-02	-2.66096000E-03
					 0.00000000E+00	 0.00000000E+00	 0.00000000E+00
					 0.00000000E+00	 0.00000000E+00	 0.00000000E+00
					 4.66414000E-05	-1.59008000E-02	-3.26328000E-04
					-2.74500000E-03	-1.71860000E-02	 1.57802000E-02
					 0.00000000E+00	 0.00000000E+00	 0.00000000E+00
					 0.00000000E+00	 0.00000000E+00	 0.00000000E+00
					-5.58635000E-05	-1.76494000E-02	-3.74649000E-04
					-6.12379000E-04	-1.89180000E-02	 1.58724000E-02
					 0.00000000E+00	 0.00000000E+00	 0.00000000E+00
					 5.82992000E-05	-3.18452000E-03	-1.00693000E-04
					-1.37734000E-03	-1.62070000E-02	 7.69335000E-03
					-2.67082000E-03	-4.67576000E-03	 7.90275000E-03
					 0.00000000E+00	 0.00000000E+00	 0.00000000E+00
					 0.00000000E+00	 0.00000000E+00	 0.00000000E+00
					-2.88769000E-05	-1.71089000E-02	-3.60709000E-04
					-1.63259000E-03	-1.83705000E-02	 1.57476000E-02
					 0.00000000E+00	 0.00000000E+00	 0.00000000E+00
					 1.17257000E-05	-4.58907000E-03	-1.03833000E-04
					-3.19907000E-04	-1.78720000E-02	 7.54790000E-03
					-3.59538000E-04	-6.02373000E-03	 7.76393000E-03
					 0.00000000E+00	 0.00000000E+00	 0.00000000E+00
					 2.86635000E-03	-1.65638000E-02	-1.65183000E-02
					 0.00000000E+00	 0.00000000E+00	 0.00000000E+00
					 5.77829000E-04	-1.84370000E-02	-1.67654000E-02
					 0.00000000E+00	 0.00000000E+00	 0.00000000E+00
					 2.82002000E-03	-4.46599000E-03	-8.18513000E-03
					 1.43234000E-03	-1.58362000E-02	-8.29351000E-03
					 0.00000000E+00	 0.00000000E+00	 0.00000000E+00
					 1.72899000E-03	-1.78233000E-02	-1.65829000E-02
					 0.00000000E+00	 0.00000000E+00	 0.00000000E+00
					 3.41186000E-04	-5.92617000E-03	-8.04880000E-03
					 2.60914000E-04	-1.76838000E-02	-8.38677000E-03
					 0.00000000E+00	 0.00000000E+00	 0.00000000E+00
					 0.00000000E+00	 0.00000000E+00	 0.00000000E+00
					-6.09939000E-05	-1.73299000E-02	-4.31327000E-04
					 1.50628000E-03	-1.84083000E-02	 1.56762000E-02
					 0.00000000E+00	 0.00000000E+00	 0.00000000E+00
					 0.00000000E+00	 0.00000000E+00	 0.00000000E+00
					-3.92667000E-05	-1.78749000E-02	-3.89655000E-04
					 3.95547000E-04	-1.90957000E-02	 1.58374000E-02
					 0.00000000E+00	 0.00000000E+00	 0.00000000E+00
					-5.99954000E-05	-3.88940000E-03	-1.42263000E-04
					 6.78856000E-04	-1.75127000E-02	 7.40565000E-03
					 2.16931000E-03	-5.24408000E-03	 7.96901000E-03
					 0.00000000E+00	 0.00000000E+00	 0.00000000E+00
					-1.58179000E-03	-1.79459000E-02	-1.66113000E-02
					 0.00000000E+00	 0.00000000E+00	 0.00000000E+00
					-5.07744000E-04	-1.85440000E-02	-1.67533000E-02
					 0.00000000E+00	 0.00000000E+00	 0.00000000E+00
					-2.14971000E-03	-5.17701000E-03	-8.23655000E-03
					-8.28695000E-04	-1.72393000E-02	-8.29631000E-03
					 3.01802000E-05	-6.32104000E-02	-1.64520000E-03
					-3.12224000E-03	-6.49348000E-02	 2.75221000E-02
					-6.58672000E-05	-6.54915000E-02	-1.74251000E-03
					-1.54546000E-03	-6.71857000E-02	 2.75389000E-02
					-1.24930000E-05	-3.62455000E-02	-8.13725000E-04
					-1.56468000E-03	-6.38514000E-02	 1.28105000E-02
					-2.99635000E-03	-3.78217000E-02	 2.23360000E-02
					-4.31529000E-06	-6.45484000E-02	-1.68938000E-03
					-2.35558000E-03	-6.62369000E-02	 2.74471000E-02
					-6.94208000E-05	-3.82639000E-02	-8.99932000E-04
					-7.94981000E-04	-6.61841000E-02	 1.27837000E-02
					-1.13230000E-03	-3.98196000E-02	 2.22785000E-02
					 3.16493000E-03	-6.30595000E-02	-3.08942000E-02
					 1.42266000E-03	-6.53614000E-02	-3.09325000E-02
					 2.98790000E-03	-3.67067000E-02	-2.41120000E-02
					 1.57372000E-03	-6.29575000E-02	-1.61604000E-02
					 2.30492000E-03	-6.44106000E-02	-3.09410000E-02
					 1.03975000E-03	-3.87337000E-02	-2.42023000E-02
					 6.77392000E-04	-6.52471000E-02	-1.62022000E-02
					-1.23736000E-04	-6.61772000E-02	-1.67113000E-03
					 1.50043000E-05	-6.78107000E-02	 2.73502000E-02
					-1.11686000E-04	-6.60232000E-02	-1.74169000E-03
					-7.58142000E-04	-6.76937000E-02	 2.75148000E-02
					-1.19368000E-04	-3.83927000E-02	-9.28200000E-04
					-1.84054000E-05	-6.67752000E-02	 1.25782000E-02
					 8.42901000E-04	-3.98971000E-02	 2.21798000E-02
					-2.33901000E-04	-6.60460000E-02	-3.09890000E-02
					 6.12424000E-04	-6.59351000E-02	-3.10473000E-02
					-9.63319000E-04	-3.88133000E-02	-2.41054000E-02
					-1.52123000E-04	-6.59674000E-02	-1.60660000E-02
					 1.23859000E-04	-1.32054000E-01	-4.08498000E-03
					-3.40177000E-03	-1.33803000E-01	 3.33104000E-02
					 1.09789000E-04	-1.34989000E-01	-4.30935000E-03
					-2.39993000E-03	-1.36981000E-01	 3.32428000E-02
					 6.72504000E-05	-9.55464000E-02	-2.68532000E-03
					-1.63129000E-03	-1.32830000E-01	 1.45133000E-02
					-3.16912000E-03	-9.73408000E-02	 3.11256000E-02
					 1.17594000E-04	-1.33642000E-01	-4.23387000E-03
					-2.88982000E-03	-1.35539000E-01	 3.32661000E-02
					 6.46068000E-05	-9.81600000E-02	-2.89638000E-03
					-1.18153000E-03	-1.35835000E-01	 1.43058000E-02
					-2.00348000E-03	-9.99578000E-02	 3.10424000E-02
					 3.48761000E-03	-1.31076000E-01	-4.16971000E-02
					 2.69478000E-03	-1.33964000E-01	-4.19519000E-02
					 3.22557000E-03	-9.50681000E-02	-3.67024000E-02
					 1.88572000E-03	-1.31469000E-01	-2.27678000E-02
					 3.07606000E-03	-1.32593000E-01	-4.17856000E-02
					 2.03577000E-03	-9.76347000E-02	-3.68595000E-02
					 1.37035000E-03	-1.34361000E-01	-2.29351000E-02
					 5.49322000E-05	-1.36987000E-01	-4.30807000E-03
					-1.52812000E-03	-1.39067000E-01	 3.31330000E-02
					 8.73713000E-05	-1.36090000E-01	-4.29639000E-03
					-1.95644000E-03	-1.37986000E-01	 3.32993000E-02
					 2.29236000E-05	-9.95707000E-02	-2.85900000E-03
					-7.13039000E-04	-1.37918000E-01	 1.41363000E-02
					-8.17789000E-04	-1.01451000E-01	 3.09324000E-02
					 1.77928000E-03	-1.36118000E-01	-4.19225000E-02
					 2.24435000E-03	-1.35172000E-01	-4.20473000E-02
					 6.75583000E-04	-9.89027000E-02	-3.68030000E-02
					 9.41224000E-04	-1.36477000E-01	-2.28280000E-02
					 4.74768000E-04	-2.12962000E-01	-7.68857000E-03
					-2.85763000E-03	-2.14572000E-01	 3.34974000E-02