# vtk DataFile Version 3.0

ASCII
DATASET UNSTRUCTURED_GRID

POINTS 522 double
	 1.00000000E+00	 1.00000000E+00	-5.96046000E-08
	 1.00000000E+00	 5.00000000E-01	-5.96046000E-08
	 1.00000000E+00	 5.00000000E-01	 1.00000000E+00
	 1.00000000E+00	 1.00000000E+00	 1.00000000E+00
	 5.00000000E-01	 1.00000000E+00	-5.96046000E-08
	 5.00000000E-01	 5.00000000E-01	-5.96046000E-08
	 5.00000000E-01	 5.00000000E-01	 1.00000000E+00
	 5.00000000E-01	 1.00000000E+00	 1.00000000E+00
	 1.00000000E+00	 7.50000000E-01	-5.96046000E-08
	 1.00000000E+00	 5.00000000E-01	 5.00000000E-01
	 1.00000000E+00	 7.50000000E-01	 1.00000000E+00
	 1.00000000E+00	 1.00000000E+00	 5.00000000E-01
	 7.50000000E-01	 1.00000000E+00	-5.96046000E-08
	 7.50000000E-01	 5.00000000E-01	-5.96046000E-08
	 7.50000000E-01	 5.00000000E-01	 1.00000000E+00
	 7.50000000E-01	 1.00000000E+00	 1.00000000E+00
	 5.00000000E-01	 7.50000000E-01	-5.96046000E-08
	 5.00000000E-01	 5.00000000E-01	 5.00000000E-01
	 5.00000000E-01	 7.50000000E-01	 1.00000000E+00
	 5.00000000E-01	 1.00000000E+00	 5.00000000E-01
	 1.00000000E+00	-1.49012000E-08	-5.96046000E-08
	 1.00000000E+00	-1.49012000E-08	 1.00000000E+00
	 5.00000000E-01	-1.49012000E-08	-5.96046000E-08
	 5.00000000E-01	-1.49012000E-08	 1.00000000E+00
	 1.00000000E+00	 2.50000000E-01	-5.96046000E-08
	 1.00000000E+00	-1.49012000E-08	 5.00000000E-01
	 1.00000000E+00	 2.50000000E-01	 1.00000000E+00
	 7.50000000E-01	-1.49012000E-08	-5.96046000E-08
	 7.50000000E-01	-1.49012000E-08	 1.00000000E+00
	 5.00000000E-01	 2.50000000E-01	-5.96046000E-08
	 5.00000000E-01	-1.49012000E-08	 5.00000000E-01
	 5.00000000E-01	 2.50000000E-01	 1.00000000E+00
	-7.45058000E-09	 1.00000000E+00	-5.96046000E-08
	-7.45058000E-09	 5.00000000E-01	-5.96046000E-08
	-7.45058000E-09	 5.00000000E-01	 1.00000000E+00
	-7.45058000E-09	 1.00000000E+00	 1.00000000E+00
	 2.50000000E-01	 1.00000000E+00	-5.96046000E-08
	 2.50000000E-01	 5.00000000E-01	-5.96046000E-08
	 2.50000000E-01	 5.00000000E-01	 1.00000000E+00
	 2.50000000E-01	 1.00000000E+00	 1.00000000E+00
	-7.45058000E-09	 7.50000000E-01	-5.96046000E-08
	-7.45058000E-09	 5.00000000E-01	 5.00000000E-01
	-7.45058000E-09	 7.50000000E-01	 1.00000000E+00
	-7.45058000E-09	 1.00000000E+00	 5.00000000E-01
	-7.45058000E-09	-1.49012000E-08	-5.96046000E-08
	-7.45058000E-09	-1.49012000E-08	 1.00000000E+00
	 2.50000000E-01	-1.49012000E-08	-5.96046000E-08
	 2.50000000E-01	-1.49012000E-08	 1.00000000E+00
	-7.45058000E-09	 2.50000000E-01	-5.96046000E-08
	-7.45058000E-09	-1.49012000E-08	 5.00000000E-01
	-7.45058000E-09	 2.50000000E-01	 1.00000000E+00
	 1.00000000E+00	 5.00000000E-01	 2.00000000E+00
	 1.00000000E+00	 1.00000000E+00	 2.00000000E+00
	 5.00000000E-01	 5.00000000E-01	 2.00000000E+00
	 5.00000000E-01	 1.00000000E+00	 2.00000000E+00
	 1.00000000E+00	 5.00000000E-01	 1.50000000E+00
	 1.00000000E+00	 7.50000000E-01	 2.00000000E+00
	 1.00000000E+00	 1.00000000E+00	 1.50000000E+00
	 7.50000000E-01	 5.00000000E-01	 2.00000000E+00
	 7.50000000E-01	 1.00000000E+00	 2.00000000E+00
	 5.00000000E-01	 5.00000000E-01	 1.50000000E+00
	 5.00000000E-01	 7.50000000E-01	 2.00000000E+00
	 5.00000000E-01	 1.00000000E+00	 1.50000000E+00
	 1.00000000E+00	-1.49012000E-08	 2.00000000E+00
	 5.00000000E-01	-1.49012000E-08	 2.00000000E+00
	 1.00000000E+00	-1.49012000E-08	 1.50000000E+00
	 1.00000000E+00	 2.50000000E-01	 2.00000000E+00
	 7.50000000E-01	-1.49012000E-08	 2.00000000E+00
	 5.00000000E-01	-1.49012000E-08	 1.50000000E+00
	 5.00000000E-01	 2.50000000E-01	 2.00000000E+00
	-7.45058000E-09	 5.00000000E-01	 2.00000000E+00
	-7.45058000E-09	 1.00000000E+00	 2.00000000E+00
	 2.50000000E-01	 5.00000000E-01	 2.00000000E+00
	 2.50000000E-01	 1.00000000E+00	 2.00000000E+00
	-7.45058000E-09	 5.00000000E-01	 1.50000000E+00
	-7.45058000E-09	 7.50000000E-01	 2.00000000E+00
	-7.45058000E-09	 1.00000000E+00	 1.50000000E+00
	-7.45058000E-09	-1.49012000E-08	 2.00000000E+00
	 2.50000000E-01	-1.49012000E-08	 2.00000000E+00
	-7.45058000E-09	-1.49012000E-08	 1.50000000E+00
	-7.45058000E-09	 2.50000000E-01	 2.00000000E+00
	 1.00000000E+00	 5.00000000E-01	 3.00000000E+00
	 1.00000000E+00	 1.00000000E+00	 3.00000000E+00
	 5.00000000E-01	 5.00000000E-01	 3.00000000E+00
	 5.00000000E-01	 1.00000000E+00	 3.00000000E+00
	 1.00000000E+00	 5.00000000E-01	 2.50000000E+00
	 1.00000000E+00	 7.50000000E-01	 3.00000000E+00
	 1.00000000E+00	 1.00000000E+00	 2.50000000E+00
	 7.50000000E-01	 5.00000000E-01	 3.00000000E+00
	 7.50000000E-01	 1.00000000E+00	 3.00000000E+00
	 5.00000000E-01	 5.00000000E-01	 2.50000000E+00
	 5.00000000E-01	 7.50000000E-01	 3.00000000E+00
	 5.00000000E-01	 1.00000000E+00	 2.50000000E+00
	 1.00000000E+00	-1.49012000E-08	 3.00000000E+00
	 5.00000000E-01	-1.49012000E-08	 3.00000000E+00
	 1.00000000E+00	-1.49012000E-08	 2.50000000E+00
	 1.00000000E+00	 2.50000000E-01	 3.00000000E+00
	 7.50000000E-01	-1.49012000E-08	 3.00000000E+00
	 5.00000000E-01	-1.49012000E-08	 2.50000000E+00
	 5.00000000E-01	 2.50000000E-01	 3.00000000E+00
	-7.45058000E-09	 5.00000000E-01	 3.00000000E+00
	-7.45058000E-09	 1.00000000E+00	 3.00000000E+00
	 2.50000000E-01	 5.00000000E-01	 3.00000000E+00
	 2.50000000E-01	 1.00000000E+00	 3.00000000E+00
	-7.45058000E-09	 5.00000000E-01	 2.50000000E+00
	-7.45058000E-09	 7.50000000E-01	 3.00000000E+00
	-7.45058000E-09	 1.00000000E+00	 2.50000000E+00
	-7.45058000E-09	-1.49012000E-08	 3.00000000E+00
	 2.50000000E-01	-1.49012000E-08	 3.00000000E+00
	-7.45058000E-09	-1.49012000E-08	 2.50000000E+00
	-7.45058000E-09	 2.50000000E-01	 3.00000000E+00
	 1.00000000E+00	 5.00000000E-01	 4.00000000E+00
	 1.00000000E+00	 1.00000000E+00	 4.00000000E+00
	 5.00000000E-01	 5.00000000E-01	 4.00000000E+00
	 5.00000000E-01	 1.00000000E+00	 4.00000000E+00
	 1.00000000E+00	 5.00000000E-01	 3.50000000E+00
	 1.00000000E+00	 7.50000000E-01	 4.00000000E+00
	 1.00000000E+00	 1.00000000E+00	 3.50000000E+00
	 7.50000000E-01	 5.00000000E-01	 4.00000000E+00
	 7.50000000E-01	 1.00000000E+00	 4.00000000E+00
	 5.00000000E-01	 5.00000000E-01	 3.50000000E+00
	 5.00000000E-01	 7.50000000E-01	 4.00000000E+00
	 5.00000000E-01	 1.00000000E+00	 3.50000000E+00
	 1.00000000E+00	-1.49012000E-08	 4.00000000E+00
	 5.00000000E-01	-1.49012000E-08	 4.00000000E+00
	 1.00000000E+00	-1.49012000E-08	 3.50000000E+00
	 1.00000000E+00	 2.50000000E-01	 4.00000000E+00
	 7.50000000E-01	-1.49012000E-08	 4.00000000E+00
	 5.00000000E-01	-1.49012000E-08	 3.50000000E+00
	 5.00000000E-01	 2.50000000E-01	 4.00000000E+00
	-7.45058000E-09	 5.00000000E-01	 4.00000000E+00
	-7.45058000E-09	 1.00000000E+00	 4.00000000E+00
	 2.50000000E-01	 5.00000000E-01	 4.00000000E+00
	 2.50000000E-01	 1.00000000E+00	 4.00000000E+00
	-7.45058000E-09	 5.00000000E-01	 3.50000000E+00
	-7.45058000E-09	 7.50000000E-01	 4.00000000E+00
	-7.45058000E-09	 1.00000000E+00	 3.50000000E+00
	-7.45058000E-09	-1.49012000E-08	 4.00000000E+00
	 2.50000000E-01	-1.49012000E-08	 4.00000000E+00
	-7.45058000E-09	-1.49012000E-08	 3.50000000E+00
	-7.45058000E-09	 2.50000000E-01	 4.00000000E+00
	 1.00000000E+00	 5.00000000E-01	 5.00000000E+00
	 1.00000000E+00	 1.00000000E+00	 5.00000000E+00
	 5.00000000E-01	 5.00000000E-01	 5.00000000E+00
	 5.00000000E-01	 1.00000000E+00	 5.00000000E+00
	 1.00000000E+00	 5.00000000E-01	 4.50000000E+00
	 1.00000000E+00	 7.50000000E-01	 5.00000000E+00
	 1.00000000E+00	 1.00000000E+00	 4.50000000E+00
	 7.50000000E-01	 5.00000000E-01	 5.00000000E+00
	 7.50000000E-01	 1.00000000E+00	 5.00000000E+00
	 5.00000000E-01	 5.00000000E-01	 4.50000000E+00
	 5.00000000E-01	 7.50000000E-01	 5.00000000E+00
	 5.00000000E-01	 1.00000000E+00	 4.50000000E+00
	 1.00000000E+00	-1.49012000E-08	 5.00000000E+00
	 5.00000000E-01	-1.49012000E-08	 5.00000000E+00
	 1.00000000E+00	-1.49012000E-08	 4.50000000E+00
	 1.00000000E+00	 2.50000000E-01	 5.00000000E+00
	 7.50000000E-01	-1.49012000E-08	 5.00000000E+00
	 5.00000000E-01	-1.49012000E-08	 4.50000000E+00
	 5.00000000E-01	 2.50000000E-01	 5.00000000E+00
	-7.45058000E-09	 5.00000000E-01	 5.00000000E+00
	-7.45058000E-09	 1.00000000E+00	 5.00000000E+00
	 2.50000000E-01	 5.00000000E-01	 5.00000000E+00
	 2.50000000E-01	 1.00000000E+00	 5.00000000E+00
	-7.45058000E-09	 5.00000000E-01	 4.50000000E+00
	-7.45058000E-09	 7.50000000E-01	 5.00000000E+00
	-7.45058000E-09	 1.00000000E+00	 4.50000000E+00
	-7.45058000E-09	-1.49012000E-08	 5.00000000E+00
	 2.50000000E-01	-1.49012000E-08	 5.00000000E+00
	-7.45058000E-09	-1.49012000E-08	 4.50000000E+00
	-7.45058000E-09	 2.50000000E-01	 5.00000000E+00
	 1.00000000E+00	 5.00000000E-01	 6.00000000E+00
	 1.00000000E+00	 1.00000000E+00	 6.00000000E+00
	 5.00000000E-01	 5.00000000E-01	 6.00000000E+00
	 5.00000000E-01	 1.00000000E+00	 6.00000000E+00
	 1.00000000E+00	 5.00000000E-01	 5.50000000E+00
	 1.00000000E+00	 7.50000000E-01	 6.00000000E+00
	 1.00000000E+00	 1.00000000E+00	 5.50000000E+00
	 7.50000000E-01	 5.00000000E-01	 6.00000000E+00
	 7.50000000E-01	 1.00000000E+00	 6.00000000E+00
	 5.00000000E-01	 5.00000000E-01	 5.50000000E+00
	 5.00000000E-01	 7.50000000E-01	 6.00000000E+00
	 5.00000000E-01	 1.00000000E+00	 5.50000000E+00
	 1.00000000E+00	-1.49012000E-08	 6.00000000E+00
	 5.00000000E-01	-1.49012000E-08	 6.00000000E+00
	 1.00000000E+00	-1.49012000E-08	 5.50000000E+00
	 1.00000000E+00	 2.50000000E-01	 6.00000000E+00
	 7.50000000E-01	-1.49012000E-08	 6.00000000E+00
	 5.00000000E-01	-1.49012000E-08	 5.50000000E+00
	 5.00000000E-01	 2.50000000E-01	 6.00000000E+00
	-7.45058000E-09	 5.00000000E-01	 6.00000000E+00
	-7.45058000E-09	 1.00000000E+00	 6.00000000E+00
	 2.50000000E-01	 5.00000000E-01	 6.00000000E+00
	 2.50000000E-01	 1.00000000E+00	 6.00000000E+00
	-7.45058000E-09	 5.00000000E-01	 5.50000000E+00
	-7.45058000E-09	 7.50000000E-01	 6.00000000E+00
	-7.45058000E-09	 1.00000000E+00	 5.50000000E+00
	-7.45058000E-09	-1.49012000E-08	 6.00000000E+00
	 2.50000000E-01	-1.49012000E-08	 6.00000000E+00
	-7.45058000E-09	-1.49012000E-08	 5.50000000E+00
	-7.45058000E-09	 2.50000000E-01	 6.00000000E+00
	 1.00000000E+00	 5.00000000E-01	 7.00000000E+00
[...]
POINT_DATA 522
FIELD U 1
	U 3 522 double
		 0.00000000E+00	 0.00000000E+00	 0.00000000E+00
		 0.00000000E+00	 0.00000000E+00	 0.00000000E+00
		 9.54881000E-06	-3.87265000E-04	-4.82282000E-06
		-5.82432000E-04	-3.39737000E-04	 1.42070000E-04
		 0.00000000E+00	 0.00000000E+00	 0.00000000E+00
		 0.00000000E+00	 0.00000000E+00	 0.00000000E+00
		 8.72737000E-06	-1.03203000E-03	-1.88277000E-06
		-6.80148000E-04	-9.80774000E-04	 1.72763000E-04
		 0.00000000E+00	 0.00000000E+00	 0.00000000E+00
		 6.20830000E-06	-1.81134000E-04	-2.80527000E-06
		-2.86954000E-04	-3.70013000E-04	 7.21378000E-05
		-3.03088000E-04	-1.98319000E-04	 2.22835000E-04
		 0.00000000E+00	 0.00000000E+00	 0.00000000E+00
		 0.00000000E+00	 0.00000000E+00	 0.00000000E+00
		 9.24562000E-06	-7.03933000E-04	-3.22102000E-06
		-6.30468000E-04	-6.52212000E-04	 9.74616000E-05
		 0.00000000E+00	 0.00000000E+00	 0.00000000E+00
		 5.43284000E-06	-4.82666000E-04	-5.23176000E-07
		-3.34157000E-04	-1.01159000E-03	 2.57176000E-05
		-2.93400000E-04	-4.90747000E-04	 2.35395000E-04
		 0.00000000E+00	 0.00000000E+00	 0.00000000E+00
		 5.99365000E-04	-3.40332000E-04	-1.51073000E-04
		 0.00000000E+00	 0.00000000E+00	 0.00000000E+00
		 6.96596000E-04	-9.78750000E-04	-1.75955000E-04
		 0.00000000E+00	 0.00000000E+00	 0.00000000E+00
		 3.13848000E-04	-1.99622000E-04	-2.28364000E-04
		 3.05579000E-04	-3.70346000E-04	-8.15740000E-05
		 0.00000000E+00	 0.00000000E+00	 0.00000000E+00
		 6.47178000E-04	-6.51198000E-04	-1.03316000E-04
		 0.00000000E+00	 0.00000000E+00	 0.00000000E+00
		 3.03342000E-04	-4.89785000E-04	-2.36197000E-04
		 3.51383000E-04	-1.01039000E-03	-2.93415000E-05
		 0.00000000E+00	 0.00000000E+00	 0.00000000E+00
		 0.00000000E+00	 0.00000000E+00	 0.00000000E+00
		 8.26272000E-06	-1.76404000E-03	 9.90252000E-07
		-7.60817000E-04	-1.70142000E-03	 1.48123000E-04
		 0.00000000E+00	 0.00000000E+00	 0.00000000E+00
		 0.00000000E+00	 0.00000000E+00	 0.00000000E+00
		 8.18374000E-06	-1.38952000E-03	-4.81332000E-07
		-7.20023000E-04	-1.33821000E-03	 2.48793000E-04
		 0.00000000E+00	 0.00000000E+00	 0.00000000E+00
		 5.14120000E-06	-7.77755000E-04	 1.20151000E-06
		-3.80519000E-04	-1.73772000E-03	-7.02885000E-05
		-2.51003000E-04	-7.64228000E-04	 2.27157000E-04
		 0.00000000E+00	 0.00000000E+00	 0.00000000E+00
		 7.77403000E-04	-1.69890000E-03	-1.45729000E-04
		 0.00000000E+00	 0.00000000E+00	 0.00000000E+00
		 7.36112000E-04	-1.33557000E-03	-2.49313000E-04
		 0.00000000E+00	 0.00000000E+00	 0.00000000E+00
		 2.61105000E-04	-7.62753000E-04	-2.24394000E-04
		 3.97149000E-04	-1.73655000E-03	 7.23318000E-05
		 1.68495000E-05	 7.52665000E-04	-1.07752000E-05
		-1.43826000E-03	 8.95723000E-04	-1.17217000E-03
		 1.89090000E-05	-8.52844000E-04	-4.38777000E-06
		-1.73093000E-03	-7.10114000E-04	-1.14882000E-03
		 1.28026000E-05	-1.85890000E-04	-8.03976000E-06
		-7.12101000E-04	 7.83568000E-04	-5.49014000E-04
		-9.81870000E-04	-9.94555000E-05	-3.50726000E-04
		 1.77081000E-05	-1.04369000E-05	-7.50079000E-06
		-1.58522000E-03	 1.32580000E-04	-1.23493000E-03
		 1.26602000E-05	-1.28242000E-03	-3.49961000E-06
		-8.56612000E-04	-8.23454000E-04	-6.10043000E-04
		-1.18014000E-03	-1.19242000E-03	-3.22292000E-04
		 1.47084000E-03	 9.04831000E-04	 1.15028000E-03
		 1.76823000E-03	-6.99706000E-04	 1.13937000E-03
		 1.00563000E-03	-9.77149000E-05	 3.35834000E-04
		 7.45311000E-04	 7.88487000E-04	 5.27378000E-04
		 1.62004000E-03	 1.42648000E-04	 1.21922000E-03
		 1.20476000E-03	-1.18813000E-03	 3.15988000E-04
		 8.94358000E-04	-8.17731000E-04	 6.01005000E-04
		 2.24854000E-05	-2.74654000E-03	 3.49974000E-06
		-2.03198000E-03	-2.61510000E-03	-1.15769000E-03
		 2.05542000E-05	-1.76154000E-03	-7.92546000E-07
		-1.88190000E-03	-1.62003000E-03	-1.06044000E-03
		 1.37939000E-05	-2.57088000E-03	 2.01209000E-06
		-1.00065000E-03	-2.72235000E-03	-7.01828000E-04
		-1.37179000E-03	-2.48103000E-03	-3.40776000E-04
		 2.07716000E-03	-2.60296000E-03	 1.16365000E-03
		 1.92267000E-03	-1.60897000E-03	 1.05849000E-03
		 1.39978000E-03	-2.47559000E-03	 3.44890000E-04
		 1.04583000E-03	-2.71565000E-03	 7.08122000E-04
		 8.07910000E-06	 5.94874000E-03	-2.59584000E-05
		-2.22226000E-03	 6.10376000E-03	-3.42974000E-03
		 1.46252000E-05	 3.56180000E-03	-1.52249000E-05
		-2.53446000E-03	 3.70666000E-03	-3.42617000E-03
		 1.60878000E-05	 2.78064000E-03	-1.45562000E-05
		-1.10543000E-03	 5.98540000E-03	-1.67880000E-03
		-1.89511000E-03	 2.93783000E-03	-2.27364000E-03
		 1.06924000E-05	 4.79789000E-03	-2.16181000E-05
		-2.37948000E-03	 4.94499000E-03	-3.46274000E-03
		 2.02713000E-05	 7.05905000E-04	-7.24774000E-06
		-1.26061000E-03	 3.59215000E-03	-1.70394000E-03
		-2.22078000E-03	 8.55939000E-04	-2.26232000E-03
		 2.23635000E-03	 6.13519000E-03	 3.37417000E-03
		 2.56015000E-03	 3.74267000E-03	 3.39239000E-03
		 1.92633000E-03	 2.95689000E-03	 2.24136000E-03
		 1.12105000E-03	 6.00006000E-03	 1.62621000E-03
		 2.39861000E-03	 4.97887000E-03	 3.41568000E-03
		 2.25962000E-03	 8.76902000E-04	 2.24527000E-03
		 1.28903000E-03	 3.60946000E-03	 1.67262000E-03
		 2.41581000E-05	 8.53870000E-04	-4.66600000E-07
		-2.86570000E-03	 9.79731000E-04	-3.40323000E-03
		 1.92352000E-05	 2.24785000E-03	-7.83292000E-06
		-2.70107000E-03	 2.38812000E-03	-3.39227000E-03
		 2.66158000E-05	-1.69992000E-03	 2.65250000E-06
		-1.41666000E-03	 8.74008000E-04	-1.70877000E-03
		-2.56934000E-03	-1.57161000E-03	-2.25503000E-03
		 2.90909000E-03	 1.02502000E-03	 3.39959000E-03
		 2.73467000E-03	 2.42790000E-03	 3.37399000E-03
		 2.62051000E-03	-1.54559000E-03	 2.25864000E-03
		 1.46398000E-03	 8.96896000E-04	 1.70677000E-03
		-2.91066000E-06	 1.49981000E-02	-7.03300000E-05
		-2.32759000E-03	 1.50851000E-02	-5.31946000E-03
		 6.63467000E-06	 1.25623000E-02	-4.79924000E-05
		-2.54570000E-03	 1.26432000E-02	-5.30602000E-03
		-4.60601000E-08	 1.00994000E-02	-4.67931000E-05
		-1.16443000E-03	 1.50129000E-02	-2.70036000E-03
		-2.37008000E-03	 1.02253000E-02	-4.44604000E-03
		 1.13031000E-06	 1.38098000E-02	-5.88393000E-05
		-2.43753000E-03	 1.38925000E-02	-5.29267000E-03
		 8.58266000E-06	 7.60341000E-03	-2.90203000E-05
		-1.27003000E-03	 1.25743000E-02	-2.66216000E-03
		-2.62649000E-03	 7.71628000E-03	-4.43936000E-03
		 2.32355000E-03	 1.51557000E-02	 5.17842000E-03
		 2.55864000E-03	 1.27131000E-02	 5.20877000E-03
		 2.36867000E-03	 1.02738000E-02	 4.35054000E-03
		 1.15911000E-03	 1.50482000E-02	 2.55907000E-03
		 2.44118000E-03	 1.39617000E-02	 5.17496000E-03
		 2.64075000E-03	 7.76867000E-03	 4.37891000E-03
		 1.28339000E-03	 1.26082000E-02	 2.56589000E-03
		 1.81339000E-05	 9.89403000E-03	-2.34531000E-05
		-2.77548000E-03	 9.96567000E-03	-5.27334000E-03
		 1.26223000E-05	 1.12565000E-02	-3.67039000E-05
		-2.66074000E-03	 1.13345000E-02	-5.31829000E-03
		 1.98282000E-05	 4.83207000E-03	-7.30931000E-06
		-1.37710000E-03	 9.90114000E-03	-2.60632000E-03
		-2.90329000E-03	 4.92878000E-03	-4.40673000E-03
		 2.80889000E-03	 1.00402000E-02	 5.22427000E-03
		 2.68391000E-03	 1.14068000E-02	 5.24228000E-03
		 2.93780000E-03	 4.99015000E-03	 4.38928000E-03
		 1.41274000E-03	 9.93714000E-03	 2.55959000E-03
		-1.88806000E-05	 2.68124000E-02	-1.15762000E-04
		-2.03654000E-03	 2.68316000E-02	-6.65463000E-03
		-1.19877000E-05	 2.47230000E-02	-1.08072000E-04
		-2.16882000E-03	 2.47441000E-02	-6.66032000E-03
		-5.04235000E-06	 2.05810000E-02	-9.13901000E-05
		-1.02837000E-03	 2.68034000E-02	-3.38609000E-03
		-2.19018000E-03	 2.06312000E-02	-6.05695000E-03
		-1.52847000E-05	 2.57856000E-02	-1.12338000E-04
		-2.10250000E-03	 2.58064000E-02	-6.63024000E-03
		 3.56111000E-06	 1.82980000E-02	-7.35316000E-05
		-1.09089000E-03	 2.47153000E-02	-3.35590000E-03
		-2.37424000E-03	 1.83496000E-02	-6.04926000E-03
		 2.00214000E-03	 2.69360000E-02	 6.42075000E-03
		 2.14788000E-03	 2.48436000E-02	 6.44240000E-03
		 2.18414000E-03	 2.07221000E-02	 5.87369000E-03
		 9.91418000E-04	 2.68563000E-02	 3.15436000E-03
		 2.07536000E-03	 2.59073000E-02	 6.40313000E-03
		 2.38384000E-03	 1.84355000E-02	 5.90100000E-03
		 1.06782000E-03	 2.47644000E-02	 3.13939000E-03
		-5.99707000E-06	 2.24956000E-02	-1.00391000E-04
		-2.30571000E-03	 2.25159000E-02	-6.63791000E-03
		-8.84779000E-06	 2.36271000E-02	-1.03823000E-04
		-2.23721000E-03	 2.36479000E-02	-6.69206000E-03
		 1.24177000E-05	 1.58234000E-02	-5.51949000E-05
		-1.15556000E-03	 2.24884000E-02	-3.29890000E-03
		-2.56330000E-03	 1.58718000E-02	-6.02115000E-03
		 2.29636000E-03	 2.26108000E-02	 6.43602000E-03
		 2.22230000E-03	 2.37464000E-02	 6.48310000E-03
		 2.58928000E-03	 1.59557000E-02	 5.90894000E-03
		 1.14421000E-03	 2.25339000E-02	 3.09785000E-03
		-7.12169000E-05	 4.04269000E-02	-1.96598000E-04
		-1.69352000E-03	 4.03787000E-02	-7.20113000E-03
		-6.84315000E-05	 3.88029000E-02	-2.00127000E-04
		-1.69559000E-03	 3.87531000E-02	-7.21428000E-03
		-4.43878000E-05	 3.35233000E-02	-1.51549000E-04
		-8.81440000E-04	 4.04033000E-02	-3.71087000E-03
		-1.87526000E-03	 3.35075000E-02	-7.03045000E-03
		-6.98186000E-05	 3.96151000E-02	-1.98520000E-04
		-1.69444000E-03	 3.95660000E-02	-7.17444000E-03
		-4.01507000E-05	 3.16582000E-02	-1.51293000E-04
		-8.81443000E-04	 3.87796000E-02	-3.68451000E-03
		-1.93900000E-03	 3.16413000E-02	-7.04488000E-03
		 1.55158000E-03	 4.04826000E-02	 6.80562000E-03
		 1.55860000E-03	 3.88574000E-02	 6.81184000E-03
		 1.78783000E-03	 3.36139000E-02	 6.72398000E-03
		 7.39169000E-04	 4.04556000E-02	 3.31693000E-03
		 1.55520000E-03	 3.96689000E-02	 6.77514000E-03
		 1.85989000E-03	 3.17465000E-02	 6.74004000E-03
		 7.44663000E-04	 3.88310000E-02	 3.28360000E-03
		-6.51247000E-05	 3.71699000E-02	-2.02334000E-04
		-1.69399000E-03	 3.71238000E-02	-7.20584000E-03
		-6.69293000E-05	 3.79862000E-02	-2.01324000E-04
		-1.69488000E-03	 3.79365000E-02	-7.25532000E-03
		-3.59140000E-05	 2.97235000E-02	-1.50806000E-04
		-8.80401000E-04	 3.71485000E-02	-3.63730000E-03
		-2.00424000E-03	 2.97071000E-02	-7.02734000E-03
		 1.56272000E-03	 3.72291000E-02	 6.79897000E-03
		 1.56027000E-03	 3.80423000E-02	 6.85083000E-03
		 1.93301000E-03	 2.98112000E-02	 6.72455000E-03
		 7.50086000E-04	 3.71995000E-02	 3.23175000E-03
		-1.25792000E-04	 5.40338000E-02	-2.87696000E-04
		-1.36221000E-03	 5.39711000E-02	-7.13793000E-03
		-1.22086000E-04	 5.28050000E-02	-2.96491000E-04
		-1.33628000E-03	 5.27454000E-02	-7.14978000E-03
		-9.74194000E-05	 4.72836000E-02	-2.42370000E-04
		-7.43493000E-04	 5.40068000E-02	-3.73757000E-03
		-1.50732000E-03	 4.72259000E-02	-7.19601000E-03
		-1.24379000E-04	 5.34168000E-02	-2.92649000E-04
		-1.34896000E-03	 5.33562000E-02	-7.12101000E-03
		-9.38570000E-05	 4.58809000E-02	-2.49406000E-04
		-7.27504000E-04	 5.27799000E-02	-3.72670000E-03
		-1.48421000E-03	 4.58248000E-02	-7.20652000E-03
		 1.11155000E-03	 5.40657000E-02	 6.56516000E-03
		 1.09343000E-03	 5.28390000E-02	 6.55889000E-03
		 1.31388000E-03	 4.73256000E-02	 6.71009000E-03
		 4.92236000E-04	 5.40537000E-02	 3.16348000E-03
		 1.10112000E-03	 5.34496000E-02	 6.53802000E-03
		 1.29674000E-03	 4.59231000E-02	 6.70619000E-03
		 4.83821000E-04	 5.28259000E-02	 3.13457000E-03
		-1.18384000E-04	 5.15983000E-02	-3.07210000E-04
		-1.30205000E-03	 5.15455000E-02	-7.16600000E-03
		-1.19740000E-04	 5.21974000E-02	-3.01201000E-04
		-1.31823000E-03	 5.21394000E-02	-7.17754000E-03
		-9.03010000E-05	 4.44971000E-02	-2.54828000E-04
		-7.11085000E-04	 5.15767000E-02	-3.72104000E-03
		-1.45274000E-03	 4.44477000E-02	-7.20974000E-03
		 1.06672000E-03	 5.16376000E-02	 6.55305000E-03
		 1.08045000E-03	 5.22330000E-02	 6.57624000E-03
		 1.27106000E-03	 4.45466000E-02	 6.69809000E-03
		 4.74661000E-04	 5.16211000E-02	 3.10776000E-03
		-1.70922000E-04	 6.74101000E-02	-3.81154000E-04
		-1.22925000E-03	 6.73449000E-02	-7.13521000E-03
		-1.79013000E-04	 6.63629000E-02	-3.87152000E-04
		-1.23581000E-03	 6.63053000E-02	-7.15539000E-03
		-1.51778000E-04	 6.07041000E-02	-3.34966000E-04
		-7.01649000E-04	 6.73760000E-02	-3.76553000E-03
		-1.26032000E-03	 6.06463000E-02	-7.11562000E-03
		-1.74109000E-04	 6.68834000E-02	-3.82875000E-04
		-1.23236000E-03	 6.68225000E-02	-7.13772000E-03
		-1.51658000E-04	 5.95998000E-02	-3.41724000E-04
		-7.10783000E-04	 6.63323000E-02	-3.77510000E-03
		-1.24680000E-03	 5.95454000E-02	-7.13152000E-03
		 8.82312000E-04	 6.74508000E-02	 6.38478000E-03
		 8.82631000E-04	 6.64162000E-02	 6.39283000E-03
		 9.54035000E-04	 6.07404000E-02	 6.45521000E-03
		 3.58883000E-04	 6.74310000E-02	 3.00670000E-03
		 8.83074000E-04	 6.69328000E-02	 6.38369000E-03
		 9.46883000E-04	 5.96423000E-02	 6.45654000E-03
		 3.54621000E-04	 6.63899000E-02	 3.00411000E-03
		-1.85962000E-04	 6.53209000E-02	-4.05678000E-04
		-1.23261000E-03	 6.52783000E-02	-7.19274000E-03
		-1.83853000E-04	 6.58454000E-02	-3.94903000E-04
		-1.23437000E-03	 6.57928000E-02	-7.17725000E-03
		-1.50721000E-04	 5.85068000E-02	-3.57513000E-04
		-7.13049000E-04	 6.52991000E-02	-3.80068000E-03
		-1.23033000E-03	 5.84618000E-02	-7.16183000E-03
		 8.74187000E-04	 6.53753000E-02	 6.39299000E-03
		 8.77466000E-04	 6.58995000E-02	 6.39854000E-03
		 9.37315000E-04	 5.85502000E-02	 6.45419000E-03
		 3.44786000E-04	 6.53475000E-02	 2.99313000E-03
		 0.00000000E+00	 0.00000000E+00	 0.00000000E+00
		 0.00000000E+00	 0.00000000E+00	 0.00000000E+00
		-5.49008000E-05	-2.99922000E-03	-1.29287000E-04
		-1.55325000E-03	-3.19386000E-03	 3.52581000E-03
		 0.00000000E+00	 0.00000000E+00	 0.00000000E+00
		 0.00000000E+00	 0.00000000E+00	 0.00000000E+00
		-7.87054000E-05	-4.26751000E-03	-2.02039000E-04
		-1.12433000E-03	-4.47310000E-03	 3.50314000E-03
		 0.00000000E+00	 0.00000000E+00	 0.00000000E+00
		 2.74935000E-06	-3.67749000E-04	-5.73026000E-05
		-8.06448000E-04	-3.01492000E-03	 1.72874000E-03
		-1.07984000E-03	-6.77511000E-04	 1.82106000E-03
		 0.00000000E+00	 0.00000000E+00	 0.00000000E+00
		 0.00000000E+00	 0.00000000E+00	 0.00000000E+00
		-6.47657000E-05	-3.71170000E-03	-1.67576000E-04
		-1.33331000E-03	-3.91071000E-03	 3.43062000E-03
		 0.00000000E+00	 0.00000000E+00	 0.00000000E+00
		-2.25069000E-05	-1.16021000E-03	-8.82700000E-05
		-6.03599000E-04	-4.28539000E-03	 1.59515000E-03
		-5.67727000E-04	-1.44893000E-03	 1.74184000E-03
		 0.00000000E+00	 0.00000000E+00	 0.00000000E+00
		 1.44520000E-03	-3.19957000E-03	-3.78660000E-03
		 0.00000000E+00	 0.00000000E+00	 0.00000000E+00
		 9.74030000E-04	-4.49028000E-03	-3.90728000E-03
		 0.00000000E+00	 0.00000000E+00	 0.00000000E+00
		 1.09163000E-03	-7.03862000E-04	-1.94530000E-03
		 6.95703000E-04	-3.01766000E-03	-1.98699000E-03
		 0.00000000E+00	 0.00000000E+00	 0.00000000E+00
		 1.20774000E-03	-3.92135000E-03	-3.76702000E-03
		 0.00000000E+00	 0.00000000E+00	 0.00000000E+00
		 5.31612000E-04	-1.49438000E-03	-1.92844000E-03
		 4.45852000E-04	-4.29395000E-03	-1.99888000E-03
		 0.00000000E+00	 0.00000000E+00	 0.00000000E+00
		 0.00000000E+00	 0.00000000E+00	 0.00000000E+00
		-1.08947000E-04	-5.09531000E-03	-2.65375000E-04
		-6.98917000E-04	-5.27684000E-03	 3.39372000E-03
		 0.00000000E+00	 0.00000000E+00	 0.00000000E+00
		 0.00000000E+00	 0.00000000E+00	 0.00000000E+00
		-9.27200000E-05	-4.75945000E-03	-2.33044000E-04
		-9.14007000E-04	-4.94779000E-03	 3.53863000E-03
		 0.00000000E+00	 0.00000000E+00	 0.00000000E+00
		-5.88425000E-05	-1.46575000E-03	-1.26751000E-04
		-4.04048000E-04	-5.10382000E-03	 1.42179000E-03
		-3.35912000E-05	-1.72287000E-03	 1.75125000E-03
		 0.00000000E+00	 0.00000000E+00	 0.00000000E+00
		 4.89959000E-04	-5.30431000E-03	-3.92119000E-03
		 0.00000000E+00	 0.00000000E+00	 0.00000000E+00
		 7.35917000E-04	-4.97442000E-03	-4.00293000E-03
		 0.00000000E+00	 0.00000000E+00	 0.00000000E+00
		-7.52320000E-05	-1.78699000E-03	-2.01598000E-03
		 1.88930000E-04	-5.11934000E-03	-1.95097000E-03
		-2.22961000E-04	-1.30815000E-02	-3.09953000E-04
		-2.25771000E-03	-1.32322000E-02	 5.86919000E-03
		-2.37020000E-04	-1.49750000E-02	-4.12797000E-04
		-2.00362000E-03	-1.51247000E-02	 5.79408000E-03
		-1.35227000E-04	-7.33733000E-03	-2.14049000E-04
		-1.23896000E-03	-1.31267000E-02	 2.74787000E-03
		-1.96546000E-03	-7.53131000E-03	 4.87170000E-03
		-2.30652000E-04	-1.40574000E-02	-3.64821000E-04
		-2.13046000E-03	-1.42071000E-02	 5.80984000E-03
		-1.55170000E-04	-8.97191000E-03	-3.07227000E-04
		-1.11484000E-03	-1.50178000E-02	 2.64061000E-03
		-1.60154000E-03	-9.17035000E-03	 4.80225000E-03
		 1.81627000E-03	-1.31787000E-02	-6.49238000E-03
		 1.52725000E-03	-1.50831000E-02	-6.62085000E-03
		 1.69830000E-03	-7.50911000E-03	-5.30316000E-03
		 7.93930000E-04	-1.30993000E-02	-3.36919000E-03
		 1.67264000E-03	-1.41646000E-02	-6.54000000E-03
		 1.29574000E-03	-9.15795000E-03	-5.41899000E-03
		 6.45213000E-04	-1.49977000E-02	-3.46397000E-03
		-2.56765000E-04	-1.66107000E-02	-5.06931000E-04
		-1.72704000E-03	-1.67329000E-02	 5.67140000E-03
		-2.46857000E-04	-1.58192000E-02	-4.58558000E-04
		-1.86437000E-03	-1.59899000E-02	 5.78036000E-03
		-1.79842000E-04	-1.02352000E-02	-3.90433000E-04
		-1.00134000E-03	-1.66373000E-02	 2.48781000E-03
		-1.25578000E-03	-1.04304000E-02	 4.69632000E-03
		 1.23990000E-03	-1.67122000E-02	-6.68580000E-03
		 1.38367000E-03	-1.59299000E-02	-6.70071000E-03
		 9.10656000E-04	-1.04355000E-02	-5.47701000E-03
		 4.95210000E-04	-1.66285000E-02	-3.49815000E-03
		-3.68028000E-04	-2.69721000E-02	-5.44114000E-04
		-2.91535000E-03	-2.69156000E-02	 6.33614000E-03
		-3.75852000E-04	-2.95347000E-02	-6.18349000E-04
		-3.00833000E-03	-2.95851000E-02	 6.30670000E-03
		-3.02962000E-04	-1.98401000E-02	-4.19864000E-04
		-1.63835000E-03	-2.69543000E-02	 2.86358000E-03
		-2.52833000E-03	-1.99202000E-02	 6.40277000E-03
		-3.71789000E-04	-2.82463000E-02	-5.78658000E-04
		-2.96501000E-03	-2.82527000E-02	 6.25153000E-03
		-3.14944000E-04	-2.20064000E-02	-5.17821000E-04
		-1.71412000E-03	-2.95743000E-02	 2.72698000E-03
		-2.43444000E-03	-2.20922000E-02	 6.34988000E-03
		 2.13563000E-03	-2.68993000E-02	-7.40814000E-03
		 2.24577000E-03	-2.94622000E-02	-7.55947000E-03
		 1.91475000E-03	-1.98604000E-02	-7.24414000E-03
		 8.87985000E-04	-2.69498000E-02	-3.93972000E-03
		 2.18751000E-03	-2.81639000E-02	-7.42100000E-03
		 1.80395000E-03	-2.20142000E-02	-7.38627000E-03
		 9.36160000E-04	-2.95174000E-02	-3.98310000E-03
		-3.84193000E-04	-3.22087000E-02	-6.95478000E-04
		-3.17795000E-03	-3.23770000E-02	 6.18303000E-03
		-3.79761000E-04	-3.08720000E-02	-6.57810000E-04
		-3.09540000E-03	-3.08556000E-02	 6.37850000E-03
		-3.18371000E-04	-2.40702000E-02	-6.11193000E-04
		-1.75071000E-03	-3.23110000E-02	 2.49312000E-03
		-2.34389000E-03	-2.41670000E-02	 6.21538000E-03
		 2.35542000E-03	-3.21468000E-02	-7.61510000E-03
		 2.29945000E-03	-3.07884000E-02	-7.70923000E-03
		 1.66426000E-03	-2.40544000E-02	-7.43920000E-03
		 9.81234000E-04	-3.22047000E-02	-3.92837000E-03
		-3.57410000E-04	-3.87655000E-02	-8.00386000E-04
		-3.97325000E-03	-3.84280000E-02	 3.86297000E-03
		-3.68076000E-04	-4.26857000E-02	-7.82932000E-04
		-4.60700000E-03	-4.28096000E-02	 3.89486000E-03
		-4.19891000E-04	-3.35609000E-02	-6.73208000E-04
		-2.16644000E-03	-3.86628000E-02	 1.59222000E-03
		-3.41749000E-03	-3.34560000E-02	 5.38283000E-03
		-3.63961000E-04	-4.06271000E-02	-7.91083000E-04
		-4.28226000E-03	-4.04629000E-02	 3.79397000E-03
		-4.34178000E-04	-3.67746000E-02	-7.52326000E-04
		-2.36221000E-03	-4.27996000E-02	 1.52967000E-03
		-3.82953000E-03	-3.66118000E-02	 5.42376000E-03
		 3.07826000E-03	-3.85351000E-02	-5.45810000E-03
		 3.56080000E-03	-4.22792000E-02	-5.45411000E-03
		 2.54278000E-03	-3.34045000E-02	-6.72258000E-03
		 1.36357000E-03	-3.87215000E-02	-3.19083000E-03
		 3.32086000E-03	-4.03368000E-02	-5.37102000E-03
		 2.88172000E-03	-3.65543000E-02	-6.81870000E-03
		 1.58586000E-03	-4.25278000E-02	-3.09446000E-03
		-5.03958000E-04	-4.71195000E-02	-7.73423000E-04
		-5.08883000E-03	-4.76234000E-02	 3.89059000E-03
		-4.35652000E-04	-4.48003000E-02	-7.76970000E-04
		-4.84821000E-03	-4.56347000E-02	 3.99220000E-03
		-4.62923000E-04	-4.03246000E-02	-8.63314000E-04
		-2.90972000E-03	-4.74071000E-02	 1.43368000E-03
		-4.06134000E-03	-4.00575000E-02	 5.32814000E-03
		 4.06701000E-03	-4.65446000E-02	-5.42980000E-03