<?xml version="1.0"?>
<VTKFile type="UnstructuredGrid" version="0.1" byte_order="LittleEndian">
	<UnstructuredGrid>
		<Piece NumberOfPoints="522" NumberOfCells="64">
			<Points>
				<DataArray type="Float64" NumberOfComponents="3" format="ascii">
					 1.00000000E+00	 1.00000000E+00	-5.96046000E-08
					 1.00000000E+00	 5.00000000E-01	-5.96046000E-08
					 1.00000000E+00	 5.00000000E-01	 1.00000000E+00
					 1.00000000E+00	 1.00000000E+00	 1.00000000E+00
					 5.00000000E-01	 1.00000000E+00	-5.96046000E-08
					 5.00000000E-01	 5.00000000E-01	-5.96046000E-08
					 5.00000000E-01	 5.00000000E-01	 1.00000000E+00
					 5.00000000E-01	 1.00000000E+00	 1.00000000E+00
					 1.00000000E+00	 7.50000000E-01	-5.96046000E-08
					 1.00000000E+00	 5.00000000E-01	 5.00000000E-01
					 1.00000000E+00	 7.50000000E-01	 1.00000000E+00
					 1.00000000E+00	 1.00000000E+00	 5.00000000E-01
					 7.50000000E-01	 1.00000000E+00	-5.96046000E-08
					 7.50000000E-01	 5.00000000E-01	-5.96046000E-08
					 7.50000000E-01	 5.00000000E-01	 1.00000000E+00
					 7.50000000E-01	 1.00000000E+00	 1.00000000E+00
					 5.00000000E-01	 7.50000000E-01	-5.96046000E-08
					 5.00000000E-01	 5.00000000E-01	 5.00000000E-01
					 5.00000000E-01	 7.50000000E-01	 1.00000000E+00
					 5.00000000E-01	 1.00000000E+00	 5.00000000E-01
					 1.00000000E+00	-1.49012000E-08	-5.96046000E-08
					 1.00000000E+00	-1.49012000E-08	 1.00000000E+00
					 5.00000000E-01	-1.49012000E-08	-5.96046000E-08
					 5.00000000E-01	-1.49012000E-08	 1.00000000E+00
					 1.00000000E+00	 2.50000000E-01	-5.96046000E-08
					 1.00000000E+00	-1.49012000E-08	 5.00000000E-01
					 1.00000000E+00	 2.50000000E-01	 1.00000000E+00
					 7.50000000E-01	-1.49012000E-08	-5.96046000E-08
					 7.50000000E-01	-1.49012000E-08	 1.00000000E+00
					 5.00000000E-01	 2.50000000E-01	-5.96046000E-08
					 5.00000000E-01	-1.49012000E-08	 5.00000000E-01
					 5.00000000E-01	 2.50000000E-01	 1.00000000E+00
					-7.45058000E-09	 1.00000000E+00	-5.96046000E-08
					-7.45058000E-09	 5.00000000E-01	-5.96046000E-08
					-7.45058000E-09	 5.00000000E-01	 1.00000000E+00
					-7.45058000E-09	 1.00000000E+00	 1.00000000E+00
					 2.50000000E-01	 1.00000000E+00	-5.96046000E-08
					 2.50000000E-01	 5.00000000E-01	-5.96046000E-08
					 2.50000000E-01	 5.00000000E-01	 1.00000000E+00
					 2.50000000E-01	 1.00000000E+00	 1.00000000E+00
					-7.45058000E-09	 7.50000000E-01	-5.96046000E-08
					-7.45058000E-09	 5.00000000E-01	 5.00000000E-01
					-7.45058000E-09	 7.50000000E-01	 1.00000000E+00
					-7.45058000E-09	 1.00000000E+00	 5.00000000E-01
					-7.45058000E-09	-1.49012000E-08	-5.96046000E-08
					-7.45058000E-09	-1.49012000E-08	 1.00000000E+00
					 2.50000000E-01	-1.49012000E-08	-5.96046000E-08
					 2.50000000E-01	-1.49012000E-08	 1.00000000E+00
					-7.45058000E-09	 2.50000000E-01	-5.96046000E-08
					-7.45058000E-09	-1.49012000E-08	 5.00000000E-01
					-7.45058000E-09	 2.50000000E-01	 1.00000000E+00
					 1.00000000E+00	 5.00000000E-01	 2.00000000E+00
					 1.00000000E+00	 1.00000000E+00	 2.00000000E+00
					 5.00000000E-01	 5.00000000E-01	 2.00000000E+00
					 5.00000000E-01	 1.00000000E+00	 2.00000000E+00
					 1.00000000E+00	 5.00000000E-01	 1.50000000E+00
					 1.00000000E+00	 7.50000000E-01	 2.00000000E+00
					 1.00000000E+00	 1.00000000E+00	 1.50000000E+00
					 7.50000000E-01	 5.00000000E-01	 2.00000000E+00
					 7.50000000E-01	 1.00000000E+00	 2.00000000E+00
					 5.00000000E-01	 5.00000000E-01	 1.50000000E+00
					 5.00000000E-01	 7.50000000E-01	 2.00000000E+00
					 5.00000000E-01	 1.00000000E+00	 1.50000000E+00
					 1.00000000E+00	-1.49012000E-08	 2.00000000E+00
					 5.00000000E-01	-1.49012000E-08	 2.00000000E+00
					 1.00000000E+00	-1.49012000E-08	 1.50000000E+00
					 1.00000000E+00	 2.50000000E-01	 2.00000000E+00
					 7.50000000E-01	-1.49012000E-08	 2.00000000E+00
					 5.00000000E-01	-1.49012000E-08	 1.50000000E+00
					 5.00000000E-01	 2.50000000E-01	 2.00000000E+00
					-7.45058000E-09	 5.00000000E-01	 2.00000000E+00
					-7.45058000E-09	 1.00000000E+00	 2.00000000E+00
					 2.50000000E-01	 5.00000000E-01	 2.00000000E+00
					 2.50000000E-01	 1.00000000E+00	 2.00000000E+00
					-7.45058000E-09	 5.00000000E-01	 1.50000000E+00
					-7.45058000E-09	 7.50000000E-01	 2.00000000E+00
					-7.45058000E-09	 1.00000000E+00	 1.50000000E+00
					-7.45058000E-09	-1.49012000E-08	 2.00000000E+00
					 2.50000000E-01	-1.49012000E-08	 2.00000000E+00
					-7.45058000E-09	-1.49012000E-08	 1.50000000E+00
					-7.45058000E-09	 2.50000000E-01	 2.00000000E+00
					 1.00000000E+00	 5.00000000E-01	 3.00000000E+00
					 1.00000000E+00	 1.00000000E+00	 3.00000000E+00
					 5.00000000E-01	 5.00000000E-01	 3.00000000E+00
					 5.00000000E-01	 1.00000000E+00	 3.00000000E+00
					 1.00000000E+00	 5.00000000E-01	 2.50000000E+00
					 1.00000000E+00	 7.50000000E-01	 3.00000000E+00
					 1.00000000E+00	 1.00000000E+00	 2.50000000E+00
					 7.50000000E-01	 5.00000000E-01	 3.00000000E+00
					 7.50000000E-01	 1.00000000E+00	 3.00000000E+00
					 5.00000000E-01	 5.00000000E-01	 2.50000000E+00
					 5.00000000E-01	 7.50000000E-01	 3.00000000E+00
					 5.00000000E-01	 1.00000000E+00	 2.50000000E+00
					 1.00000000E+00	-1.49012000E-08	 3.00000000E+00
					 5.00000000E-01	-1.49012000E-08	 3.00000000E+00
					 1.00000000E+00	-1.49012000E-08	 2.50000000E+00
					 1.00000000E+00	 2.50000000E-01	 3.00000000E+00
					 7.50000000E-01	-1.49012000E-08	 3.00000000E+00
					 5.00000000E-01	-1.49012000E-08	 2.50000000E+00
					 5.00000000E-01	 2.50000000E-01	 3.00000000E+00
					-7.45058000E-09	 5.00000000E-01	 3.00000000E+00
					-7.45058000E-09	 1.00000000E+00	 3.00000000E+00
					 2.50000000E-01	 5.00000000E-01	 3.00000000E+00
					 2.50000000E-01	 1.00000000E+00	 3.00000000E+00
					-7.45058000E-09	 5.00000000E-01	 2.50000000E+00
					-7.45058000E-09	 7.50000000E-01	 3.00000000E+00
					-7.45058000E-09	 1.00000000E+00	 2.50000000E+00
					-7.45058000E-09	-1.49012000E-08	 3.00000000E+00
					 2.50000000E-01	-1.49012000E-08	 3.00000000E+00
					-7.45058000E-09	-1.49012000E-08	 2.50000000E+00
					-7.45058000E-09	 2.50000000E-01	 3.00000000E+00
					 1.00000000E+00	 5.00000000E-01	 4.00000000E+00
					 1.00000000E+00	 1.00000000E+00	 4.00000000E+00
					 5.00000000E-01	 5.00000000E-01	 4.00000000E+00
					 5.00000000E-01	 1.00000000E+00	 4.00000000E+00
					 1.00000000E+00	 5.00000000E-01	 3.50000000E+00
					 1.00000000E+00	 7.50000000E-01	 4.00000000E+00
					 1.00000000E+00	 1.00000000E+00	 3.50000000E+00
					 7.50000000E-01	 5.00000000E-01	 4.00000000E+00
					 7.50000000E-01	 1.00000000E+00	 4.00000000E+00
					 5.00000000E-01	 5.00000000E-01	 3.50000000E+00
					 5.00000000E-01	 7.50000000E-01	 4.00000000E+00
					 5.00000000E-01	 1.00000000E+00	 3.50000000E+00
					 1.00000000E+00	-1.49012000E-08	 4.00000000E+00
					 5.00000000E-01	-1.49012000E-08	 4.00000000E+00
					 1.00000000E+00	-1.49012000E-08	 3.50000000E+00
					 1.00000000E+00	 2.50000000E-01	 4.00000000E+00
					 7.50000000E-01	-1.49012000E-08	 4.00000000E+00
					 5.00000000E-01	-1.49012000E-08	 3.50000000E+00
					 5.00000000E-01	 2.50000000E-01	 4.00000000E+00
					-7.45058000E-09	 5.00000000E-01	 4.00000000E+00
					-7.45058000E-09	 1.00000000E+00	 4.00000000E+00
					 2.50000000E-01	 5.00000000E-01	 4.00000000E+00
					 2.50000000E-01	 1.00000000E+00	 4.00000000E+00
					-7.45058000E-09	 5.00000000E-01	 3.50000000E+00
					-7.45058000E-09	 7.50000000E-01	 4.00000000E+00
					-7.45058000E-09	 1.00000000E+00	 3.50000000E+00
					-7.45058000E-09	-1.49012000E-08	 4.00000000E+00
					 2.50000000E-01	-1.49012000E-08	 4.00000000E+00
					-7.45058000E-09	-1.49012000E-08	 3.50000000E+00
					-7.45058000E-09	 2.50000000E-01	 4.00000000E+00
					 1.00000000E+00	 5.00000000E-01	 5.00000000E+00
					 1.00000000E+00	 1.00000000E+00	 5.00000000E+00
					 5.00000000E-01	 5.00000000E-01	 5.00000000E+00
					 5.00000000E-01	 1.00000000E+00	 5.00000000E+00
					 1.00000000E+00	 5.00000000E-01	 4.50000000E+00
					 1.00000000E+00	 7.50000000E-01	 5.00000000E+00
					 1.00000000E+00	 1.00000000E+00	 4.50000000E+00
					 7.50000000E-01	 5.00000000E-01	 5.00000000E+00
					 7.50000000E-01	 1.00000000E+00	 5.00000000E+00
					 5.00000000E-01	 5.00000000E-01	 4.50000000E+00
					 5.00000000E-01	 7.50000000E-01	 5.00000000E+00
					 5.00000000E-01	 1.00000000E+00	 4.50000000E+00
					 1.00000000E+00	-1.49012000E-08	 5.00000000E+00
					 5.00000000E-01	-1.49012000E-08	 5.00000000E+00
					 1.00000000E+00	-1.49012000E-08	 4.50000000E+00
					 1.00000000E+00	 2.50000000E-01	 5.00000000E+00
					 7.50000000E-01	-1.49012000E-08	 5.00000000E+00
					 5.00000000E-01	-1.49012000E-08	 4.50000000E+00
					 5.00000000E-01	 2.50000000E-01	 5.00000000E+00
					-7.45058000E-09	 5.00000000E-01	 5.00000000E+00
					-7.45058000E-09	 1.00000000E+00	 5.00000000E+00
					 2.50000000E-01	 5.00000000E-01	 5.00000000E+00
					 2.50000000E-01	 1.00000000E+00	 5.00000000E+00
					-7.45058000E-09	 5.00000000E-01	 4.50000000E+00
					-7.45058000E-09	 7.50000000E-01	 5.00000000E+00
					-7.45058000E-09	 1.00000000E+00	 4.50000000E+00
					-7.45058000E-09	-1.49012000E-08	 5.00000000E+00
					 2.50000000E-01	-1.49012000E-08	 5.00000000E+00
					-7.45058000E-09	-1.49012000E-08	 4.50000000E+00
					-7.45058000E-09	 2.50000000E-01	 5.00000000E+00
					 1.00000000E+00	 5.00000000E-01	 6.00000000E+00
					 1.00000000E+00	 1.00000000E+00	 6.00000000E+00
					 5.00000000E-01	 5.00000000E-01	 6.00000000E+00
					 5.00000000E-01	 1.00000000E+00	 6.00000000E+00
					 1.00000000E+00	 5.00000000E-01	 5.50000000E+00
					 1.00000000E+00	 7.50000000E-01	 6.00000000E+00
					 1.00000000E+00	 1.00000000E+00	 5.50000000E+00
					 7.50000000E-01	 5.00000000E-01	 6.00000000E+00
					 7.50000000E-01	 1.00000000E+00	 6.00000000E+00
					 5.00000000E-01	 5.00000000E-01	 5.50000000E+00
					 5.00000000E-01	 7.50000000E-01	 6.00000000E+00
					 5.00000000E-01	 1.00000000E+00	 5.50000000E+00
					 1.00000000E+00	-1.49012000E-08	 6.00000000E+00
[...]
			<PointData>
				<DataArray type="Float32" Name="U" NumberOfComponents="3" ComponentName0="D1" ComponentName1="D2" ComponentName2="D3" format="ascii">
					 0.00000000E+00	 0.00000000E+00	 0.00000000E+00
					 0.00000000E+00	 0.00000000E+00	 0.00000000E+00
					 1.41098000E-06	 4.86990000E-04	 1.02559000E-07
					-5.56722000E-04	 2.99560000E-04	 1.27388000E-03
					 0.00000000E+00	 0.00000000E+00	 0.00000000E+00
					 0.00000000E+00	 0.00000000E+00	 0.00000000E+00
					 2.18840000E-06	 1.14544000E-04	 3.36840000E-06
					-1.96715000E-04	-7.54795000E-05	 1.25315000E-03
					 0.00000000E+00	 0.00000000E+00	 0.00000000E+00
					 1.69020000E-08	 5.75408000E-04	-1.40295000E-06
					-2.79044000E-04	 4.41034000E-04	 7.62802000E-04
					-2.40888000E-04	 4.49933000E-04	 3.73183000E-04
					 0.00000000E+00	 0.00000000E+00	 0.00000000E+00
					 0.00000000E+00	 0.00000000E+00	 0.00000000E+00
					 2.01387000E-06	 2.52791000E-04	 1.01935000E-06
					-3.75513000E-04	 6.55936000E-05	 1.21033000E-03
					 0.00000000E+00	 0.00000000E+00	 0.00000000E+00
					-3.92118000E-08	 4.22274000E-04	 1.59480000E-06
					-9.67136000E-05	 6.83818000E-05	 7.06669000E-04
					-5.87468000E-05	 3.05758000E-04	 3.35871000E-04
					 0.00000000E+00	 0.00000000E+00	 0.00000000E+00
					 5.59563000E-04	 3.08669000E-04	-1.27187000E-03
					 0.00000000E+00	 0.00000000E+00	 0.00000000E+00
					 2.02989000E-04	-6.87383000E-05	-1.24619000E-03
					 0.00000000E+00	 0.00000000E+00	 0.00000000E+00
					 2.32472000E-04	 4.44331000E-04	-3.74614000E-04
					 2.82251000E-04	 4.46089000E-04	-7.63012000E-04
					 0.00000000E+00	 0.00000000E+00	 0.00000000E+00
					 3.80373000E-04	 7.40153000E-05	-1.20587000E-03
					 0.00000000E+00	 0.00000000E+00	 0.00000000E+00
					 5.17779000E-05	 3.08423000E-04	-3.32063000E-04
					 1.01926000E-04	 7.22704000E-05	-7.00233000E-04
					 0.00000000E+00	 0.00000000E+00	 0.00000000E+00
					 0.00000000E+00	 0.00000000E+00	 0.00000000E+00
					 2.20407000E-06	 8.49433000E-05	 8.47801000E-06
					 1.69689000E-04	-9.26046000E-05	 1.28262000E-03
					 0.00000000E+00	 0.00000000E+00	 0.00000000E+00
					 0.00000000E+00	 0.00000000E+00	 0.00000000E+00
					 2.03644000E-06	 5.24499000E-05	 6.30968000E-06
					-1.42009000E-05	-1.32137000E-04	 1.27557000E-03
					 0.00000000E+00	 0.00000000E+00	 0.00000000E+00
					-3.42582000E-07	 4.66809000E-04	 4.94702000E-06
					 8.59307000E-05	 4.46428000E-05	 7.12076000E-04
					 1.35785000E-04	 3.45984000E-04	 3.79722000E-04
					 0.00000000E+00	 0.00000000E+00	 0.00000000E+00
					-1.61553000E-04	-9.00157000E-05	-1.26700000E-03
					 0.00000000E+00	 0.00000000E+00	 0.00000000E+00
					 2.11760000E-05	-1.27459000E-04	-1.26488000E-03
					 0.00000000E+00	 0.00000000E+00	 0.00000000E+00
					-1.43423000E-04	 3.56156000E-04	-3.70015000E-04
					-7.98373000E-05	 4.60772000E-05	-6.95311000E-04
					 1.46024000E-05	-4.10627000E-03	-7.62685000E-06
					-1.12052000E-03	-4.34949000E-03	 4.25537000E-03
					 1.56528000E-05	-4.99710000E-03	-2.95728000E-06
					-6.52048000E-04	-5.25006000E-03	 4.26908000E-03
					 3.60539000E-06	-9.31835000E-04	 1.76274000E-06
					-5.48586000E-04	-4.16701000E-03	 2.12930000E-03
					-8.75326000E-04	-1.14119000E-03	 2.69352000E-03
					 1.46835000E-05	-4.61060000E-03	-4.29137000E-06
					-8.86420000E-04	-4.86215000E-03	 4.23836000E-03
					 4.47190000E-06	-1.57653000E-03	 2.70469000E-06
					-3.18278000E-04	-5.06111000E-03	 2.11250000E-03
					-4.19512000E-04	-1.79278000E-03	 2.68539000E-03
					 1.14601000E-03	-4.30625000E-03	-4.27458000E-03
					 6.82082000E-04	-5.20294000E-03	-4.27844000E-03
					 8.85516000E-04	-1.11660000E-03	-2.69038000E-03
					 5.75791000E-04	-4.14395000E-03	-2.14509000E-03
					 9.13741000E-04	-4.81762000E-03	-4.25137000E-03
					 4.33086000E-04	-1.77252000E-03	-2.67943000E-03
					 3.49018000E-04	-5.03685000E-03	-2.11910000E-03
					 1.84746000E-05	-5.43994000E-03	 4.85649000E-06
					-1.77813000E-04	-5.68107000E-03	 4.27047000E-03
					 1.70498000E-05	-5.27704000E-03	-1.02425000E-06
					-4.15043000E-04	-5.52885000E-03	 4.30951000E-03
					 5.78196000E-06	-1.78390000E-03	 7.13456000E-06
					-8.46646000E-05	-5.49873000E-03	 2.07825000E-03
					 3.83514000E-05	-1.98761000E-03	 2.70190000E-03
					 2.15709000E-04	-5.63184000E-03	-4.26350000E-03
					 4.48875000E-04	-5.47927000E-03	-4.31397000E-03
					-1.96597000E-05	-1.97244000E-03	-2.68617000E-03
					 1.21661000E-04	-5.47449000E-03	-2.06928000E-03
					 4.80163000E-05	-1.53544000E-02	-5.06273000E-05
					-1.43428000E-03	-1.55466000E-02	 6.68812000E-03
					 5.29046000E-05	-1.67128000E-02	-6.13830000E-05
					-1.17112000E-03	-1.68945000E-02	 6.69482000E-03
					 3.62741000E-05	-9.11186000E-03	-2.57205000E-05
					-6.96114000E-04	-1.54184000E-02	 3.32418000E-03
					-1.23808000E-03	-9.33361000E-03	 5.62488000E-03
					 5.18443000E-05	-1.60671000E-02	-5.73537000E-05
					-1.30063000E-03	-1.62504000E-02	 6.64986000E-03
					 3.88590000E-05	-1.02005000E-02	-2.26786000E-05
					-5.58908000E-04	-1.67719000E-02	 3.27933000E-03
					-8.67273000E-04	-1.04208000E-02	 5.65190000E-03
					 1.52905000E-03	-1.54467000E-02	-6.79370000E-03
					 1.27720000E-03	-1.67962000E-02	-6.82294000E-03
					 1.30852000E-03	-9.26059000E-03	-5.68380000E-03
					 7.91997000E-04	-1.53698000E-02	-3.42638000E-03
					 1.40316000E-03	-1.61513000E-02	-6.76878000E-03
					 9.43869000E-04	-1.03477000E-02	-5.70472000E-03
					 6.64416000E-04	-1.67238000E-02	-3.40314000E-03
					 5.25977000E-05	-1.78023000E-02	-6.74426000E-05
					-9.00880000E-04	-1.79773000E-02	 6.67035000E-03
					 5.29302000E-05	-1.72891000E-02	-6.41748000E-05
					-1.03615000E-03	-1.74687000E-02	 6.74522000E-03
					 3.99511000E-05	-1.09236000E-02	-1.70855000E-05
					-4.24032000E-04	-1.78567000E-02	 3.20336000E-03
					-4.90408000E-04	-1.11354000E-02	 5.63419000E-03
					 1.00863000E-03	-1.78859000E-02	-6.81140000E-03
					 1.14329000E-03	-1.73726000E-02	-6.87999000E-03
					 5.70022000E-04	-1.10637000E-02	-5.67567000E-03
					 5.30406000E-04	-1.78129000E-02	-3.33957000E-03
					 4.55258000E-05	-2.96170000E-02	-1.24458000E-04
					-2.33548000E-03	-2.97891000E-02	 7.98859000E-03
					 5.68629000E-05	-3.19185000E-02	-1.63902000E-04
					-2.15124000E-03	-3.20795000E-02	 7.95313000E-03
					 4.64621000E-05	-2.22515000E-02	-8.39040000E-05
					-1.14735000E-03	-2.96842000E-02	 4.02104000E-03
					-1.81154000E-03	-2.24374000E-02	 7.41132000E-03
					 4.96867000E-05	-3.07902000E-02	-1.44218000E-04
					-2.24492000E-03	-3.09527000E-02	 7.88068000E-03
					 5.31863000E-05	-2.40211000E-02	-1.10241000E-04
					-1.04661000E-03	-3.19775000E-02	 3.89318000E-03
					-1.61117000E-03	-2.41911000E-02	 7.39201000E-03
					 2.42983000E-03	-2.96372000E-02	-8.24017000E-03
					 2.26773000E-03	-3.19356000E-02	-8.28089000E-03
					 1.90617000E-03	-2.23099000E-02	-7.58165000E-03
					 1.23742000E-03	-2.96041000E-02	-4.27306000E-03
					 2.34875000E-03	-3.08090000E-02	-8.16889000E-03
					 1.71897000E-03	-2.40692000E-02	-7.61604000E-03
					 1.16061000E-03	-3.19066000E-02	-4.22167000E-03
					 6.66726000E-05	-3.40383000E-02	-1.96881000E-04
					-1.95939000E-03	-3.41965000E-02	 7.91533000E-03
					 6.29773000E-05	-3.30005000E-02	-1.81576000E-04
					-2.05298000E-03	-3.31628000E-02	 8.02390000E-03
					 5.63253000E-05	-2.55805000E-02	-1.29297000E-04
					-9.47330000E-04	-3.40933000E-02	 3.76655000E-03
					-1.39679000E-03	-2.57446000E-02	 7.36457000E-03
					 2.09361000E-03	-3.40531000E-02	-8.30963000E-03
					 2.18018000E-03	-3.30158000E-02	-8.38842000E-03
					 1.51049000E-03	-2.56255000E-02	-7.62732000E-03
					 1.07984000E-03	-3.40267000E-02	-4.15987000E-03
					 5.67328000E-05	-4.57605000E-02	-2.28572000E-04
					-3.66448000E-03	-4.59511000E-02	 9.04458000E-03
					 6.28818000E-05	-4.93917000E-02	-2.86688000E-04
					-3.50391000E-03	-4.95846000E-02	 8.98822000E-03
					 4.19003000E-05	-3.74000000E-02	-1.72456000E-04
					-1.80277000E-03	-4.58357000E-02	 4.49454000E-03
					-2.99553000E-03	-3.75792000E-02	 8.53321000E-03
					 6.28496000E-05	-4.75961000E-02	-2.56214000E-04
					-3.57988000E-03	-4.77875000E-02	 8.91949000E-03
					 5.54306000E-05	-4.03545000E-02	-2.18364000E-04
					-1.72170000E-03	-4.94679000E-02	 4.33842000E-03
					-2.80962000E-03	-4.05304000E-02	 8.49380000E-03
					 3.77872000E-03	-4.57342000E-02	-9.51068000E-03
					 3.62991000E-03	-4.93673000E-02	-9.57409000E-03
					 3.08758000E-03	-3.73903000E-02	-8.87904000E-03
					 1.92010000E-03	-4.57249000E-02	-4.95009000E-03
					 3.70309000E-03	-4.75714000E-02	-9.44652000E-03
					 2.92902000E-03	-4.03485000E-02	-8.92816000E-03
					 1.84836000E-03	-4.93564000E-02	-4.91538000E-03
					 6.87063000E-05	-5.28834000E-02	-3.46989000E-04
					-3.35030000E-03	-5.30758000E-02	 8.92510000E-03
					 6.36973000E-05	-5.11557000E-02	-3.17959000E-04
					-3.43114000E-03	-5.13504000E-02	 9.05666000E-03
					 6.97767000E-05	-4.31377000E-02	-2.71570000E-04
					-1.64111000E-03	-5.29584000E-02	 4.17399000E-03
					-2.61838000E-03	-4.33018000E-02	 8.43465000E-03
					 3.48841000E-03	-5.28576000E-02	-9.62510000E-03
					 3.56089000E-03	-5.11279000E-02	-9.69941000E-03
					 2.76999000E-03	-4.31356000E-02	-8.97174000E-03
					 1.77895000E-03	-5.28500000E-02	-4.87135000E-03
					 4.03910000E-05	-6.43579000E-02	-3.99085000E-04
					-4.81685000E-03	-6.45610000E-02	 9.90550000E-03
					 7.67347000E-05	-6.91509000E-02	-4.82706000E-04
					-4.63433000E-03	-6.93450000E-02	 9.81815000E-03
					 6.65935000E-05	-5.47834000E-02	-3.03494000E-04
					-2.38920000E-03	-6.44428000E-02	 4.80945000E-03
					-4.27714000E-03	-5.49608000E-02	 9.50445000E-03
					 5.38947000E-05	-6.67718000E-02	-4.44331000E-04
					-4.72768000E-03	-6.69704000E-02	 9.79266000E-03
					 8.29365000E-05	-5.90331000E-02	-3.84417000E-04
					-2.27968000E-03	-6.92261000E-02	 4.65249000E-03
					-4.10261000E-03	-5.92243000E-02	 9.41164000E-03
					 4.93465000E-03	-6.42762000E-02	-1.06991000E-02
					 4.80567000E-03	-6.90995000E-02	-1.07810000E-02
					 4.38336000E-03	-5.47557000E-02	-1.01202000E-02
					 2.48342000E-03	-6.42958000E-02	-5.61431000E-03
					 4.87020000E-03	-6.67100000E-02	-1.06703000E-02
					 4.25398000E-03	-5.89994000E-02	-1.01905000E-02
					 2.43997000E-03	-6.91089000E-02	-5.61754000E-03
					 1.18930000E-04	-7.38004000E-02	-5.64729000E-04
					-4.46227000E-03	-7.40018000E-02	 9.71519000E-03
					 1.01575000E-04	-7.14955000E-02	-5.21472000E-04
					-4.54648000E-03	-7.16910000E-02	 9.83824000E-03
					 9.67944000E-05	-6.31475000E-02	-4.43392000E-04
					-2.16937000E-03	-7.38788000E-02	 4.48718000E-03
					-3.94938000E-03	-6.33480000E-02	 9.34593000E-03
					 4.68459000E-03	-7.37475000E-02	-1.08488000E-02
					 4.74602000E-03	-7.14411000E-02	-1.08859000E-02
					 4.13246000E-03	-6.31105000E-02	-1.02515000E-02
					 2.40010000E-03	-7.37595000E-02	-5.61464000E-03
					 8.70764000E-05	-8.52692000E-02	-5.85027000E-04
					-5.51294000E-03	-8.54589000E-02	 1.04208000E-02
					 1.20419000E-04	-9.08697000E-02	-7.16598000E-04
					-5.43793000E-03	-9.10365000E-02	 1.02884000E-02
					 6.06522000E-05	-7.45622000E-02	-5.02001000E-04
					-2.71865000E-03	-8.53623000E-02	 4.93497000E-03
					-5.21468000E-03	-7.47848000E-02	 1.02374000E-02
					 1.05404000E-04	-8.80762000E-02	-6.50700000E-04
					-5.47145000E-03	-8.82472000E-02	 1.03200000E-02
					 8.47125000E-05	-7.98044000E-02	-5.87806000E-04
					-2.65905000E-03	-9.09461000E-02	 4.76138000E-03
					-5.08621000E-03	-7.99997000E-02	 1.01508000E-02
					 5.73831000E-03	-8.51011000E-02	-1.15982000E-02
					 5.67231000E-03	-9.07339000E-02	-1.17185000E-02
					 5.39393000E-03	-7.44261000E-02	-1.12162000E-02
					 2.90245000E-03	-8.51742000E-02	-6.09814000E-03
					 5.71435000E-03	-8.79347000E-02	-1.16217000E-02
					 5.28814000E-03	-7.97079000E-02	-1.13190000E-02
					 2.89524000E-03	-9.08005000E-02	-6.18851000E-03
					 1.45889000E-04	-9.63837000E-02	-8.00215000E-04
					-5.37695000E-03	-9.65824000E-02	 1.01892000E-02
					 1.31995000E-04	-9.36358000E-02	-7.59867000E-04
					-5.41126000E-03	-9.38145000E-02	 1.02908000E-02
					 1.11860000E-04	-8.49263000E-02	-6.87324000E-04
					-2.60952000E-03	-9.64803000E-02	 4.61008000E-03
					-4.96526000E-03	-8.51278000E-02	 1.00342000E-02
					 5.62594000E-03	-9.62431000E-02	-1.18088000E-02
					 5.64096000E-03	-9.35000000E-02	-1.18129000E-02
					 5.19728000E-03	-8.48478000E-02	-1.13986000E-02
					 2.88949000E-03	-9.63047000E-02	-6.22863000E-03
					-1.13119000E-05	-1.07287000E-01	-7.82233000E-04
					-5.83164000E-03	-1.07388000E-01	 1.02714000E-02
					 1.55069000E-04	-1.13127000E-01	-9.61795000E-04
					-5.75172000E-03	-1.13180000E-01	 1.00604000E-02
					 6.11800000E-05	-9.62417000E-02	-6.66840000E-04
					-2.94516000E-03	-1.07325000E-01	 4.74863000E-03
					-5.70572000E-03	-9.63977000E-02	 1.03821000E-02
					 5.50191000E-05	-1.10205000E-01	-8.88776000E-04
					-5.80098000E-03	-1.10266000E-01	 1.01555000E-02
					 1.39578000E-04	-1.02030000E-01	-8.47914000E-04
					-2.80256000E-03	-1.13138000E-01	 4.55956000E-03
					-5.66606000E-03	-1.02149000E-01	 1.01988000E-02
					 5.85957000E-03	-1.07231000E-01	-1.19083000E-02
					 5.99063000E-03	-1.13081000E-01	-1.20656000E-02
					 5.88784000E-03	-9.61217000E-02	-1.17835000E-02
					 2.93390000E-03	-1.07271000E-01	-6.33065000E-03
					 5.92237000E-03	-1.10161000E-01	-1.20053000E-02
					 5.90393000E-03	-1.01921000E-01	-1.19343000E-02
					 3.08962000E-03	-1.13123000E-01	-6.50172000E-03
					 3.20854000E-04	-1.18986000E-01	-9.90333000E-04
					-5.69882000E-03	-1.19142000E-01	 9.96217000E-03
					 2.60715000E-04	-1.16053000E-01	-9.89729000E-04
					-5.71812000E-03	-1.16119000E-01	 9.99464000E-03
					 2.10677000E-04	-1.07817000E-01	-8.95450000E-04
					-2.65434000E-03	-1.19068000E-01	 4.48874000E-03
					-5.65545000E-03	-1.08030000E-01	 1.01047000E-02
					 6.11371000E-03	-1.18875000E-01	-1.21178000E-02
					 6.06013000E-03	-1.15987000E-01	-1.21131000E-02
					 5.91472000E-03	-1.07635000E-01	-1.19973000E-02
					 3.23318000E-03	-1.18933000E-01	-6.52639000E-03
					 0.00000000E+00	 0.00000000E+00	 0.00000000E+00
					 0.00000000E+00	 0.00000000E+00	 0.00000000E+00
					 1.28206000E-04	-1.41625000E-02	-1.80579000E-04
					-3.39698000E-03	-1.51788000E-02	 1.40248000E-02
					 0.00000000E+00	 0.00000000E+00	 0.00000000E+00
					 0.00000000E+00	 0.00000000E+00	 0.00000000E+00
					 1.32045000E-04	-1.67870000E-02	-1.80990000E-04
					-1.61920000E-03	-1.78623000E-02	 1.41916000E-02
					 0.00000000E+00	 0.00000000E+00	 0.00000000E+00
					 6.52847000E-05	-2.86214000E-03	-5.40692000E-05
					-1.63776000E-03	-1.43549000E-02	 6.86194000E-03
					-2.97361000E-03	-4.16536000E-03	 7.28564000E-03
					 0.00000000E+00	 0.00000000E+00	 0.00000000E+00
					 0.00000000E+00	 0.00000000E+00	 0.00000000E+00
					 1.31508000E-04	-1.57797000E-02	-1.85377000E-04
					-2.49202000E-03	-1.68213000E-02	 1.39709000E-02
					 0.00000000E+00	 0.00000000E+00	 0.00000000E+00
					 4.84192000E-05	-4.71316000E-03	-4.44211000E-05
					-7.43092000E-04	-1.69939000E-02	 6.79808000E-03
					-8.56598000E-04	-6.01068000E-03	 7.11110000E-03
					 0.00000000E+00	 0.00000000E+00	 0.00000000E+00
					 3.62262000E-03	-1.46953000E-02	-1.44556000E-02
					 0.00000000E+00	 0.00000000E+00	 0.00000000E+00
					 1.88877000E-03	-1.73701000E-02	-1.46348000E-02
					 0.00000000E+00	 0.00000000E+00	 0.00000000E+00
					 3.07047000E-03	-4.00392000E-03	-7.42334000E-03
					 1.88504000E-03	-1.41103000E-02	-7.24762000E-03
					 0.00000000E+00	 0.00000000E+00	 0.00000000E+00
					 2.74648000E-03	-1.63297000E-02	-1.44120000E-02
					 0.00000000E+00	 0.00000000E+00	 0.00000000E+00
					 9.43294000E-04	-5.83639000E-03	-7.21786000E-03
					 1.00864000E-03	-1.67493000E-02	-7.18694000E-03
					 0.00000000E+00	 0.00000000E+00	 0.00000000E+00
					 0.00000000E+00	 0.00000000E+00	 0.00000000E+00
					 1.29049000E-04	-1.76703000E-02	-1.24351000E-04
					 1.65985000E-04	-1.86625000E-02	 1.40773000E-02
					 0.00000000E+00	 0.00000000E+00	 0.00000000E+00
					 0.00000000E+00	 0.00000000E+00	 0.00000000E+00
					 1.30087000E-04	-1.75307000E-02	-1.65178000E-04
					-7.40282000E-04	-1.85679000E-02	 1.42805000E-02
					 0.00000000E+00	 0.00000000E+00	 0.00000000E+00
					 3.51031000E-05	-4.66643000E-03	 2.83092000E-06
					 1.47367000E-04	-1.78422000E-02	 6.62134000E-03
					 1.32161000E-03	-5.92687000E-03	 7.34442000E-03
					 0.00000000E+00	 0.00000000E+00	 0.00000000E+00
					 1.26803000E-04	-1.81948000E-02	-1.43981000E-02
					 0.00000000E+00	 0.00000000E+00	 0.00000000E+00
					 1.01560000E-03	-1.80795000E-02	-1.46946000E-02
					 0.00000000E+00	 0.00000000E+00	 0.00000000E+00
					-1.24575000E-03	-5.72786000E-03	-7.36139000E-03
					 1.25393000E-04	-1.76208000E-02	-6.88790000E-03
					 3.37366000E-04	-5.40364000E-02	-9.52687000E-04
					-4.27534000E-03	-5.53200000E-02	 2.36763000E-02
					 3.54173000E-04	-5.79875000E-02	-1.03771000E-03
					-2.93692000E-03	-5.92684000E-02	 2.36284000E-02
					 2.31846000E-04	-3.15355000E-02	-4.64426000E-04
					-1.97292000E-03	-5.45400000E-02	 1.13730000E-02
					-3.87029000E-03	-3.27912000E-02	 1.93973000E-02
					 3.47274000E-04	-5.61543000E-02	-1.00258000E-03
					-3.60557000E-03	-5.74310000E-02	 2.35676000E-02
					 2.34695000E-04	-3.48626000E-02	-5.03390000E-04
					-1.28844000E-03	-5.84897000E-02	 1.12290000E-02
					-2.30180000E-03	-3.61075000E-02	 1.94219000E-02
					 4.95160000E-03	-5.40171000E-02	-2.56588000E-02
					 3.65128000E-03	-5.79905000E-02	-2.57804000E-02
					 4.31743000E-03	-3.19262000E-02	-2.04167000E-02
					 2.64418000E-03	-5.38879000E-02	-1.32975000E-02
					 4.30668000E-03	-5.61528000E-02	-2.56454000E-02
					 2.78419000E-03	-3.52540000E-02	-2.05198000E-02
					 2.00196000E-03	-5.78582000E-02	-1.33198000E-02
					 3.54409000E-04	-6.06283000E-02	-1.05667000E-03
					-1.60174000E-03	-6.18803000E-02	 2.35689000E-02
					 3.55595000E-04	-5.94494000E-02	-1.05594000E-03
					-2.26642000E-03	-6.07508000E-02	 2.37120000E-02
					 2.29010000E-04	-3.66279000E-02	-4.78335000E-04
					-6.28151000E-04	-6.11032000E-02	 1.10672000E-02
					-7.49819000E-04	-3.78657000E-02	 1.93810000E-02
					 2.35717000E-03	-6.06487000E-02	-2.57596000E-02
					 3.00410000E-03	-5.94529000E-02	-2.59030000E-02
					 1.26223000E-03	-3.70587000E-02	-2.04264000E-02
					 1.34973000E-03	-6.05085000E-02	-1.31950000E-02
					 6.03229000E-04	-1.11224000E-01	-2.55727000E-03
					-5.10621000E-03	-1.12779000E-01	 2.98525000E-02
					 6.32121000E-04	-1.16363000E-01	-2.73966000E-03
					-3.99753000E-03	-1.18029000E-01	 2.97016000E-02
					 4.67894000E-04	-8.06409000E-02	-1.63945000E-03
					-2.24376000E-03	-1.11864000E-01	 1.36517000E-02
					-4.73984000E-03	-8.20880000E-02	 2.70965000E-02
					 6.21902000E-04	-1.13931000E-01	-2.65442000E-03
					-4.55222000E-03	-1.15556000E-01	 2.96958000E-02
					 4.87322000E-04	-8.52516000E-02	-1.77608000E-03
					-1.70893000E-03	-1.17058000E-01	 1.34029000E-02
					-3.53073000E-03	-8.66996000E-02	 2.69922000E-02
					 6.27729000E-03	-1.10633000E-01	-3.50213000E-02
					 5.27381000E-03	-1.15809000E-01	-3.52735000E-02
					 5.67143000E-03	-8.03553000E-02	-3.04514000E-02
					 3.43776000E-03	-1.10793000E-01	-1.87722000E-02
					 5.77799000E-03	-1.13357000E-01	-3.50890000E-02
					 4.51927000E-03	-8.49747000E-02	-3.06192000E-02
					 2.95334000E-03	-1.15957000E-01	-1.89192000E-02
					 6.38408000E-04	-1.20482000E-01	-2.85530000E-03
					-3.02398000E-03	-1.22250000E-01	 2.95464000E-02
					 6.37102000E-04	-1.18571000E-01	-2.80775000E-03
					-3.51247000E-03	-1.20166000E-01	 2.97273000E-02
					 4.98860000E-04	-8.86860000E-02	-1.84569000E-03
					-1.16477000E-03	-1.21228000E-01	 1.31548000E-02
					-2.37632000E-03	-9.01549000E-02	 2.68934000E-02
					 4.27971000E-03	-1.19975000E-01	-3.53785000E-02
					 4.77787000E-03	-1.18015000E-01	-3.54407000E-02
					 3.35582000E-03	-8.84310000E-02	-3.06619000E-02
					 2.44935000E-03	-1.20116000E-01	-1.89253000E-02
					 9.92105000E-04	-1.82890000E-01	-5.10916000E-03
					-4.94439000E-03	-1.84542000E-01	 3.27407000E-02