<?xml version="1.0"?>
<VTKFile type="UnstructuredGrid" version="0.1" byte_order="LittleEndian">
	<UnstructuredGrid>
		<Piece NumberOfPoints="522" NumberOfCells="64">
			<Points>
				<DataArray type="Float64" NumberOfComponents="3" format="ascii">
					 1.00000000E+00	 1.00000000E+00	-5.96046000E-08
					 1.00000000E+00	 5.00000000E-01	-5.96046000E-08
					 1.00000000E+00	 5.00000000E-01	 1.00000000E+00
					 1.00000000E+00	 1.00000000E+00	 1.00000000E+00
					 5.00000000E-01	 1.00000000E+00	-5.96046000E-08
					 5.00000000E-01	 5.00000000E-01	-5.96046000E-08
					 5.00000000E-01	 5.00000000E-01	 1.00000000E+00
					 5.00000000E-01	 1.00000000E+00	 1.00000000E+00
					 1.00000000E+00	 7.50000000E-01	-5.96046000E-08
					 1.00000000E+00	 5.00000000E-01	 5.00000000E-01
					 1.00000000E+00	 7.50000000E-01	 1.00000000E+00
					 1.00000000E+00	 1.00000000E+00	 5.00000000E-01
					 7.50000000E-01	 1.00000000E+00	-5.96046000E-08
					 7.50000000E-01	 5.00000000E-01	-5.96046000E-08
					 7.50000000E-01	 5.00000000E-01	 1.00000000E+00
					 7.50000000E-01	 1.00000000E+00	 1.00000000E+00
					 5.00000000E-01	 7.50000000E-01	-5.96046000E-08
					 5.00000000E-01	 5.00000000E-01	 5.00000000E-01
					 5.00000000E-01	 7.50000000E-01	 1.00000000E+00
					 5.00000000E-01	 1.00000000E+00	 5.00000000E-01
					 1.00000000E+00	-1.49012000E-08	-5.96046000E-08
					 1.00000000E+00	-1.49012000E-08	 1.00000000E+00
					 5.00000000E-01	-1.49012000E-08	-5.96046000E-08
					 5.00000000E-01	-1.49012000E-08	 1.00000000E+00
					 1.00000000E+00	 2.50000000E-01	-5.96046000E-08
					 1.00000000E+00	-1.49012000E-08	 5.00000000E-01
					 1.00000000E+00	 2.50000000E-01	 1.00000000E+00
					 7.50000000E-01	-1.49012000E-08	-5.96046000E-08
					 7.50000000E-01	-1.49012000E-08	 1.00000000E+00
					 5.00000000E-01	 2.50000000E-01	-5.96046000E-08
					 5.00000000E-01	-1.49012000E-08	 5.00000000E-01
					 5.00000000E-01	 2.50000000E-01	 1.00000000E+00
					-7.45058000E-09	 1.00000000E+00	-5.96046000E-08
					-7.45058000E-09	 5.00000000E-01	-5.96046000E-08
					-7.45058000E-09	 5.00000000E-01	 1.00000000E+00
					-7.45058000E-09	 1.00000000E+00	 1.00000000E+00
					 2.50000000E-01	 1.00000000E+00	-5.96046000E-08
					 2.50000000E-01	 5.00000000E-01	-5.96046000E-08
					 2.50000000E-01	 5.00000000E-01	 1.00000000E+00
					 2.50000000E-01	 1.00000000E+00	 1.00000000E+00
					-7.45058000E-09	 7.50000000E-01	-5.96046000E-08
					-7.45058000E-09	 5.00000000E-01	 5.00000000E-01
					-7.45058000E-09	 7.50000000E-01	 1.00000000E+00
					-7.45058000E-09	 1.00000000E+00	 5.00000000E-01
					-7.45058000E-09	-1.49012000E-08	-5.96046000E-08
					-7.45058000E-09	-1.49012000E-08	 1.00000000E+00
					 2.50000000E-01	-1.49012000E-08	-5.96046000E-08
					 2.50000000E-01	-1.49012000E-08	 1.00000000E+00
					-7.45058000E-09	 2.50000000E-01	-5.96046000E-08
					-7.45058000E-09	-1.49012000E-08	 5.00000000E-01
					-7.45058000E-09	 2.50000000E-01	 1.00000000E+00
					 1.00000000E+00	 5.00000000E-01	 2.00000000E+00
					 1.00000000E+00	 1.00000000E+00	 2.00000000E+00
					 5.00000000E-01	 5.00000000E-01	 2.00000000E+00
					 5.00000000E-01	 1.00000000E+00	 2.00000000E+00
					 1.00000000E+00	 5.00000000E-01	 1.50000000E+00
					 1.00000000E+00	 7.50000000E-01	 2.00000000E+00
					 1.00000000E+00	 1.00000000E+00	 1.50000000E+00
					 7.50000000E-01	 5.00000000E-01	 2.00000000E+00
					 7.50000000E-01	 1.00000000E+00	 2.00000000E+00
					 5.00000000E-01	 5.00000000E-01	 1.50000000E+00
					 5.00000000E-01	 7.50000000E-01	 2.00000000E+00
					 5.00000000E-01	 1.00000000E+00	 1.50000000E+00
					 1.00000000E+00	-1.49012000E-08	 2.00000000E+00
					 5.00000000E-01	-1.49012000E-08	 2.00000000E+00
					 1.00000000E+00	-1.49012000E-08	 1.50000000E+00
					 1.00000000E+00	 2.50000000E-01	 2.00000000E+00
					 7.50000000E-01	-1.49012000E-08	 2.00000000E+00
					 5.00000000E-01	-1.49012000E-08	 1.50000000E+00
					 5.00000000E-01	 2.50000000E-01	 2.00000000E+00
					-7.45058000E-09	 5.00000000E-01	 2.00000000E+00
					-7.45058000E-09	 1.00000000E+00	 2.00000000E+00
					 2.50000000E-01	 5.00000000E-01	 2.00000000E+00
					 2.50000000E-01	 1.00000000E+00	 2.00000000E+00
					-7.45058000E-09	 5.00000000E-01	 1.50000000E+00
					-7.45058000E-09	 7.50000000E-01	 2.00000000E+00
					-7.45058000E-09	 1.00000000E+00	 1.50000000E+00
					-7.45058000E-09	-1.49012000E-08	 2.00000000E+00
					 2.50000000E-01	-1.49012000E-08	 2.00000000E+00
					-7.45058000E-09	-1.49012000E-08	 1.50000000E+00
					-7.45058000E-09	 2.50000000E-01	 2.00000000E+00
					 1.00000000E+00	 5.00000000E-01	 3.00000000E+00
					 1.00000000E+00	 1.00000000E+00	 3.00000000E+00
					 5.00000000E-01	 5.00000000E-01	 3.00000000E+00
					 5.00000000E-01	 1.00000000E+00	 3.00000000E+00
					 1.00000000E+00	 5.00000000E-01	 2.50000000E+00
					 1.00000000E+00	 7.50000000E-01	 3.00000000E+00
					 1.00000000E+00	 1.00000000E+00	 2.50000000E+00
					 7.50000000E-01	 5.00000000E-01	 3.00000000E+00
					 7.50000000E-01	 1.00000000E+00	 3.00000000E+00
					 5.00000000E-01	 5.00000000E-01	 2.50000000E+00
					 5.00000000E-01	 7.50000000E-01	 3.00000000E+00
					 5.00000000E-01	 1.00000000E+00	 2.50000000E+00
					 1.00000000E+00	-1.49012000E-08	 3.00000000E+00
					 5.00000000E-01	-1.49012000E-08	 3.00000000E+00
					 1.00000000E+00	-1.49012000E-08	 2.50000000E+00
					 1.00000000E+00	 2.50000000E-01	 3.00000000E+00
					 7.50000000E-01	-1.49012000E-08	 3.00000000E+00
					 5.00000000E-01	-1.49012000E-08	 2.50000000E+00
					 5.00000000E-01	 2.50000000E-01	 3.00000000E+00
					-7.45058000E-09	 5.00000000E-01	 3.00000000E+00
					-7.45058000E-09	 1.00000000E+00	 3.00000000E+00
					 2.50000000E-01	 5.00000000E-01	 3.00000000E+00
					 2.50000000E-01	 1.00000000E+00	 3.00000000E+00
					-7.45058000E-09	 5.00000000E-01	 2.50000000E+00
					-7.45058000E-09	 7.50000000E-01	 3.00000000E+00
					-7.45058000E-09	 1.00000000E+00	 2.50000000E+00
					-7.45058000E-09	-1.49012000E-08	 3.00000000E+00
					 2.50000000E-01	-1.49012000E-08	 3.00000000E+00
					-7.45058000E-09	-1.49012000E-08	 2.50000000E+00
					-7.45058000E-09	 2.50000000E-01	 3.00000000E+00
					 1.00000000E+00	 5.00000000E-01	 4.00000000E+00
					 1.00000000E+00	 1.00000000E+00	 4.00000000E+00
					 5.00000000E-01	 5.00000000E-01	 4.00000000E+00
					 5.00000000E-01	 1.00000000E+00	 4.00000000E+00
					 1.00000000E+00	 5.00000000E-01	 3.50000000E+00
					 1.00000000E+00	 7.50000000E-01	 4.00000000E+00
					 1.00000000E+00	 1.00000000E+00	 3.50000000E+00
					 7.50000000E-01	 5.00000000E-01	 4.00000000E+00
					 7.50000000E-01	 1.00000000E+00	 4.00000000E+00
					 5.00000000E-01	 5.00000000E-01	 3.50000000E+00
					 5.00000000E-01	 7.50000000E-01	 4.00000000E+00
					 5.00000000E-01	 1.00000000E+00	 3.50000000E+00
					 1.00000000E+00	-1.49012000E-08	 4.00000000E+00
					 5.00000000E-01	-1.49012000E-08	 4.00000000E+00
					 1.00000000E+00	-1.49012000E-08	 3.50000000E+00
					 1.00000000E+00	 2.50000000E-01	 4.00000000E+00
					 7.50000000E-01	-1.49012000E-08	 4.00000000E+00
					 5.00000000E-01	-1.49012000E-08	 3.50000000E+00
					 5.00000000E-01	 2.50000000E-01	 4.00000000E+00
					-7.45058000E-09	 5.00000000E-01	 4.00000000E+00
					-7.45058000E-09	 1.00000000E+00	 4.00000000E+00
					 2.50000000E-01	 5.00000000E-01	 4.00000000E+00
					 2.50000000E-01	 1.00000000E+00	 4.00000000E+00
					-7.45058000E-09	 5.00000000E-01	 3.50000000E+00
					-7.45058000E-09	 7.50000000E-01	 4.00000000E+00
					-7.45058000E-09	 1.00000000E+00	 3.50000000E+00
					-7.45058000E-09	-1.49012000E-08	 4.00000000E+00
					 2.50000000E-01	-1.49012000E-08	 4.00000000E+00
					-7.45058000E-09	-1.49012000E-08	 3.50000000E+00
					-7.45058000E-09	 2.50000000E-01	 4.00000000E+00
					 1.00000000E+00	 5.00000000E-01	 5.00000000E+00
					 1.00000000E+00	 1.00000000E+00	 5.00000000E+00
					 5.00000000E-01	 5.00000000E-01	 5.00000000E+00
					 5.00000000E-01	 1.00000000E+00	 5.00000000E+00
					 1.00000000E+00	 5.00000000E-01	 4.50000000E+00
					 1.00000000E+00	 7.50000000E-01	 5.00000000E+00
					 1.00000000E+00	 1.00000000E+00	 4.50000000E+00
					 7.50000000E-01	 5.00000000E-01	 5.00000000E+00
					 7.50000000E-01	 1.00000000E+00	 5.00000000E+00
					 5.00000000E-01	 5.00000000E-01	 4.50000000E+00
					 5.00000000E-01	 7.50000000E-01	 5.00000000E+00
					 5.00000000E-01	 1.00000000E+00	 4.50000000E+00
					 1.00000000E+00	-1.49012000E-08	 5.00000000E+00
					 5.00000000E-01	-1.49012000E-08	 5.00000000E+00
					 1.00000000E+00	-1.49012000E-08	 4.50000000E+00
					 1.00000000E+00	 2.50000000E-01	 5.00000000E+00
					 7.50000000E-01	-1.49012000E-08	 5.00000000E+00
					 5.00000000E-01	-1.49012000E-08	 4.50000000E+00
					 5.00000000E-01	 2.50000000E-01	 5.00000000E+00
					-7.45058000E-09	 5.00000000E-01	 5.00000000E+00
					-7.45058000E-09	 1.00000000E+00	 5.00000000E+00
					 2.50000000E-01	 5.00000000E-01	 5.00000000E+00
					 2.50000000E-01	 1.00000000E+00	 5.00000000E+00
					-7.45058000E-09	 5.00000000E-01	 4.50000000E+00
					-7.45058000E-09	 7.50000000E-01	 5.00000000E+00
					-7.45058000E-09	 1.00000000E+00	 4.50000000E+00
					-7.45058000E-09	-1.49012000E-08	 5.00000000E+00
					 2.50000000E-01	-1.49012000E-08	 5.00000000E+00
					-7.45058000E-09	-1.49012000E-08	 4.50000000E+00
					-7.45058000E-09	 2.50000000E-01	 5.00000000E+00
					 1.00000000E+00	 5.00000000E-01	 6.00000000E+00
					 1.00000000E+00	 1.00000000E+00	 6.00000000E+00
					 5.00000000E-01	 5.00000000E-01	 6.00000000E+00
					 5.00000000E-01	 1.00000000E+00	 6.00000000E+00
					 1.00000000E+00	 5.00000000E-01	 5.50000000E+00
					 1.00000000E+00	 7.50000000E-01	 6.00000000E+00
					 1.00000000E+00	 1.00000000E+00	 5.50000000E+00
					 7.50000000E-01	 5.00000000E-01	 6.00000000E+00
					 7.50000000E-01	 1.00000000E+00	 6.00000000E+00
					 5.00000000E-01	 5.00000000E-01	 5.50000000E+00
					 5.00000000E-01	 7.50000000E-01	 6.00000000E+00
					 5.00000000E-01	 1.00000000E+00	 5.50000000E+00
					 1.00000000E+00	-1.49012000E-08	 6.00000000E+00
[...]
			<PointData>
				<DataArray type="Float32" Name="U" NumberOfComponents="3" ComponentName0="D1" ComponentName1="D2" ComponentName2="D3" format="ascii">
					 0.00000000E+00	 0.00000000E+00	 0.00000000E+00
					 0.00000000E+00	 0.00000000E+00	 0.00000000E+00
					 1.09016000E-05	 6.36148000E-04	-3.84319000E-05
					 1.57116000E-03	 7.21067000E-04	-1.68778000E-03
					 0.00000000E+00	 0.00000000E+00	 0.00000000E+00
					 0.00000000E+00	 0.00000000E+00	 0.00000000E+00
					 8.09006000E-06	 2.11396000E-03	-4.11126000E-05
					 1.39275000E-03	 2.19836000E-03	-1.71148000E-03
					 0.00000000E+00	 0.00000000E+00	 0.00000000E+00
					 8.22641000E-06	-1.52091000E-04	-1.92228000E-05
					 7.94722000E-04	 6.45418000E-04	-9.57828000E-04
					 9.25621000E-04	 1.65654000E-05	-9.04794000E-04
					 0.00000000E+00	 0.00000000E+00	 0.00000000E+00
					 0.00000000E+00	 0.00000000E+00	 0.00000000E+00
					 9.61003000E-06	 1.40897000E-03	-3.94883000E-05
					 1.48011000E-03	 1.48916000E-03	-1.57897000E-03
					 0.00000000E+00	 0.00000000E+00	 0.00000000E+00
					 2.94680000E-06	 6.50403000E-04	-1.80207000E-05
					 6.99060000E-04	 2.12152000E-03	-8.48674000E-04
					 6.96240000E-04	 7.95457000E-04	-8.84436000E-04
					 0.00000000E+00	 0.00000000E+00	 0.00000000E+00
					-1.54949000E-03	 7.22510000E-04	 1.61062000E-03
					 0.00000000E+00	 0.00000000E+00	 0.00000000E+00
					-1.37538000E-03	 2.19759000E-03	 1.62914000E-03
					 0.00000000E+00	 0.00000000E+00	 0.00000000E+00
					-9.09227000E-04	 8.79701000E-06	 8.63856000E-04
					-7.73059000E-04	 6.46662000E-04	 8.80909000E-04
					 0.00000000E+00	 0.00000000E+00	 0.00000000E+00
					-1.46031000E-03	 1.48922000E-03	 1.50007000E-03
					 0.00000000E+00	 0.00000000E+00	 0.00000000E+00
					-6.89898000E-04	 7.87140000E-04	 8.46166000E-04
					-6.82499000E-04	 2.12110000E-03	 7.66646000E-04
					 0.00000000E+00	 0.00000000E+00	 0.00000000E+00
					 0.00000000E+00	 0.00000000E+00	 0.00000000E+00
					 3.87623000E-06	 3.40413000E-03	-4.30008000E-05
					 1.20103000E-03	 3.47962000E-03	-1.69210000E-03
					 0.00000000E+00	 0.00000000E+00	 0.00000000E+00
					 0.00000000E+00	 0.00000000E+00	 0.00000000E+00
					 6.15696000E-06	 2.79035000E-03	-4.23402000E-05
					 1.29763000E-03	 2.87229000E-03	-1.82827000E-03
					 0.00000000E+00	 0.00000000E+00	 0.00000000E+00
					-2.52469000E-06	 1.23405000E-03	-1.80385000E-05
					 6.03160000E-04	 3.40813000E-03	-7.15935000E-04
					 4.14517000E-04	 1.35125000E-03	-9.03506000E-04
					 0.00000000E+00	 0.00000000E+00	 0.00000000E+00
					-1.19088000E-03	 3.47610000E-03	 1.60631000E-03
					 0.00000000E+00	 0.00000000E+00	 0.00000000E+00
					-1.28360000E-03	 2.87110000E-03	 1.74320000E-03
					 0.00000000E+00	 0.00000000E+00	 0.00000000E+00
					-4.18949000E-04	 1.34240000E-03	 8.65159000E-04
					-5.94407000E-04	 3.40524000E-03	 6.30585000E-04
					 1.12265000E-05	 3.97266000E-03	-7.51703000E-05
					 2.75543000E-03	 4.05471000E-03	-2.96521000E-03
					 1.22496000E-05	 6.60084000E-03	-8.81577000E-05
					 2.53526000E-03	 6.69449000E-03	-2.97034000E-03
					 1.17933000E-05	 1.99757000E-03	-5.58352000E-05
					 1.38100000E-03	 3.98926000E-03	-1.60614000E-03
					 2.21734000E-03	 2.08797000E-03	-2.31725000E-03
					 1.22649000E-05	 5.30924000E-03	-8.14841000E-05
					 2.64689000E-03	 5.40147000E-03	-2.90145000E-03
					 1.07903000E-05	 4.10437000E-03	-6.34119000E-05
					 1.27534000E-03	 6.62480000E-03	-1.55132000E-03
					 2.02423000E-03	 4.20360000E-03	-2.32301000E-03
					-2.73402000E-03	 4.07726000E-03	 2.81512000E-03
					-2.51009000E-03	 6.71565000E-03	 2.79393000E-03
					-2.19437000E-03	 2.09795000E-03	 2.20482000E-03
					-1.35903000E-03	 4.00132000E-03	 1.45571000E-03
					-2.62275000E-03	 5.42291000E-03	 2.73882000E-03
					-2.00180000E-03	 4.21231000E-03	 2.19592000E-03
					-1.25085000E-03	 6.63600000E-03	 1.37497000E-03
					 1.09926000E-05	 9.01731000E-03	-1.00540000E-04
					 2.33349000E-03	 9.12219000E-03	-2.99141000E-03
					 1.16590000E-05	 7.83455000E-03	-9.47196000E-05
					 2.43512000E-03	 7.92855000E-03	-3.03418000E-03
					 8.00824000E-06	 6.02305000E-03	-7.12436000E-05
					 1.16865000E-03	 9.04742000E-03	-1.51311000E-03
					 1.85558000E-03	 6.14178000E-03	-2.33228000E-03
					-2.30897000E-03	 9.13986000E-03	 2.79008000E-03
					-2.41012000E-03	 7.94891000E-03	 2.84438000E-03
					-1.83699000E-03	 6.14709000E-03	 2.19008000E-03
					-1.14597000E-03	 9.05626000E-03	 1.31216000E-03
					 1.11109000E-05	 1.05997000E-02	-1.13551000E-04
					 3.42446000E-03	 1.06845000E-02	-4.65622000E-03
					 1.87103000E-05	 1.38732000E-02	-1.48204000E-04
					 3.17046000E-03	 1.39731000E-02	-4.69633000E-03
					 1.26817000E-05	 6.75245000E-03	-9.46117000E-05
					 1.71480000E-03	 1.06070000E-02	-2.39815000E-03
					 3.17469000E-03	 6.83855000E-03	-3.77643000E-03
					 1.58661000E-05	 1.22694000E-02	-1.31279000E-04
					 3.29865000E-03	 1.23644000E-02	-4.65356000E-03
					 1.68127000E-05	 9.77703000E-03	-1.15964000E-04
					 1.59425000E-03	 1.38876000E-02	-2.41167000E-03
					 2.91915000E-03	 9.87649000E-03	-3.79344000E-03
					-3.39892000E-03	 1.07497000E-02	 4.42722000E-03
					-3.12794000E-03	 1.40287000E-02	 4.39746000E-03
					-3.14838000E-03	 6.88121000E-03	 3.58753000E-03
					-1.69207000E-03	 1.06403000E-02	 2.17037000E-03
					-3.26289000E-03	 1.24248000E-02	 4.38915000E-03
					-2.88290000E-03	 9.91373000E-03	 3.56059000E-03
					-1.55576000E-03	 1.39158000E-02	 2.11463000E-03
					 2.05886000E-05	 1.68979000E-02	-1.79126000E-04
					 2.92380000E-03	 1.70065000E-02	-4.72319000E-03
					 2.02595000E-05	 1.54194000E-02	-1.64217000E-04
					 3.04784000E-03	 1.55232000E-02	-4.74098000E-03
					 1.69213000E-05	 1.25540000E-02	-1.34723000E-04
					 1.47197000E-03	 1.69181000E-02	-2.41102000E-03
					 2.67550000E-03	 1.26624000E-02	-3.81877000E-03
					-2.87537000E-03	 1.70496000E-02	 4.36215000E-03
					-3.00107000E-03	 1.55735000E-02	 4.40952000E-03
					-2.63725000E-03	 1.26920000E-02	 3.54721000E-03
					-1.42898000E-03	 1.69392000E-02	 2.05229000E-03
					-1.67862000E-05	 2.12816000E-02	-1.75442000E-04
					 3.44864000E-03	 2.13225000E-02	-6.13309000E-03
					-7.94102000E-06	 2.46624000E-02	-2.30413000E-04
					 3.28633000E-03	 2.47043000E-02	-6.19033000E-03
					 2.61123000E-07	 1.55419000E-02	-1.38442000E-04
					 1.71684000E-03	 2.12832000E-02	-3.13884000E-03
					 3.48996000E-03	 1.56019000E-02	-5.45290000E-03
					-1.21614000E-05	 2.29914000E-02	-2.03658000E-04
					 3.36744000E-03	 2.30323000E-02	-6.17006000E-03
					 8.92352000E-06	 1.89176000E-02	-1.86576000E-04
					 1.63948000E-03	 2.46653000E-02	-3.20192000E-03
					 3.28174000E-03	 1.89880000E-02	-5.51186000E-03
					-3.48124000E-03	 2.14133000E-02	 5.77944000E-03
					-3.30047000E-03	 2.47921000E-02	 5.72754000E-03
					-3.48632000E-03	 1.56822000E-02	 5.17255000E-03
					-1.75014000E-03	 2.13281000E-02	 2.78759000E-03
					-3.39046000E-03	 2.31220000E-02	 5.75983000E-03
					-3.25957000E-03	 1.90605000E-02	 5.13599000E-03
					-1.65489000E-03	 2.47090000E-02	 2.74053000E-03
					-1.14575000E-06	 2.78676000E-02	-2.82427000E-04
					 3.12965000E-03	 2.79196000E-02	-6.23943000E-03
					-4.36149000E-06	 2.62854000E-02	-2.56409000E-04
					 3.20893000E-03	 2.63292000E-02	-6.21271000E-03
					 1.35016000E-05	 2.20830000E-02	-2.31200000E-04
					 1.56122000E-03	 2.78752000E-02	-3.25543000E-03
					 3.08324000E-03	 2.21653000E-02	-5.54542000E-03
					-3.12961000E-03	 2.80035000E-02	 5.67324000E-03
					-3.21556000E-03	 2.64151000E-02	 5.69895000E-03
					-3.05015000E-03	 2.22277000E-02	 5.08113000E-03
					-1.56282000E-03	 2.79168000E-02	 2.68965000E-03
					-3.80327000E-05	 3.42278000E-02	-2.72773000E-04
					 3.42444000E-03	 3.42932000E-02	-7.52044000E-03
					-2.82196000E-05	 3.75623000E-02	-3.32072000E-04
					 3.18085000E-03	 3.76293000E-02	-7.56619000E-03
					-2.97499000E-05	 2.74986000E-02	-2.22293000E-04
					 1.69365000E-03	 3.42285000E-02	-3.92923000E-03
					 3.41602000E-03	 2.75541000E-02	-6.76055000E-03
					-3.25887000E-05	 3.59275000E-02	-3.02036000E-04
					 3.30309000E-03	 3.59926000E-02	-7.53969000E-03
					-2.03983000E-05	 3.08526000E-02	-2.78026000E-04
					 1.57571000E-03	 3.75633000E-02	-3.98083000E-03
					 3.23741000E-03	 3.09055000E-02	-6.80566000E-03
					-3.49833000E-03	 3.44207000E-02	 6.97199000E-03
					-3.23516000E-03	 3.77499000E-02	 6.89843000E-03
					-3.47539000E-03	 2.76580000E-02	 6.31364000E-03
					-1.76925000E-03	 3.42929000E-02	 3.38245000E-03
					-3.36618000E-03	 3.61168000E-02	 6.93288000E-03
					-3.27744000E-03	 3.10071000E-02	 6.24731000E-03
					-1.63185000E-03	 3.76247000E-02	 3.31570000E-03
					-2.31516000E-05	 4.06423000E-02	-3.88569000E-04
					 2.92871000E-03	 4.07096000E-02	-7.63716000E-03
					-2.50133000E-05	 3.91337000E-02	-3.61249000E-04
					 3.05501000E-03	 3.92023000E-02	-7.58462000E-03
					-1.39625000E-05	 3.40122000E-02	-3.31017000E-04
					 1.45323000E-03	 4.06428000E-02	-4.06017000E-03
					 3.05716000E-03	 3.40711000E-02	-6.86928000E-03
					-2.97224000E-03	 4.08243000E-02	 6.85561000E-03
					-3.10284000E-03	 3.93194000E-02	 6.85767000E-03
					-3.08390000E-03	 3.41705000E-02	 6.20470000E-03
					-1.49882000E-03	 4.07022000E-02	 3.28221000E-03
					-7.22346000E-05	 5.04688000E-02	-4.05214000E-04
					 3.51838000E-03	 5.05232000E-02	-9.70818000E-03
					-6.30724000E-05	 5.38911000E-02	-4.90499000E-04
					 3.20724000E-03	 5.39555000E-02	-9.80080000E-03
					-5.05832000E-05	 4.17856000E-02	-3.29462000E-04
					 1.71978000E-03	 5.04530000E-02	-5.05505000E-03
					 3.46143000E-03	 4.18515000E-02	-8.55752000E-03
					-6.69780000E-05	 5.22213000E-02	-4.49405000E-04
					 3.36386000E-03	 5.22829000E-02	-9.74340000E-03
					-4.17972000E-05	 4.51384000E-02	-4.00501000E-04
					 1.57097000E-03	 5.38799000E-02	-5.13033000E-03
					 3.16058000E-03	 4.52097000E-02	-8.62161000E-03
					-3.65665000E-03	 5.07214000E-02	 8.88923000E-03
					-3.32852000E-03	 5.41422000E-02	 8.81138000E-03
					-3.55753000E-03	 4.20126000E-02	 7.89332000E-03
					-1.86310000E-03	 5.05525000E-02	 4.24244000E-03
					-3.49170000E-03	 5.24743000E-02	 8.83624000E-03
					-3.23997000E-03	 4.53594000E-02	 7.81484000E-03
					-1.69604000E-03	 5.39726000E-02	 4.14728000E-03
					-5.85117000E-05	 5.70043000E-02	-5.67575000E-04
					 2.88749000E-03	 5.70644000E-02	-9.87039000E-03
					-6.01848000E-05	 5.54889000E-02	-5.29524000E-04
					 3.04737000E-03	 5.55541000E-02	-9.85767000E-03
					-3.81234000E-05	 4.81846000E-02	-4.66988000E-04
					 1.41722000E-03	 5.69918000E-02	-5.18303000E-03
					 2.84369000E-03	 4.82494000E-02	-8.69608000E-03
					-3.00103000E-03	 5.72428000E-02	 8.72742000E-03
					-3.16406000E-03	 5.57369000E-02	 8.79059000E-03
					-2.91598000E-03	 4.83902000E-02	 7.75613000E-03
					-1.53339000E-03	 5.70800000E-02	 4.04576000E-03
					-1.19275000E-04	 7.11720000E-02	-6.29209000E-04
					 3.52943000E-03	 7.11187000E-02	-1.15796000E-02
					-1.04043000E-04	 7.47434000E-02	-7.30673000E-04
					 3.38973000E-03	 7.46931000E-02	-1.16960000E-02
					-9.64886000E-05	 6.03535000E-02	-5.07161000E-04
					 1.70411000E-03	 7.11280000E-02	-6.06708000E-03
					 3.54463000E-03	 6.03523000E-02	-1.07604000E-02
					-1.12111000E-04	 7.29752000E-02	-6.80420000E-04
					 3.45895000E-03	 7.29243000E-02	-1.16392000E-02
					-8.40257000E-05	 6.38638000E-02	-6.02754000E-04
					 1.64163000E-03	 7.47017000E-02	-6.17221000E-03
					 3.30431000E-03	 6.38715000E-02	-1.08743000E-02
					-3.76435000E-03	 7.13785000E-02	 1.03199000E-02
					-3.59555000E-03	 7.49469000E-02	 1.02337000E-02
					-3.73138000E-03	 6.05849000E-02	 9.73845000E-03
					-1.94165000E-03	 7.12546000E-02	 4.80928000E-03
					-3.68023000E-03	 7.31810000E-02	 1.02765000E-02
					-3.46865000E-03	 6.40942000E-02	 9.66136000E-03
					-1.84923000E-03	 7.48251000E-02	 4.71102000E-03
					-9.22654000E-05	 7.81585000E-02	-8.29171000E-04
					 3.25099000E-03	 7.81136000E-02	-1.17688000E-02
					-9.69344000E-05	 7.64712000E-02	-7.80744000E-04
					 3.32127000E-03	 7.64217000E-02	-1.17576000E-02
					-7.56429000E-05	 6.71286000E-02	-6.89330000E-04
					 1.57748000E-03	 7.81201000E-02	-6.23367000E-03
					 3.06189000E-03	 6.71366000E-02	-1.09401000E-02
					-3.43443000E-03	 7.83623000E-02	 1.01096000E-02
					-3.51356000E-03	 7.66737000E-02	 1.01950000E-02
					-3.21206000E-03	 6.73538000E-02	 9.55455000E-03
					-1.76178000E-03	 7.82401000E-02	 4.57591000E-03
					-1.60307000E-04	 9.40029000E-02	-8.96783000E-04
					 3.40853000E-03	 9.38740000E-02	-1.22546000E-02
					-1.57025000E-04	 9.75655000E-02	-9.98617000E-04
					 3.41212000E-03	 9.74244000E-02	-1.23529000E-02
					-1.41243000E-04	 8.25376000E-02	-7.63158000E-04
					 1.62770000E-03	 9.39407000E-02	-6.56344000E-03
					 3.47149000E-03	 8.24363000E-02	-1.20369000E-02
					-1.57404000E-04	 9.57874000E-02	-9.46476000E-04
					 3.41290000E-03	 9.56501000E-02	-1.23117000E-02
					-1.28824000E-04	 8.61177000E-02	-8.65540000E-04
					 1.63248000E-03	 9.74973000E-02	-6.66822000E-03
					 3.41823000E-03	 8.60132000E-02	-1.21426000E-02
					-3.73895000E-03	 9.41667000E-02	 1.04763000E-02
					-3.72638000E-03	 9.77271000E-02	 1.03714000E-02
					-3.75834000E-03	 8.27105000E-02	 1.05200000E-02
					-1.95063000E-03	 9.40872000E-02	 4.77437000E-03
					-3.73404000E-03	 9.59507000E-02	 1.04338000E-02
					-3.67519000E-03	 8.62904000E-02	 1.04213000E-02
					-1.94656000E-03	 9.76504000E-02	 4.67507000E-03
					-1.54702000E-04	 1.01099000E-01	-1.11450000E-03
					 3.42388000E-03	 1.00967000E-01	-1.24308000E-02
					-1.56972000E-04	 9.93273000E-02	-1.05448000E-03
					 3.41586000E-03	 9.91893000E-02	-1.23915000E-02
					-1.18039000E-04	 8.96293000E-02	-9.76356000E-04
					 1.63543000E-03	 1.01036000E-01	-6.76150000E-03
					 3.37614000E-03	 8.95331000E-02	-1.22214000E-02
					-3.72361000E-03	 1.01258000E-01	 1.02175000E-02
					-3.72385000E-03	 9.94889000E-02	 1.02979000E-02
					-3.60620000E-03	 8.98015000E-02	 1.02787000E-02
					-1.94250000E-03	 1.01182000E-01	 4.53678000E-03
					 0.00000000E+00	 0.00000000E+00	 0.00000000E+00
					 0.00000000E+00	 0.00000000E+00	 0.00000000E+00
					-5.74082000E-05	-3.09006000E-03	 2.02611000E-04
					-2.56966000E-03	-3.31935000E-03	 4.18486000E-03
					 0.00000000E+00	 0.00000000E+00	 0.00000000E+00
					 0.00000000E+00	 0.00000000E+00	 0.00000000E+00
					-2.04093000E-05	-5.41332000E-03	 1.54585000E-04
					-2.14126000E-03	-5.64710000E-03	 4.20670000E-03
					 0.00000000E+00	 0.00000000E+00	 0.00000000E+00
					-3.32912000E-05	-3.70881000E-04	 9.41451000E-05
					-1.31854000E-03	-3.12641000E-03	 2.27635000E-03
					-1.64990000E-03	-7.80002000E-04	 2.28476000E-03
					 0.00000000E+00	 0.00000000E+00	 0.00000000E+00
					 0.00000000E+00	 0.00000000E+00	 0.00000000E+00
					-3.73931000E-05	-4.32948000E-03	 1.77825000E-04
					-2.34969000E-03	-4.55466000E-03	 4.01808000E-03
					 0.00000000E+00	 0.00000000E+00	 0.00000000E+00
					-2.70638000E-06	-1.68298000E-03	 6.87639000E-05
					-1.08104000E-03	-5.44662000E-03	 2.07952000E-03
					-1.05168000E-03	-2.05544000E-03	 2.21813000E-03
					 0.00000000E+00	 0.00000000E+00	 0.00000000E+00
					 2.45976000E-03	-3.20647000E-03	-3.78593000E-03
					 0.00000000E+00	 0.00000000E+00	 0.00000000E+00
					 2.10687000E-03	-5.54214000E-03	-3.90287000E-03
					 0.00000000E+00	 0.00000000E+00	 0.00000000E+00
					 1.58704000E-03	-6.97079000E-04	-2.08959000E-03
					 1.20508000E-03	-3.06883000E-03	-1.87502000E-03
					 0.00000000E+00	 0.00000000E+00	 0.00000000E+00
					 2.28003000E-03	-4.44640000E-03	-3.66749000E-03
					 0.00000000E+00	 0.00000000E+00	 0.00000000E+00
					 1.05199000E-03	-1.98471000E-03	-2.07275000E-03
					 1.04019000E-03	-5.39507000E-03	-1.77390000E-03
					 0.00000000E+00	 0.00000000E+00	 0.00000000E+00
					 0.00000000E+00	 0.00000000E+00	 0.00000000E+00
					 9.16131000E-06	-7.33617000E-03	 1.10306000E-04
					-1.70242000E-03	-7.53728000E-03	 4.09550000E-03
					 0.00000000E+00	 0.00000000E+00	 0.00000000E+00
					 0.00000000E+00	 0.00000000E+00	 0.00000000E+00
					-4.38365000E-06	-6.44906000E-03	 1.30427000E-04
					-1.92323000E-03	-6.66623000E-03	 4.35484000E-03
					 0.00000000E+00	 0.00000000E+00	 0.00000000E+00
					 2.07149000E-05	-2.47350000E-03	 5.72334000E-05
					-8.48922000E-04	-7.35436000E-03	 1.80147000E-03
					-3.82364000E-04	-2.79204000E-03	 2.24805000E-03
					 0.00000000E+00	 0.00000000E+00	 0.00000000E+00
					 1.72469000E-03	-7.44596000E-03	-3.87752000E-03
					 0.00000000E+00	 0.00000000E+00	 0.00000000E+00
					 1.91905000E-03	-6.57099000E-03	-4.09897000E-03
					 0.00000000E+00	 0.00000000E+00	 0.00000000E+00
					 4.27983000E-04	-2.73159000E-03	-2.12694000E-03
					 8.68459000E-04	-7.31299000E-03	-1.58251000E-03
					-1.60016000E-04	-1.22202000E-02	 4.00410000E-04
					-4.39213000E-03	-1.23833000E-02	 6.31708000E-03
					-1.08523000E-04	-1.63491000E-02	 2.95332000E-04
					-4.14908000E-03	-1.65172000E-02	 6.23264000E-03
					-1.00110000E-04	-7.15917000E-03	 3.05254000E-04
					-2.27471000E-03	-1.22865000E-02	 3.42938000E-03
					-3.54111000E-03	-7.38618000E-03	 5.45638000E-03
					-1.33828000E-04	-1.42993000E-02	 3.45599000E-04
					-4.27052000E-03	-1.44660000E-02	 6.17072000E-03
					-5.70705000E-05	-1.04511000E-02	 2.26522000E-04
					-2.12561000E-03	-1.64174000E-02	 3.23458000E-03
					-3.20147000E-03	-1.06799000E-02	 5.40617000E-03
					 4.07677000E-03	-1.22029000E-02	-5.51901000E-03
					 3.93046000E-03	-1.63518000E-02	-5.64292000E-03
					 3.34391000E-03	-7.23693000E-03	-4.85035000E-03
					 1.95508000E-03	-1.21940000E-02	-2.62969000E-03
					 4.00650000E-03	-1.42998000E-02	-5.47935000E-03
					 3.09214000E-03	-1.05436000E-02	-4.95683000E-03
					 1.91251000E-03	-1.63348000E-02	-2.64135000E-03
					-6.76122000E-05	-2.02976000E-02	 1.93451000E-04
					-3.91416000E-03	-2.04533000E-02	 6.10955000E-03
					-8.76172000E-05	-1.83383000E-02	 2.46345000E-04
					-4.03111000E-03	-1.85288000E-02	 6.29047000E-03
					-2.13317000E-05	-1.34530000E-02	 1.51469000E-04
					-1.99495000E-03	-2.03564000E-02	 3.00533000E-03
					-2.89291000E-03	-1.36890000E-02	 5.30381000E-03
					 3.80753000E-03	-2.03155000E-02	-5.72430000E-03
					 3.87026000E-03	-1.83463000E-02	-5.80174000E-03
					 2.86680000E-03	-1.35735000E-02	-5.00175000E-03
					 1.86735000E-03	-2.02900000E-02	-2.61476000E-03
					-2.86968000E-04	-2.43683000E-02	 5.48475000E-04
					-5.65602000E-03	-2.43958000E-02	 7.05165000E-03
					-2.24577000E-04	-2.97011000E-02	 4.31607000E-04
					-5.59254000E-03	-2.98501000E-02	 6.96457000E-03
					-2.23696000E-04	-1.80101000E-02	 4.83193000E-04
					-2.96368000E-03	-2.43819000E-02	 3.78912000E-03
					-5.11574000E-03	-1.81298000E-02	 6.86827000E-03
					-2.54351000E-04	-2.70347000E-02	 4.92980000E-04
					-5.62775000E-03	-2.71396000E-02	 6.94585000E-03
					-1.67379000E-04	-2.28331000E-02	 3.63378000E-04
					-2.93325000E-03	-2.97806000E-02	 3.61186000E-03
					-4.94897000E-03	-2.29740000E-02	 6.77515000E-03
					 5.04094000E-03	-2.42386000E-02	-5.94057000E-03
					 5.13895000E-03	-2.95968000E-02	-6.12073000E-03
					 4.66151000E-03	-1.79370000E-02	-5.90219000E-03
					 2.37593000E-03	-2.43061000E-02	-2.68067000E-03
					 5.08879000E-03	-2.69139000E-02	-5.97467000E-03
					 4.61703000E-03	-2.27704000E-02	-6.05012000E-03
					 2.45921000E-03	-2.96562000E-02	-2.76893000E-03
					-1.69600000E-04	-3.50826000E-02	 3.10259000E-04
					-5.64737000E-03	-3.53564000E-02	 6.81242000E-03
					-1.96424000E-04	-3.24033000E-02	 3.69862000E-04
					-5.62233000E-03	-3.24848000E-02	 6.99736000E-03
					-1.08522000E-04	-2.75676000E-02	 2.44954000E-04
					-2.87749000E-03	-3.52296000E-02	 3.36468000E-03
					-4.83345000E-03	-2.77373000E-02	 6.63390000E-03
					 5.26476000E-03	-3.50123000E-02	-6.23696000E-03
					 5.20214000E-03	-3.22955000E-02	-6.27676000E-03
					 4.58031000E-03	-2.75101000E-02	-6.14804000E-03
					 2.53957000E-03	-3.50644000E-02	-2.78929000E-03
					-3.26936000E-04	-3.66066000E-02	 6.27935000E-04
					-6.04235000E-03	-3.64028000E-02	 5.67348000E-03