# vtk DataFile Version 3.0

ASCII
DATASET UNSTRUCTURED_GRID

POINTS 522 double
	 1.00000000E+00	 1.00000000E+00	-5.96046000E-08
	 1.00000000E+00	 5.00000000E-01	-5.96046000E-08
	 1.00000000E+00	 5.00000000E-01	 1.00000000E+00
	 1.00000000E+00	 1.00000000E+00	 1.00000000E+00
	 5.00000000E-01	 1.00000000E+00	-5.96046000E-08
	 5.00000000E-01	 5.00000000E-01	-5.96046000E-08
	 5.00000000E-01	 5.00000000E-01	 1.00000000E+00
	 5.00000000E-01	 1.00000000E+00	 1.00000000E+00
	 1.00000000E+00	 7.50000000E-01	-5.96046000E-08
	 1.00000000E+00	 5.00000000E-01	 5.00000000E-01
	 1.00000000E+00	 7.50000000E-01	 1.00000000E+00
	 1.00000000E+00	 1.00000000E+00	 5.00000000E-01
	 7.50000000E-01	 1.00000000E+00	-5.96046000E-08
	 7.50000000E-01	 5.00000000E-01	-5.96046000E-08
	 7.50000000E-01	 5.00000000E-01	 1.00000000E+00
	 7.50000000E-01	 1.00000000E+00	 1.00000000E+00
	 5.00000000E-01	 7.50000000E-01	-5.96046000E-08
	 5.00000000E-01	 5.00000000E-01	 5.00000000E-01
	 5.00000000E-01	 7.50000000E-01	 1.00000000E+00
	 5.00000000E-01	 1.00000000E+00	 5.00000000E-01
	 1.00000000E+00	-1.49012000E-08	-5.96046000E-08
	 1.00000000E+00	-1.49012000E-08	 1.00000000E+00
	 5.00000000E-01	-1.49012000E-08	-5.96046000E-08
	 5.00000000E-01	-1.49012000E-08	 1.00000000E+00
	 1.00000000E+00	 2.50000000E-01	-5.96046000E-08
	 1.00000000E+00	-1.49012000E-08	 5.00000000E-01
	 1.00000000E+00	 2.50000000E-01	 1.00000000E+00
	 7.50000000E-01	-1.49012000E-08	-5.96046000E-08
	 7.50000000E-01	-1.49012000E-08	 1.00000000E+00
	 5.00000000E-01	 2.50000000E-01	-5.96046000E-08
	 5.00000000E-01	-1.49012000E-08	 5.00000000E-01
	 5.00000000E-01	 2.50000000E-01	 1.00000000E+00
	-7.45058000E-09	 1.00000000E+00	-5.96046000E-08
	-7.45058000E-09	 5.00000000E-01	-5.96046000E-08
	-7.45058000E-09	 5.00000000E-01	 1.00000000E+00
	-7.45058000E-09	 1.00000000E+00	 1.00000000E+00
	 2.50000000E-01	 1.00000000E+00	-5.96046000E-08
	 2.50000000E-01	 5.00000000E-01	-5.96046000E-08
	 2.50000000E-01	 5.00000000E-01	 1.00000000E+00
	 2.50000000E-01	 1.00000000E+00	 1.00000000E+00
	-7.45058000E-09	 7.50000000E-01	-5.96046000E-08
	-7.45058000E-09	 5.00000000E-01	 5.00000000E-01
	-7.45058000E-09	 7.50000000E-01	 1.00000000E+00
	-7.45058000E-09	 1.00000000E+00	 5.00000000E-01
	-7.45058000E-09	-1.49012000E-08	-5.96046000E-08
	-7.45058000E-09	-1.49012000E-08	 1.00000000E+00
	 2.50000000E-01	-1.49012000E-08	-5.96046000E-08
	 2.50000000E-01	-1.49012000E-08	 1.00000000E+00
	-7.45058000E-09	 2.50000000E-01	-5.96046000E-08
	-7.45058000E-09	-1.49012000E-08	 5.00000000E-01
	-7.45058000E-09	 2.50000000E-01	 1.00000000E+00
	 1.00000000E+00	 5.00000000E-01	 2.00000000E+00
	 1.00000000E+00	 1.00000000E+00	 2.00000000E+00
	 5.00000000E-01	 5.00000000E-01	 2.00000000E+00
	 5.00000000E-01	 1.00000000E+00	 2.00000000E+00
	 1.00000000E+00	 5.00000000E-01	 1.50000000E+00
	 1.00000000E+00	 7.50000000E-01	 2.00000000E+00
	 1.00000000E+00	 1.00000000E+00	 1.50000000E+00
	 7.50000000E-01	 5.00000000E-01	 2.00000000E+00
	 7.50000000E-01	 1.00000000E+00	 2.00000000E+00
	 5.00000000E-01	 5.00000000E-01	 1.50000000E+00
	 5.00000000E-01	 7.50000000E-01	 2.00000000E+00
	 5.00000000E-01	 1.00000000E+00	 1.50000000E+00
	 1.00000000E+00	-1.49012000E-08	 2.00000000E+00
	 5.00000000E-01	-1.49012000E-08	 2.00000000E+00
	 1.00000000E+00	-1.49012000E-08	 1.50000000E+00
	 1.00000000E+00	 2.50000000E-01	 2.00000000E+00
	 7.50000000E-01	-1.49012000E-08	 2.00000000E+00
	 5.00000000E-01	-1.49012000E-08	 1.50000000E+00
	 5.00000000E-01	 2.50000000E-01	 2.00000000E+00
	-7.45058000E-09	 5.00000000E-01	 2.00000000E+00
	-7.45058000E-09	 1.00000000E+00	 2.00000000E+00
	 2.50000000E-01	 5.00000000E-01	 2.00000000E+00
	 2.50000000E-01	 1.00000000E+00	 2.00000000E+00
	-7.45058000E-09	 5.00000000E-01	 1.50000000E+00
	-7.45058000E-09	 7.50000000E-01	 2.00000000E+00
	-7.45058000E-09	 1.00000000E+00	 1.50000000E+00
	-7.45058000E-09	-1.49012000E-08	 2.00000000E+00
	 2.50000000E-01	-1.49012000E-08	 2.00000000E+00
	-7.45058000E-09	-1.49012000E-08	 1.50000000E+00
	-7.45058000E-09	 2.50000000E-01	 2.00000000E+00
	 1.00000000E+00	 5.00000000E-01	 3.00000000E+00
	 1.00000000E+00	 1.00000000E+00	 3.00000000E+00
	 5.00000000E-01	 5.00000000E-01	 3.00000000E+00
	 5.00000000E-01	 1.00000000E+00	 3.00000000E+00
	 1.00000000E+00	 5.00000000E-01	 2.50000000E+00
	 1.00000000E+00	 7.50000000E-01	 3.00000000E+00
	 1.00000000E+00	 1.00000000E+00	 2.50000000E+00
	 7.50000000E-01	 5.00000000E-01	 3.00000000E+00
	 7.50000000E-01	 1.00000000E+00	 3.00000000E+00
	 5.00000000E-01	 5.00000000E-01	 2.50000000E+00
	 5.00000000E-01	 7.50000000E-01	 3.00000000E+00
	 5.00000000E-01	 1.00000000E+00	 2.50000000E+00
	 1.00000000E+00	-1.49012000E-08	 3.00000000E+00
	 5.00000000E-01	-1.49012000E-08	 3.00000000E+00
	 1.00000000E+00	-1.49012000E-08	 2.50000000E+00
	 1.00000000E+00	 2.50000000E-01	 3.00000000E+00
	 7.50000000E-01	-1.49012000E-08	 3.00000000E+00
	 5.00000000E-01	-1.49012000E-08	 2.50000000E+00
	 5.00000000E-01	 2.50000000E-01	 3.00000000E+00
	-7.45058000E-09	 5.00000000E-01	 3.00000000E+00
	-7.45058000E-09	 1.00000000E+00	 3.00000000E+00
	 2.50000000E-01	 5.00000000E-01	 3.00000000E+00
	 2.50000000E-01	 1.00000000E+00	 3.00000000E+00
	-7.45058000E-09	 5.00000000E-01	 2.50000000E+00
	-7.45058000E-09	 7.50000000E-01	 3.00000000E+00
	-7.45058000E-09	 1.00000000E+00	 2.50000000E+00
	-7.45058000E-09	-1.49012000E-08	 3.00000000E+00
	 2.50000000E-01	-1.49012000E-08	 3.00000000E+00
	-7.45058000E-09	-1.49012000E-08	 2.50000000E+00
	-7.45058000E-09	 2.50000000E-01	 3.00000000E+00
	 1.00000000E+00	 5.00000000E-01	 4.00000000E+00
	 1.00000000E+00	 1.00000000E+00	 4.00000000E+00
	 5.00000000E-01	 5.00000000E-01	 4.00000000E+00
	 5.00000000E-01	 1.00000000E+00	 4.00000000E+00
	 1.00000000E+00	 5.00000000E-01	 3.50000000E+00
	 1.00000000E+00	 7.50000000E-01	 4.00000000E+00
	 1.00000000E+00	 1.00000000E+00	 3.50000000E+00
	 7.50000000E-01	 5.00000000E-01	 4.00000000E+00
	 7.50000000E-01	 1.00000000E+00	 4.00000000E+00
	 5.00000000E-01	 5.00000000E-01	 3.50000000E+00
	 5.00000000E-01	 7.50000000E-01	 4.00000000E+00
	 5.00000000E-01	 1.00000000E+00	 3.50000000E+00
	 1.00000000E+00	-1.49012000E-08	 4.00000000E+00
	 5.00000000E-01	-1.49012000E-08	 4.00000000E+00
	 1.00000000E+00	-1.49012000E-08	 3.50000000E+00
	 1.00000000E+00	 2.50000000E-01	 4.00000000E+00
	 7.50000000E-01	-1.49012000E-08	 4.00000000E+00
	 5.00000000E-01	-1.49012000E-08	 3.50000000E+00
	 5.00000000E-01	 2.50000000E-01	 4.00000000E+00
	-7.45058000E-09	 5.00000000E-01	 4.00000000E+00
	-7.45058000E-09	 1.00000000E+00	 4.00000000E+00
	 2.50000000E-01	 5.00000000E-01	 4.00000000E+00
	 2.50000000E-01	 1.00000000E+00	 4.00000000E+00
	-7.45058000E-09	 5.00000000E-01	 3.50000000E+00
	-7.45058000E-09	 7.50000000E-01	 4.00000000E+00
	-7.45058000E-09	 1.00000000E+00	 3.50000000E+00
	-7.45058000E-09	-1.49012000E-08	 4.00000000E+00
	 2.50000000E-01	-1.49012000E-08	 4.00000000E+00
	-7.45058000E-09	-1.49012000E-08	 3.50000000E+00
	-7.45058000E-09	 2.50000000E-01	 4.00000000E+00
	 1.00000000E+00	 5.00000000E-01	 5.00000000E+00
	 1.00000000E+00	 1.00000000E+00	 5.00000000E+00
	 5.00000000E-01	 5.00000000E-01	 5.00000000E+00
	 5.00000000E-01	 1.00000000E+00	 5.00000000E+00
	 1.00000000E+00	 5.00000000E-01	 4.50000000E+00
	 1.00000000E+00	 7.50000000E-01	 5.00000000E+00
	 1.00000000E+00	 1.00000000E+00	 4.50000000E+00
	 7.50000000E-01	 5.00000000E-01	 5.00000000E+00
	 7.50000000E-01	 1.00000000E+00	 5.00000000E+00
	 5.00000000E-01	 5.00000000E-01	 4.50000000E+00
	 5.00000000E-01	 7.50000000E-01	 5.00000000E+00
	 5.00000000E-01	 1.00000000E+00	 4.50000000E+00
	 1.00000000E+00	-1.49012000E-08	 5.00000000E+00
	 5.00000000E-01	-1.49012000E-08	 5.00000000E+00
	 1.00000000E+00	-1.49012000E-08	 4.50000000E+00
	 1.00000000E+00	 2.50000000E-01	 5.00000000E+00
	 7.50000000E-01	-1.49012000E-08	 5.00000000E+00
	 5.00000000E-01	-1.49012000E-08	 4.50000000E+00
	 5.00000000E-01	 2.50000000E-01	 5.00000000E+00
	-7.45058000E-09	 5.00000000E-01	 5.00000000E+00
	-7.45058000E-09	 1.00000000E+00	 5.00000000E+00
	 2.50000000E-01	 5.00000000E-01	 5.00000000E+00
	 2.50000000E-01	 1.00000000E+00	 5.00000000E+00
	-7.45058000E-09	 5.00000000E-01	 4.50000000E+00
	-7.45058000E-09	 7.50000000E-01	 5.00000000E+00
	-7.45058000E-09	 1.00000000E+00	 4.50000000E+00
	-7.45058000E-09	-1.49012000E-08	 5.00000000E+00
	 2.50000000E-01	-1.49012000E-08	 5.00000000E+00
	-7.45058000E-09	-1.49012000E-08	 4.50000000E+00
	-7.45058000E-09	 2.50000000E-01	 5.00000000E+00
	 1.00000000E+00	 5.00000000E-01	 6.00000000E+00
	 1.00000000E+00	 1.00000000E+00	 6.00000000E+00
	 5.00000000E-01	 5.00000000E-01	 6.00000000E+00
	 5.00000000E-01	 1.00000000E+00	 6.00000000E+00
	 1.00000000E+00	 5.00000000E-01	 5.50000000E+00
	 1.00000000E+00	 7.50000000E-01	 6.00000000E+00
	 1.00000000E+00	 1.00000000E+00	 5.50000000E+00
	 7.50000000E-01	 5.00000000E-01	 6.00000000E+00
	 7.50000000E-01	 1.00000000E+00	 6.00000000E+00
	 5.00000000E-01	 5.00000000E-01	 5.50000000E+00
	 5.00000000E-01	 7.50000000E-01	 6.00000000E+00
	 5.00000000E-01	 1.00000000E+00	 5.50000000E+00
	 1.00000000E+00	-1.49012000E-08	 6.00000000E+00
	 5.00000000E-01	-1.49012000E-08	 6.00000000E+00
	 1.00000000E+00	-1.49012000E-08	 5.50000000E+00
	 1.00000000E+00	 2.50000000E-01	 6.00000000E+00
	 7.50000000E-01	-1.49012000E-08	 6.00000000E+00
	 5.00000000E-01	-1.49012000E-08	 5.50000000E+00
	 5.00000000E-01	 2.50000000E-01	 6.00000000E+00
	-7.45058000E-09	 5.00000000E-01	 6.00000000E+00
	-7.45058000E-09	 1.00000000E+00	 6.00000000E+00
	 2.50000000E-01	 5.00000000E-01	 6.00000000E+00
	 2.50000000E-01	 1.00000000E+00	 6.00000000E+00
	-7.45058000E-09	 5.00000000E-01	 5.50000000E+00
	-7.45058000E-09	 7.50000000E-01	 6.00000000E+00
	-7.45058000E-09	 1.00000000E+00	 5.50000000E+00
	-7.45058000E-09	-1.49012000E-08	 6.00000000E+00
	 2.50000000E-01	-1.49012000E-08	 6.00000000E+00
	-7.45058000E-09	-1.49012000E-08	 5.50000000E+00
	-7.45058000E-09	 2.50000000E-01	 6.00000000E+00
	 1.00000000E+00	 5.00000000E-01	 7.00000000E+00
[...]
POINT_DATA 522
FIELD U 1
	U 3 522 double
		 0.00000000E+00	 0.00000000E+00	 0.00000000E+00
		 0.00000000E+00	 0.00000000E+00	 0.00000000E+00
		-1.23249000E-05	 3.43803000E-03	 1.32745000E-05
		-1.37361000E-03	 3.44761000E-03	-1.18421000E-03
		 0.00000000E+00	 0.00000000E+00	 0.00000000E+00
		 0.00000000E+00	 0.00000000E+00	 0.00000000E+00
		-8.59209000E-06	 2.03782000E-03	 1.60344000E-05
		-1.44770000E-03	 2.05706000E-03	-1.20995000E-03
		 0.00000000E+00	 0.00000000E+00	 0.00000000E+00
		-8.22283000E-06	 1.37785000E-03	 8.05547000E-06
		-6.95116000E-04	 3.42314000E-03	-4.02119000E-04
		-5.11308000E-04	 1.44238000E-03	-7.21577000E-04
		 0.00000000E+00	 0.00000000E+00	 0.00000000E+00
		 0.00000000E+00	 0.00000000E+00	 0.00000000E+00
		-1.04633000E-05	 2.75457000E-03	 1.44147000E-05
		-1.41096000E-03	 2.77217000E-03	-1.33603000E-03
		 0.00000000E+00	 0.00000000E+00	 0.00000000E+00
		-5.20259000E-06	 7.39103000E-04	 7.59475000E-06
		-7.26800000E-04	 2.02725000E-03	-5.49381000E-04
		-7.19002000E-04	 8.35291000E-04	-7.15567000E-04
		 0.00000000E+00	 0.00000000E+00	 0.00000000E+00
		 1.34881000E-03	 3.46079000E-03	 1.21053000E-03
		 0.00000000E+00	 0.00000000E+00	 0.00000000E+00
		 1.43159000E-03	 2.07105000E-03	 1.24137000E-03
		 0.00000000E+00	 0.00000000E+00	 0.00000000E+00
		 4.94763000E-04	 1.45114000E-03	 7.38835000E-04
		 6.70306000E-04	 3.42922000E-03	 4.28550000E-04
		 0.00000000E+00	 0.00000000E+00	 0.00000000E+00
		 1.39047000E-03	 2.78660000E-03	 1.36427000E-03
		 0.00000000E+00	 0.00000000E+00	 0.00000000E+00
		 7.09420000E-04	 8.44474000E-04	 7.31659000E-04
		 7.09993000E-04	 2.03442000E-03	 5.81105000E-04
		 0.00000000E+00	 0.00000000E+00	 0.00000000E+00
		 0.00000000E+00	 0.00000000E+00	 0.00000000E+00
		-3.99243000E-06	 5.58423000E-04	 1.78493000E-05
		-1.50866000E-03	 5.80885000E-04	-1.18030000E-03
		 0.00000000E+00	 0.00000000E+00	 0.00000000E+00
		 0.00000000E+00	 0.00000000E+00	 0.00000000E+00
		-6.54798000E-06	 1.31735000E-03	 1.72296000E-05
		-1.47655000E-03	 1.33437000E-03	-1.07335000E-03
		 0.00000000E+00	 0.00000000E+00	 0.00000000E+00
		-1.69241000E-06	-5.09470000E-05	 8.05760000E-06
		-7.59153000E-04	 5.51057000E-04	-6.58153000E-04
		-8.71318000E-04	 6.90160000E-05	-7.22083000E-04
		 0.00000000E+00	 0.00000000E+00	 0.00000000E+00
		 1.50263000E-03	 5.92967000E-04	 1.21509000E-03
		 0.00000000E+00	 0.00000000E+00	 0.00000000E+00
		 1.46520000E-03	 1.34742000E-03	 1.10712000E-03
		 0.00000000E+00	 0.00000000E+00	 0.00000000E+00
		 8.69476000E-04	 7.69121000E-05	 7.38520000E-04
		 7.51656000E-04	 5.57314000E-04	 6.93372000E-04
		-1.95906000E-05	 7.60142000E-03	 2.13722000E-05
		-2.66709000E-03	 7.60769000E-03	-1.40886000E-03
		-1.09918000E-05	 4.95889000E-03	 2.44967000E-05
		-2.65931000E-03	 4.95475000E-03	-1.40906000E-03
		-1.54217000E-05	 5.57582000E-03	 1.71340000E-05
		-1.33895000E-03	 7.60730000E-03	-6.29553000E-04
		-2.10963000E-03	 5.61187000E-03	-1.35361000E-03
		-1.51287000E-05	 6.28137000E-03	 2.34006000E-05
		-2.66374000E-03	 6.27626000E-03	-1.47022000E-03
		-9.46445000E-06	 3.48377000E-03	 2.13383000E-05
		-1.33700000E-03	 4.95888000E-03	-6.90767000E-04
		-2.11908000E-03	 3.50233000E-03	-1.35729000E-03
		 2.62923000E-03	 7.63160000E-03	 1.44922000E-03
		 2.63875000E-03	 4.97615000E-03	 1.45564000E-03
		 2.07900000E-03	 5.63153000E-03	 1.38676000E-03
		 1.30015000E-03	 7.61903000E-03	 6.71511000E-04
		 2.63498000E-03	 6.29934000E-03	 1.51477000E-03
		 2.10145000E-03	 3.52080000E-03	 1.39858000E-03
		 1.31547000E-03	 4.96972000E-03	 7.39109000E-04
		-3.29072000E-06	 2.30302000E-03	 2.79048000E-05
		-2.67520000E-03	 2.28883000E-03	-1.40294000E-03
		-7.07549000E-06	 3.62847000E-03	 2.57841000E-05
		-2.66835000E-03	 3.62357000E-03	-1.34427000E-03
		-3.84218000E-06	 1.35495000E-03	 2.50275000E-05
		-1.33738000E-03	 2.29642000E-03	-7.47459000E-04
		-2.15690000E-03	 1.36468000E-03	-1.34635000E-03
		 2.66991000E-03	 2.30807000E-03	 1.45640000E-03
		 2.65549000E-03	 3.64346000E-03	 1.39359000E-03
		 2.15121000E-03	 1.38104000E-03	 1.39498000E-03
		 1.33126000E-03	 2.30647000E-03	 8.02591000E-04
		-3.92195000E-05	 1.12516000E-02	 2.81760000E-05
		-3.33294000E-03	 1.12341000E-02	-1.40970000E-03
		-2.59826000E-05	 7.97328000E-03	 2.40825000E-05
		-3.29386000E-03	 7.95203000E-03	-1.41925000E-03
		-2.69469000E-05	 9.48564000E-03	 2.54516000E-05
		-1.68631000E-03	 1.12448000E-02	-6.52786000E-04
		-3.06474000E-03	 9.47993000E-03	-1.43576000E-03
		-3.27349000E-05	 9.61102000E-03	 2.59934000E-05
		-3.31338000E-03	 9.59108000E-03	-1.44160000E-03
		-1.58733000E-05	 6.45368000E-03	 2.53084000E-05
		-1.66065000E-03	 7.96455000E-03	-6.85807000E-04
		-3.04816000E-03	 6.44095000E-03	-1.44012000E-03
		 3.25938000E-03	 1.12628000E-02	 1.46540000E-03
		 3.24395000E-03	 7.97437000E-03	 1.46662000E-03
		 3.01365000E-03	 9.50629000E-03	 1.48411000E-03
		 1.60915000E-03	 1.12585000E-02	 7.08710000E-04
		 3.25197000E-03	 9.61592000E-03	 1.49319000E-03
		 3.01794000E-03	 6.46312000E-03	 1.48819000E-03
		 1.60931000E-03	 7.97465000E-03	 7.33680000E-04
		-1.38700000E-05	 4.71422000E-03	 2.14867000E-05
		-3.27040000E-03	 4.68557000E-03	-1.41703000E-03
		-1.94494000E-05	 6.34158000E-03	 2.25876000E-05
		-3.28223000E-03	 6.31868000E-03	-1.39828000E-03
		-5.82304000E-06	 3.41951000E-03	 2.60263000E-05
		-1.64069000E-03	 4.70141000E-03	-7.07076000E-04
		-3.05092000E-03	 3.39813000E-03	-1.43591000E-03
		 3.24193000E-03	 4.70747000E-03	 1.45909000E-03
		 3.24347000E-03	 6.34019000E-03	 1.44252000E-03
		 3.03934000E-03	 3.41921000E-03	 1.48551000E-03
		 1.61274000E-03	 4.71188000E-03	 7.49660000E-04
		-7.41534000E-05	 1.40558000E-02	 3.39642000E-05
		-3.48041000E-03	 1.40268000E-02	-1.14075000E-03
		-5.94943000E-05	 1.06794000E-02	 2.73507000E-05
		-3.41333000E-03	 1.06449000E-02	-1.14455000E-03
		-5.66708000E-05	 1.28041000E-02	 3.07753000E-05
		-1.77531000E-03	 1.40488000E-02	-5.67101000E-04
		-3.47016000E-03	 1.27801000E-02	-1.29388000E-03
		-6.75545000E-05	 1.23615000E-02	 3.03643000E-05
		-3.44768000E-03	 1.23272000E-02	-1.13237000E-03
		-4.20449000E-05	 9.41721000E-03	 2.39829000E-05
		-1.73747000E-03	 1.06704000E-02	-5.61844000E-04
		-3.40855000E-03	 9.38799000E-03	-1.30406000E-03
		 3.33818000E-03	 1.40583000E-02	 1.20971000E-03
		 3.29773000E-03	 1.06698000E-02	 1.20063000E-03
		 3.36304000E-03	 1.28112000E-02	 1.35670000E-03
		 1.62869000E-03	 1.40651000E-02	 6.35565000E-04
		 3.31819000E-03	 1.23543000E-02	 1.19404000E-03
		 3.32756000E-03	 9.41176000E-03	 1.35302000E-03
		 1.61977000E-03	 1.06820000E-02	 6.16927000E-04
		-4.36569000E-05	 7.34549000E-03	 2.02709000E-05
		-3.35757000E-03	 7.30791000E-03	-1.15346000E-03
		-5.11680000E-05	 9.00526000E-03	 2.41490000E-05
		-3.38551000E-03	 8.97014000E-03	-1.15754000E-03
		-2.73573000E-05	 6.06877000E-03	 1.84873000E-05
		-1.70077000E-03	 7.33426000E-03	-5.60640000E-04
		-3.36156000E-03	 6.03421000E-03	-1.30645000E-03
		 3.26987000E-03	 7.33301000E-03	 1.19572000E-03
		 3.28429000E-03	 8.99471000E-03	 1.20746000E-03
		 3.30638000E-03	 6.05758000E-03	 1.34413000E-03
		 1.61343000E-03	 7.34590000E-03	 6.01590000E-04
		-9.04438000E-05	 1.57126000E-02	 3.49760000E-05
		-3.14145000E-03	 1.57163000E-02	-1.03016000E-03
		-8.04835000E-05	 1.26456000E-02	 3.70572000E-05
		-3.16180000E-03	 1.26488000E-02	-1.01626000E-03
		-8.57744000E-05	 1.49799000E-02	 3.55545000E-05
		-1.61595000E-03	 1.57101000E-02	-5.58300000E-04
		-3.36137000E-03	 1.49690000E-02	-1.02658000E-03
		-8.58082000E-05	 1.41829000E-02	 3.65362000E-05
		-3.15216000E-03	 1.41867000E-02	-9.83786000E-04
		-7.29684000E-05	 1.17191000E-02	 3.24717000E-05
		-1.62077000E-03	 1.26431000E-02	-5.12781000E-04
		-3.32429000E-03	 1.17023000E-02	-1.02019000E-03
		 2.96013000E-03	 1.57377000E-02	 1.10081000E-03
		 2.99994000E-03	 1.26727000E-02	 1.09163000E-03
		 3.19280000E-03	 1.49957000E-02	 1.09797000E-03
		 1.43512000E-03	 1.57212000E-02	 6.28641000E-04
		 2.98015000E-03	 1.42090000E-02	 1.05743000E-03
		 3.17981000E-03	 1.17267000E-02	 1.08642000E-03
		 1.45982000E-03	 1.26550000E-02	 5.87252000E-04
		-6.81211000E-05	 9.55038000E-03	 3.72737000E-05
		-3.17930000E-03	 9.55152000E-03	-1.02668000E-03
		-7.46641000E-05	 1.11017000E-02	 3.70972000E-05
		-3.17053000E-03	 1.11039000E-02	-1.04505000E-03
		-5.84714000E-05	 8.47598000E-03	 2.73223000E-05
		-1.62327000E-03	 9.54692000E-03	-4.92632000E-04
		-3.29562000E-03	 8.45562000E-03	-1.03272000E-03
		 3.04108000E-03	 9.57957000E-03	 1.10300000E-03
		 3.01971000E-03	 1.11299000E-02	 1.12096000E-03
		 3.17779000E-03	 8.48196000E-03	 1.08962000E-03
		 1.48664000E-03	 9.56085000E-03	 5.67697000E-04
		-8.43239000E-05	 1.78011000E-02	 3.41818000E-05
		-2.77101000E-03	 1.78335000E-02	-1.57483000E-03
		-7.59446000E-05	 1.50492000E-02	 4.32048000E-05
		-2.88102000E-03	 1.50913000E-02	-1.56660000E-03
		-8.84165000E-05	 1.65333000E-02	 3.38347000E-05
		-1.43099000E-03	 1.78012000E-02	-7.70249000E-04
		-2.90044000E-03	 1.65499000E-02	-1.24218000E-03
		-8.01125000E-05	 1.64387000E-02	 3.88185000E-05
		-2.82524000E-03	 1.64800000E-02	-1.56641000E-03
		-8.01851000E-05	 1.36710000E-02	 4.07428000E-05
		-1.47769000E-03	 1.50540000E-02	-7.57068000E-04
		-2.98265000E-03	 1.36953000E-02	-1.22550000E-03
		 2.60176000E-03	 1.78555000E-02	 1.64132000E-03
		 2.72792000E-03	 1.51151000E-02	 1.65064000E-03
		 2.72236000E-03	 1.65704000E-02	 1.31014000E-03
		 1.26224000E-03	 1.78125000E-02	 8.37918000E-04
		 2.66410000E-03	 1.65027000E-02	 1.64219000E-03
		 2.82055000E-03	 1.37192000E-02	 1.30706000E-03
		 1.32555000E-03	 1.50661000E-02	 8.42850000E-04
		-6.66744000E-05	 1.21940000E-02	 5.41278000E-05
		-2.97780000E-03	 1.22366000E-02	-1.55572000E-03
		-7.14982000E-05	 1.36373000E-02	 4.80906000E-05
		-2.92955000E-03	 1.36786000E-02	-1.56719000E-03
		-7.00594000E-05	 1.07298000E-02	 4.74805000E-05
		-1.52208000E-03	 1.22000000E-02	-7.40823000E-04
		-3.05115000E-03	 1.07549000E-02	-1.22906000E-03
		 2.84299000E-03	 1.22630000E-02	 1.66119000E-03
		 2.78506000E-03	 1.37036000E-02	 1.66068000E-03
		 2.90858000E-03	 1.07832000E-02	 1.32391000E-03
		 1.38852000E-03	 1.22136000E-02	 8.48364000E-04
		-9.03885000E-05	 2.20877000E-02	 2.68190000E-05
		-3.06717000E-03	 2.20868000E-02	-2.08201000E-03
		-7.98007000E-05	 1.91025000E-02	 4.09622000E-05
		-3.07929000E-03	 1.91006000E-02	-2.07453000E-03
		-8.59776000E-05	 1.97280000E-02	 3.35148000E-05
		-1.57952000E-03	 2.20850000E-02	-9.69682000E-04
		-2.84874000E-03	 1.97406000E-02	-1.89204000E-03
		-8.57424000E-05	 2.05968000E-02	 3.35969000E-05
		-3.07411000E-03	 2.05958000E-02	-2.11516000E-03
		-7.62777000E-05	 1.69188000E-02	 4.32526000E-05
		-1.58049000E-03	 1.90998000E-02	-9.92934000E-04
		-2.92531000E-03	 1.69413000E-02	-1.89276000E-03
		 2.88707000E-03	 2.21109000E-02	 2.13818000E-03
		 2.92131000E-03	 1.91250000E-02	 2.15831000E-03
		 2.67740000E-03	 1.97630000E-02	 1.95683000E-03
		 1.39909000E-03	 2.20957000E-02	 1.02476000E-03
		 2.90368000E-03	 2.06203000E-02	 2.18458000E-03
		 2.77272000E-03	 1.69641000E-02	 1.97662000E-03
		 1.42168000E-03	 1.91109000E-02	 1.07580000E-03
		-6.73751000E-05	 1.60911000E-02	 5.29454000E-05
		-3.08921000E-03	 1.60915000E-02	-2.05035000E-03
		-7.33688000E-05	 1.76008000E-02	 4.73703000E-05
		-3.08399000E-03	 1.75991000E-02	-2.03882000E-03
		-6.53225000E-05	 1.40340000E-02	 5.49563000E-05
		-1.57924000E-03	 1.60897000E-02	-9.98162000E-04
		-2.98542000E-03	 1.40614000E-02	-1.86993000E-03
		 2.95613000E-03	 1.61150000E-02	 2.15741000E-03
		 2.93938000E-03	 1.76234000E-02	 2.13442000E-03
		 2.85395000E-03	 1.40856000E-02	 1.97682000E-03
		 1.44496000E-03	 1.60999000E-02	 1.10512000E-03
		-7.46671000E-05	 2.66629000E-02	 1.10823000E-05
		-3.30755000E-03	 2.66491000E-02	-2.08282000E-03
		-7.41871000E-05	 2.34342000E-02	 3.40794000E-05
		-3.28385000E-03	 2.34067000E-02	-2.04708000E-03
		-8.67458000E-05	 2.44674000E-02	 1.68577000E-05
		-1.68530000E-03	 2.66578000E-02	-1.03849000E-03
		-3.25437000E-03	 2.44656000E-02	-2.10342000E-03
		-7.36402000E-05	 2.50495000E-02	 2.43817000E-05
		-3.29604000E-03	 2.50234000E-02	-2.06701000E-03
		-7.83936000E-05	 2.13116000E-02	 3.77779000E-05
		-1.67770000E-03	 2.34220000E-02	-1.01187000E-03
		-3.23161000E-03	 2.12995000E-02	-2.07803000E-03
		 3.15445000E-03	 2.66946000E-02	 2.11636000E-03
		 3.14175000E-03	 2.34543000E-02	 2.12697000E-03
		 3.07888000E-03	 2.44961000E-02	 2.14717000E-03
		 1.53530000E-03	 2.66830000E-02	 1.06357000E-03
		 3.14944000E-03	 2.50719000E-02	 2.12739000E-03
		 3.07916000E-03	 2.13317000E-02	 2.16258000E-03
		 1.53167000E-03	 2.34481000E-02	 1.08322000E-03
		-7.15622000E-05	 2.02156000E-02	 4.49871000E-05
		-3.27337000E-03	 2.01878000E-02	-2.02441000E-03
		-7.42108000E-05	 2.18201000E-02	 4.05068000E-05
		-3.27900000E-03	 2.17915000E-02	-2.02717000E-03
		-6.85609000E-05	 1.81591000E-02	 4.95493000E-05
		-1.67409000E-03	 2.02042000E-02	-9.99978000E-04
		-3.21580000E-03	 1.81484000E-02	-2.05507000E-03
		 3.14496000E-03	 2.02200000E-02	 2.12662000E-03
		 3.14245000E-03	 2.18339000E-02	 2.11945000E-03
		 3.08767000E-03	 1.81716000E-02	 2.16214000E-03
		 1.53516000E-03	 2.02205000E-02	 1.09415000E-03
		 0.00000000E+00	 0.00000000E+00	 0.00000000E+00
		 0.00000000E+00	 0.00000000E+00	 0.00000000E+00
		-2.85613000E-05	-5.89336000E-03	 1.00412000E-04
		-2.82874000E-04	-6.08854000E-03	 4.29913000E-03
		 0.00000000E+00	 0.00000000E+00	 0.00000000E+00
		 0.00000000E+00	 0.00000000E+00	 0.00000000E+00
		-1.00663000E-05	-5.95063000E-03	 9.53100000E-05
		 1.30620000E-04	-6.16607000E-03	 4.37299000E-03
		 0.00000000E+00	 0.00000000E+00	 0.00000000E+00
		-2.14641000E-05	-1.72045000E-03	 5.14673000E-05
		-1.55701000E-04	-5.90752000E-03	 2.06131000E-03
		-5.79131000E-04	-2.08799000E-03	 2.40037000E-03
		 0.00000000E+00	 0.00000000E+00	 0.00000000E+00
		 0.00000000E+00	 0.00000000E+00	 0.00000000E+00
		-1.89306000E-05	-5.99972000E-03	 9.67892000E-05
		-7.22688000E-05	-6.20593000E-03	 4.36167000E-03
		 0.00000000E+00	 0.00000000E+00	 0.00000000E+00
		-4.82992000E-06	-1.90741000E-03	 4.43336000E-05
		 5.89811000E-05	-5.97166000E-03	 2.11516000E-03
		 8.12974000E-05	-2.28848000E-03	 2.35255000E-03
		 0.00000000E+00	 0.00000000E+00	 0.00000000E+00
		 2.24828000E-04	-6.01167000E-03	-4.10340000E-03
		 0.00000000E+00	 0.00000000E+00	 0.00000000E+00
		-1.49132000E-04	-6.08488000E-03	-4.18867000E-03
		 0.00000000E+00	 0.00000000E+00	 0.00000000E+00
		 5.35098000E-04	-2.03428000E-03	-2.29406000E-03
		 9.84706000E-05	-5.87076000E-03	-1.86246000E-03
		 0.00000000E+00	 0.00000000E+00	 0.00000000E+00
		 3.42605000E-05	-6.12516000E-03	-4.17431000E-03
		 0.00000000E+00	 0.00000000E+00	 0.00000000E+00
		-8.96182000E-05	-2.23561000E-03	-2.26035000E-03
		-7.99379000E-05	-5.93212000E-03	-1.92789000E-03
		 0.00000000E+00	 0.00000000E+00	 0.00000000E+00
		 0.00000000E+00	 0.00000000E+00	 0.00000000E+00
		 8.65720000E-06	-5.61215000E-03	 9.39246000E-05
		 5.47507000E-04	-5.80581000E-03	 4.29388000E-03
		 0.00000000E+00	 0.00000000E+00	 0.00000000E+00
		 0.00000000E+00	 0.00000000E+00	 0.00000000E+00
		-8.65380000E-07	-5.85949000E-03	 9.32971000E-05
		 3.35188000E-04	-6.05812000E-03	 4.34100000E-03
		 0.00000000E+00	 0.00000000E+00	 0.00000000E+00
		 1.16650000E-05	-1.54833000E-03	 4.73443000E-05
		 2.78673000E-04	-5.62630000E-03	 2.07264000E-03
		 7.35220000E-04	-1.92118000E-03	 2.39612000E-03
		 0.00000000E+00	 0.00000000E+00	 0.00000000E+00
		-5.30527000E-04	-5.72625000E-03	-4.11143000E-03
		 0.00000000E+00	 0.00000000E+00	 0.00000000E+00
		-3.36498000E-04	-5.98307000E-03	-4.15988000E-03
		 0.00000000E+00	 0.00000000E+00	 0.00000000E+00
		-7.11295000E-04	-1.86805000E-03	-2.29922000E-03
		-2.61307000E-04	-5.58813000E-03	-1.88786000E-03
		-4.83783000E-05	-1.72860000E-02	 1.74951000E-04
		-2.03372000E-04	-1.73972000E-02	 6.05772000E-03
		-2.64101000E-05	-1.74037000E-02	 1.60709000E-04
		-9.94904000E-05	-1.75005000E-02	 6.07643000E-03
		-3.60457000E-05	-1.12657000E-02	 1.40298000E-04
		-1.30562000E-04	-1.73382000E-02	 3.08108000E-03
		-1.64013000E-04	-1.14748000E-02	 5.44634000E-03
		-3.77707000E-05	-1.73515000E-02	 1.66416000E-04
		-1.50376000E-04	-1.74480000E-02	 6.04528000E-03
		-1.68945000E-05	-1.12872000E-02	 1.31229000E-04
		-5.59446000E-05	-1.74471000E-02	 3.06343000E-03
		 8.88751000E-05	-1.14778000E-02	 5.47451000E-03
		 1.10766000E-04	-1.72816000E-02	-5.71269000E-03
		 4.28590000E-05	-1.73942000E-02	-5.75765000E-03
		 9.20331000E-05	-1.13735000E-02	-5.17147000E-03
		 3.46194000E-05	-1.72806000E-02	-2.73329000E-03
		 7.72411000E-05	-1.73420000E-02	-5.71394000E-03
		-1.21581000E-04	-1.13797000E-02	-5.21758000E-03
		 6.87215000E-06	-1.73951000E-02	-2.73998000E-03
		-1.01742000E-05	-1.74283000E-02	 1.49349000E-04
		 4.60485000E-05	-1.74941000E-02	 6.03162000E-03
		-1.82335000E-05	-1.74166000E-02	 1.56352000E-04
		-2.48617000E-05	-1.75343000E-02	 6.10627000E-03
		 1.22699000E-06	-1.10571000E-02	 1.26208000E-04
		 8.96458000E-06	-1.74521000E-02	 2.98646000E-03
		 3.69274000E-04	-1.12325000E-02	 5.43284000E-03
		-4.24320000E-05	-1.74072000E-02	-5.73621000E-03
		-7.20838000E-07	-1.74090000E-02	-5.79928000E-03
		-3.55653000E-04	-1.11450000E-02	-5.18415000E-03
		-2.29192000E-05	-1.74104000E-02	-2.68460000E-03
		-6.48254000E-05	-2.93179000E-02	 2.20634000E-04
		-7.82086000E-04	-2.92187000E-02	 5.74298000E-03
		-4.35523000E-05	-3.01126000E-02	 2.19621000E-04
		-9.59336000E-04	-3.01156000E-02	 5.77378000E-03
		-5.89483000E-05	-2.34546000E-02	 2.02474000E-04
		-4.19368000E-04	-2.92928000E-02	 2.97657000E-03
		-4.16204000E-04	-2.34842000E-02	 6.15395000E-03
		-5.35474000E-05	-2.96933000E-02	 2.24139000E-04
		-8.73724000E-04	-2.96566000E-02	 5.68710000E-03
		-3.84018000E-05	-2.38391000E-02	 1.88363000E-04
		-5.24452000E-04	-3.01431000E-02	 2.90559000E-03
		-4.52065000E-04	-2.38692000E-02	 6.17843000E-03
		 6.14476000E-04	-2.91725000E-02	-5.28442000E-03
		 8.66771000E-04	-2.99737000E-02	-5.35065000E-03
		 2.92365000E-04	-2.33812000E-02	-5.74985000E-03
		 2.76900000E-04	-2.92726000E-02	-2.52331000E-03
		 7.38542000E-04	-2.95434000E-02	-5.24993000E-03
		 3.76238000E-04	-2.37517000E-02	-5.80302000E-03
		 4.12651000E-04	-3.00758000E-02	-2.48587000E-03
		-2.70538000E-05	-3.11289000E-02	 2.12989000E-04
		-1.22081000E-03	-3.12483000E-02	 5.73405000E-03
		-3.45668000E-05	-3.06079000E-02	 2.14619000E-04
		-1.09185000E-03	-3.05408000E-02	 5.87335000E-03
		-1.13721000E-05	-2.42767000E-02	 1.73914000E-04
		-5.92656000E-04	-3.12224000E-02	 2.76079000E-03
		-4.96000000E-04	-2.43225000E-02	 6.12958000E-03
		 1.11749000E-03	-3.10083000E-02	-5.35054000E-03
		 9.91619000E-04	-3.04604000E-02	-5.46041000E-03
		 4.31844000E-04	-2.41732000E-02	-5.78510000E-03
		 5.38991000E-04	-3.11090000E-02	-2.37943000E-03
		 1.73253000E-05	-3.76717000E-02	 2.52908000E-04
		-1.76147000E-03	-3.73594000E-02	 3.24882000E-03
		 3.00884000E-05	-3.97585000E-02	 3.08124000E-04
		-2.36178000E-03	-3.98947000E-02	 3.30654000E-03
		-7.24931000E-05	-3.42418000E-02	 2.37077000E-04
		-8.75585000E-04	-3.75809000E-02	 1.82494000E-03
		-1.25325000E-03	-3.41251000E-02	 4.68219000E-03
		 2.36956000E-05	-3.86177000E-02	 2.81290000E-04
		-2.05250000E-03	-3.84712000E-02	 3.19859000E-03
		-6.04692000E-05	-3.56654000E-02	 2.15116000E-04
		-1.04159000E-03	-3.98785000E-02	 1.80083000E-03
		-1.68217000E-03	-3.54836000E-02	 4.76520000E-03
		 1.62781000E-03	-3.74321000E-02	-2.74075000E-03
		 2.12584000E-03	-3.93512000E-02	-2.68734000E-03
		 1.08288000E-03	-3.40438000E-02	-4.20188000E-03
		 8.25354000E-04	-3.76222000E-02	-1.31785000E-03
		 1.87896000E-03	-3.83210000E-02	-2.63431000E-03
		 1.49146000E-03	-3.54142000E-02	-4.22749000E-03
		 1.06561000E-03	-3.95989000E-02	-1.18415000E-03
		-9.02976000E-05	-4.23470000E-02	 3.57173000E-04
		-2.81438000E-03	-4.28511000E-02	 3.35322000E-03
		-2.87851000E-05	-4.09516000E-02	 3.33198000E-04
		-2.58796000E-03	-4.17931000E-02	 3.41299000E-03
		-6.89731000E-05	-3.74712000E-02	 1.61502000E-04
		-1.56836000E-03	-4.26336000E-02	 1.76547000E-03
		-1.94032000E-03	-3.71785000E-02	 4.74102000E-03
		 2.63645000E-03	-4.17822000E-02	-2.63534000E-03