<?xml version="1.0"?>
<VTKFile type="UnstructuredGrid" version="0.1" byte_order="LittleEndian">
	<UnstructuredGrid>
		<Piece NumberOfPoints="522" NumberOfCells="64">
			<Points>
				<DataArray type="Float64" NumberOfComponents="3" format="ascii">
					 1.00000000E+00	 1.00000000E+00	-5.96046000E-08
					 1.00000000E+00	 5.00000000E-01	-5.96046000E-08
					 1.00000000E+00	 5.00000000E-01	 1.00000000E+00
					 1.00000000E+00	 1.00000000E+00	 1.00000000E+00
					 5.00000000E-01	 1.00000000E+00	-5.96046000E-08
					 5.00000000E-01	 5.00000000E-01	-5.96046000E-08
					 5.00000000E-01	 5.00000000E-01	 1.00000000E+00
					 5.00000000E-01	 1.00000000E+00	 1.00000000E+00
					 1.00000000E+00	 7.50000000E-01	-5.96046000E-08
					 1.00000000E+00	 5.00000000E-01	 5.00000000E-01
					 1.00000000E+00	 7.50000000E-01	 1.00000000E+00
					 1.00000000E+00	 1.00000000E+00	 5.00000000E-01
					 7.50000000E-01	 1.00000000E+00	-5.96046000E-08
					 7.50000000E-01	 5.00000000E-01	-5.96046000E-08
					 7.50000000E-01	 5.00000000E-01	 1.00000000E+00
					 7.50000000E-01	 1.00000000E+00	 1.00000000E+00
					 5.00000000E-01	 7.50000000E-01	-5.96046000E-08
					 5.00000000E-01	 5.00000000E-01	 5.00000000E-01
					 5.00000000E-01	 7.50000000E-01	 1.00000000E+00
					 5.00000000E-01	 1.00000000E+00	 5.00000000E-01
					 1.00000000E+00	-1.49012000E-08	-5.96046000E-08
					 1.00000000E+00	-1.49012000E-08	 1.00000000E+00
					 5.00000000E-01	-1.49012000E-08	-5.96046000E-08
					 5.00000000E-01	-1.49012000E-08	 1.00000000E+00
					 1.00000000E+00	 2.50000000E-01	-5.96046000E-08
					 1.00000000E+00	-1.49012000E-08	 5.00000000E-01
					 1.00000000E+00	 2.50000000E-01	 1.00000000E+00
					 7.50000000E-01	-1.49012000E-08	-5.96046000E-08
					 7.50000000E-01	-1.49012000E-08	 1.00000000E+00
					 5.00000000E-01	 2.50000000E-01	-5.96046000E-08
					 5.00000000E-01	-1.49012000E-08	 5.00000000E-01
					 5.00000000E-01	 2.50000000E-01	 1.00000000E+00
					-7.45058000E-09	 1.00000000E+00	-5.96046000E-08
					-7.45058000E-09	 5.00000000E-01	-5.96046000E-08
					-7.45058000E-09	 5.00000000E-01	 1.00000000E+00
					-7.45058000E-09	 1.00000000E+00	 1.00000000E+00
					 2.50000000E-01	 1.00000000E+00	-5.96046000E-08
					 2.50000000E-01	 5.00000000E-01	-5.96046000E-08
					 2.50000000E-01	 5.00000000E-01	 1.00000000E+00
					 2.50000000E-01	 1.00000000E+00	 1.00000000E+00
					-7.45058000E-09	 7.50000000E-01	-5.96046000E-08
					-7.45058000E-09	 5.00000000E-01	 5.00000000E-01
					-7.45058000E-09	 7.50000000E-01	 1.00000000E+00
					-7.45058000E-09	 1.00000000E+00	 5.00000000E-01
					-7.45058000E-09	-1.49012000E-08	-5.96046000E-08
					-7.45058000E-09	-1.49012000E-08	 1.00000000E+00
					 2.50000000E-01	-1.49012000E-08	-5.96046000E-08
					 2.50000000E-01	-1.49012000E-08	 1.00000000E+00
					-7.45058000E-09	 2.50000000E-01	-5.96046000E-08
					-7.45058000E-09	-1.49012000E-08	 5.00000000E-01
					-7.45058000E-09	 2.50000000E-01	 1.00000000E+00
					 1.00000000E+00	 5.00000000E-01	 2.00000000E+00
					 1.00000000E+00	 1.00000000E+00	 2.00000000E+00
					 5.00000000E-01	 5.00000000E-01	 2.00000000E+00
					 5.00000000E-01	 1.00000000E+00	 2.00000000E+00
					 1.00000000E+00	 5.00000000E-01	 1.50000000E+00
					 1.00000000E+00	 7.50000000E-01	 2.00000000E+00
					 1.00000000E+00	 1.00000000E+00	 1.50000000E+00
					 7.50000000E-01	 5.00000000E-01	 2.00000000E+00
					 7.50000000E-01	 1.00000000E+00	 2.00000000E+00
					 5.00000000E-01	 5.00000000E-01	 1.50000000E+00
					 5.00000000E-01	 7.50000000E-01	 2.00000000E+00
					 5.00000000E-01	 1.00000000E+00	 1.50000000E+00
					 1.00000000E+00	-1.49012000E-08	 2.00000000E+00
					 5.00000000E-01	-1.49012000E-08	 2.00000000E+00
					 1.00000000E+00	-1.49012000E-08	 1.50000000E+00
					 1.00000000E+00	 2.50000000E-01	 2.00000000E+00
					 7.50000000E-01	-1.49012000E-08	 2.00000000E+00
					 5.00000000E-01	-1.49012000E-08	 1.50000000E+00
					 5.00000000E-01	 2.50000000E-01	 2.00000000E+00
					-7.45058000E-09	 5.00000000E-01	 2.00000000E+00
					-7.45058000E-09	 1.00000000E+00	 2.00000000E+00
					 2.50000000E-01	 5.00000000E-01	 2.00000000E+00
					 2.50000000E-01	 1.00000000E+00	 2.00000000E+00
					-7.45058000E-09	 5.00000000E-01	 1.50000000E+00
					-7.45058000E-09	 7.50000000E-01	 2.00000000E+00
					-7.45058000E-09	 1.00000000E+00	 1.50000000E+00
					-7.45058000E-09	-1.49012000E-08	 2.00000000E+00
					 2.50000000E-01	-1.49012000E-08	 2.00000000E+00
					-7.45058000E-09	-1.49012000E-08	 1.50000000E+00
					-7.45058000E-09	 2.50000000E-01	 2.00000000E+00
					 1.00000000E+00	 5.00000000E-01	 3.00000000E+00
					 1.00000000E+00	 1.00000000E+00	 3.00000000E+00
					 5.00000000E-01	 5.00000000E-01	 3.00000000E+00
					 5.00000000E-01	 1.00000000E+00	 3.00000000E+00
					 1.00000000E+00	 5.00000000E-01	 2.50000000E+00
					 1.00000000E+00	 7.50000000E-01	 3.00000000E+00
					 1.00000000E+00	 1.00000000E+00	 2.50000000E+00
					 7.50000000E-01	 5.00000000E-01	 3.00000000E+00
					 7.50000000E-01	 1.00000000E+00	 3.00000000E+00
					 5.00000000E-01	 5.00000000E-01	 2.50000000E+00
					 5.00000000E-01	 7.50000000E-01	 3.00000000E+00
					 5.00000000E-01	 1.00000000E+00	 2.50000000E+00
					 1.00000000E+00	-1.49012000E-08	 3.00000000E+00
					 5.00000000E-01	-1.49012000E-08	 3.00000000E+00
					 1.00000000E+00	-1.49012000E-08	 2.50000000E+00
					 1.00000000E+00	 2.50000000E-01	 3.00000000E+00
					 7.50000000E-01	-1.49012000E-08	 3.00000000E+00
					 5.00000000E-01	-1.49012000E-08	 2.50000000E+00
					 5.00000000E-01	 2.50000000E-01	 3.00000000E+00
					-7.45058000E-09	 5.00000000E-01	 3.00000000E+00
					-7.45058000E-09	 1.00000000E+00	 3.00000000E+00
					 2.50000000E-01	 5.00000000E-01	 3.00000000E+00
					 2.50000000E-01	 1.00000000E+00	 3.00000000E+00
					-7.45058000E-09	 5.00000000E-01	 2.50000000E+00
					-7.45058000E-09	 7.50000000E-01	 3.00000000E+00
					-7.45058000E-09	 1.00000000E+00	 2.50000000E+00
					-7.45058000E-09	-1.49012000E-08	 3.00000000E+00
					 2.50000000E-01	-1.49012000E-08	 3.00000000E+00
					-7.45058000E-09	-1.49012000E-08	 2.50000000E+00
					-7.45058000E-09	 2.50000000E-01	 3.00000000E+00
					 1.00000000E+00	 5.00000000E-01	 4.00000000E+00
					 1.00000000E+00	 1.00000000E+00	 4.00000000E+00
					 5.00000000E-01	 5.00000000E-01	 4.00000000E+00
					 5.00000000E-01	 1.00000000E+00	 4.00000000E+00
					 1.00000000E+00	 5.00000000E-01	 3.50000000E+00
					 1.00000000E+00	 7.50000000E-01	 4.00000000E+00
					 1.00000000E+00	 1.00000000E+00	 3.50000000E+00
					 7.50000000E-01	 5.00000000E-01	 4.00000000E+00
					 7.50000000E-01	 1.00000000E+00	 4.00000000E+00
					 5.00000000E-01	 5.00000000E-01	 3.50000000E+00
					 5.00000000E-01	 7.50000000E-01	 4.00000000E+00
					 5.00000000E-01	 1.00000000E+00	 3.50000000E+00
					 1.00000000E+00	-1.49012000E-08	 4.00000000E+00
					 5.00000000E-01	-1.49012000E-08	 4.00000000E+00
					 1.00000000E+00	-1.49012000E-08	 3.50000000E+00
					 1.00000000E+00	 2.50000000E-01	 4.00000000E+00
					 7.50000000E-01	-1.49012000E-08	 4.00000000E+00
					 5.00000000E-01	-1.49012000E-08	 3.50000000E+00
					 5.00000000E-01	 2.50000000E-01	 4.00000000E+00
					-7.45058000E-09	 5.00000000E-01	 4.00000000E+00
					-7.45058000E-09	 1.00000000E+00	 4.00000000E+00
					 2.50000000E-01	 5.00000000E-01	 4.00000000E+00
					 2.50000000E-01	 1.00000000E+00	 4.00000000E+00
					-7.45058000E-09	 5.00000000E-01	 3.50000000E+00
					-7.45058000E-09	 7.50000000E-01	 4.00000000E+00
					-7.45058000E-09	 1.00000000E+00	 3.50000000E+00
					-7.45058000E-09	-1.49012000E-08	 4.00000000E+00
					 2.50000000E-01	-1.49012000E-08	 4.00000000E+00
					-7.45058000E-09	-1.49012000E-08	 3.50000000E+00
					-7.45058000E-09	 2.50000000E-01	 4.00000000E+00
					 1.00000000E+00	 5.00000000E-01	 5.00000000E+00
					 1.00000000E+00	 1.00000000E+00	 5.00000000E+00
					 5.00000000E-01	 5.00000000E-01	 5.00000000E+00
					 5.00000000E-01	 1.00000000E+00	 5.00000000E+00
					 1.00000000E+00	 5.00000000E-01	 4.50000000E+00
					 1.00000000E+00	 7.50000000E-01	 5.00000000E+00
					 1.00000000E+00	 1.00000000E+00	 4.50000000E+00
					 7.50000000E-01	 5.00000000E-01	 5.00000000E+00
					 7.50000000E-01	 1.00000000E+00	 5.00000000E+00
					 5.00000000E-01	 5.00000000E-01	 4.50000000E+00
					 5.00000000E-01	 7.50000000E-01	 5.00000000E+00
					 5.00000000E-01	 1.00000000E+00	 4.50000000E+00
					 1.00000000E+00	-1.49012000E-08	 5.00000000E+00
					 5.00000000E-01	-1.49012000E-08	 5.00000000E+00
					 1.00000000E+00	-1.49012000E-08	 4.50000000E+00
					 1.00000000E+00	 2.50000000E-01	 5.00000000E+00
					 7.50000000E-01	-1.49012000E-08	 5.00000000E+00
					 5.00000000E-01	-1.49012000E-08	 4.50000000E+00
					 5.00000000E-01	 2.50000000E-01	 5.00000000E+00
					-7.45058000E-09	 5.00000000E-01	 5.00000000E+00
					-7.45058000E-09	 1.00000000E+00	 5.00000000E+00
					 2.50000000E-01	 5.00000000E-01	 5.00000000E+00
					 2.50000000E-01	 1.00000000E+00	 5.00000000E+00
					-7.45058000E-09	 5.00000000E-01	 4.50000000E+00
					-7.45058000E-09	 7.50000000E-01	 5.00000000E+00
					-7.45058000E-09	 1.00000000E+00	 4.50000000E+00
					-7.45058000E-09	-1.49012000E-08	 5.00000000E+00
					 2.50000000E-01	-1.49012000E-08	 5.00000000E+00
					-7.45058000E-09	-1.49012000E-08	 4.50000000E+00
					-7.45058000E-09	 2.50000000E-01	 5.00000000E+00
					 1.00000000E+00	 5.00000000E-01	 6.00000000E+00
					 1.00000000E+00	 1.00000000E+00	 6.00000000E+00
					 5.00000000E-01	 5.00000000E-01	 6.00000000E+00
					 5.00000000E-01	 1.00000000E+00	 6.00000000E+00
					 1.00000000E+00	 5.00000000E-01	 5.50000000E+00
					 1.00000000E+00	 7.50000000E-01	 6.00000000E+00
					 1.00000000E+00	 1.00000000E+00	 5.50000000E+00
					 7.50000000E-01	 5.00000000E-01	 6.00000000E+00
					 7.50000000E-01	 1.00000000E+00	 6.00000000E+00
					 5.00000000E-01	 5.00000000E-01	 5.50000000E+00
					 5.00000000E-01	 7.50000000E-01	 6.00000000E+00
					 5.00000000E-01	 1.00000000E+00	 5.50000000E+00
					 1.00000000E+00	-1.49012000E-08	 6.00000000E+00
[...]
			<PointData>
				<DataArray type="Float32" Name="U" NumberOfComponents="3" ComponentName0="D1" ComponentName1="D2" ComponentName2="D3" format="ascii">
					 0.00000000E+00	 0.00000000E+00	 0.00000000E+00
					 0.00000000E+00	 0.00000000E+00	 0.00000000E+00
					-2.09609000E-05	-1.38661000E-03	-1.14517000E-05
					 4.77863000E-04	-1.59775000E-03	 1.89011000E-03
					 0.00000000E+00	 0.00000000E+00	 0.00000000E+00
					 0.00000000E+00	 0.00000000E+00	 0.00000000E+00
					-2.43155000E-05	-6.50356000E-04	-1.77903000E-05
					 9.20733000E-04	-8.78442000E-04	 1.86830000E-03
					 0.00000000E+00	 0.00000000E+00	 0.00000000E+00
					-6.16645000E-06	-1.26027000E-04	-3.88279000E-06
					 2.29836000E-04	-1.42946000E-03	 9.35785000E-04
					 1.57694000E-04	-2.80509000E-04	 6.97819000E-04
					 0.00000000E+00	 0.00000000E+00	 0.00000000E+00
					 0.00000000E+00	 0.00000000E+00	 0.00000000E+00
					-2.26740000E-05	-1.07867000E-03	-1.62399000E-05
					 7.00092000E-04	-1.30121000E-03	 1.94207000E-03
					 0.00000000E+00	 0.00000000E+00	 0.00000000E+00
					-9.44483000E-06	 1.99348000E-04	-8.65015000E-06
					 4.47300000E-04	-7.00857000E-04	 9.90369000E-04
					 4.56221000E-04	 3.23950000E-05	 6.43641000E-04
					 0.00000000E+00	 0.00000000E+00	 0.00000000E+00
					-5.22806000E-04	-1.58945000E-03	-1.91310000E-03
					 0.00000000E+00	 0.00000000E+00	 0.00000000E+00
					-9.69299000E-04	-8.67715000E-04	-1.90362000E-03
					 0.00000000E+00	 0.00000000E+00	 0.00000000E+00
					-1.72302000E-04	-2.81801000E-04	-7.03382000E-04
					-2.72894000E-04	-1.42423000E-03	-9.58584000E-04
					 0.00000000E+00	 0.00000000E+00	 0.00000000E+00
					-7.46824000E-04	-1.29082000E-03	-1.97485000E-03
					 0.00000000E+00	 0.00000000E+00	 0.00000000E+00
					-4.74830000E-04	 3.09961000E-05	-6.59052000E-04
					-4.95834000E-04	-6.93904000E-04	-1.02603000E-03
					 0.00000000E+00	 0.00000000E+00	 0.00000000E+00
					 0.00000000E+00	 0.00000000E+00	 0.00000000E+00
					-2.54467000E-05	 5.03373000E-04	-2.24961000E-05
					 1.35637000E-03	 2.81789000E-04	 1.87828000E-03
					 0.00000000E+00	 0.00000000E+00	 0.00000000E+00
					 0.00000000E+00	 0.00000000E+00	 0.00000000E+00
					-2.52169000E-05	-1.35587000E-04	-1.87127000E-05
					 1.13652000E-03	-3.57766000E-04	 1.76770000E-03
					 0.00000000E+00	 0.00000000E+00	 0.00000000E+00
					-1.26402000E-05	 8.04446000E-04	-1.39749000E-05
					 6.67339000E-04	 4.54115000E-04	 1.09578000E-03
					 7.18240000E-04	 6.14899000E-04	 6.86891000E-04
					 0.00000000E+00	 0.00000000E+00	 0.00000000E+00
					-1.40439000E-03	 2.92885000E-04	-1.92306000E-03
					 0.00000000E+00	 0.00000000E+00	 0.00000000E+00
					-1.18533000E-03	-3.46692000E-04	-1.80424000E-03
					 0.00000000E+00	 0.00000000E+00	 0.00000000E+00
					-7.40925000E-04	 6.11180000E-04	-7.13847000E-04
					-7.17274000E-04	 4.61039000E-04	-1.14131000E-03
					-4.35932000E-05	-9.19512000E-03	-7.16932000E-05
					 1.25448000E-03	-9.45386000E-03	 5.17246000E-03
					-4.59745000E-05	-7.64883000E-03	-6.15134000E-05
					 1.72699000E-03	-7.91563000E-03	 5.19669000E-03
					-3.44192000E-05	-4.33324000E-03	-3.16201000E-05
					 6.08184000E-04	-9.26186000E-03	 2.45857000E-03
					 8.62260000E-04	-4.57706000E-03	 3.51661000E-03
					-4.53982000E-05	-8.48273000E-03	-6.69729000E-05
					 1.49141000E-03	-8.74691000E-03	 5.24231000E-03
					-3.75951000E-05	-3.17930000E-03	-3.17953000E-05
					 8.41992000E-04	-7.71861000E-03	 2.53099000E-03
					 1.35935000E-03	-3.42765000E-03	 3.51408000E-03
					-1.34808000E-03	-9.40371000E-03	-5.32353000E-03
					-1.82258000E-03	-7.85637000E-03	-5.32690000E-03
					-9.34477000E-04	-4.55233000E-03	-3.58505000E-03
					-6.97201000E-04	-9.23834000E-03	-2.60310000E-03
					-1.58702000E-03	-8.69042000E-03	-5.38481000E-03
					-1.43541000E-03	-3.39799000E-03	-3.58231000E-03
					-9.34655000E-04	-7.68921000E-03	-2.65562000E-03
					-4.40863000E-05	-5.64514000E-03	-4.65851000E-05
					 2.21649000E-03	-5.89850000E-03	 5.19681000E-03
					-4.57505000E-05	-6.70527000E-03	-5.50505000E-05
					 1.97093000E-03	-6.97165000E-03	 5.16295000E-03
					-3.78933000E-05	-1.53795000E-03	-2.86605000E-05
					 1.08058000E-03	-5.70894000E-03	 2.57357000E-03
					 1.87535000E-03	-1.76927000E-03	 3.51903000E-03
					-2.30592000E-03	-5.83193000E-03	-5.29568000E-03
					-2.06503000E-03	-6.90942000E-03	-5.27862000E-03
					-1.94966000E-03	-1.73635000E-03	-3.57996000E-03
					-1.16841000E-03	-5.67539000E-03	-2.66841000E-03
					-4.86316000E-05	-2.35752000E-02	-2.12607000E-04
					 1.98691000E-03	-2.37666000E-02	 7.45937000E-03
					-4.73550000E-05	-2.14218000E-02	-1.75952000E-04
					 2.22941000E-03	-2.16096000E-02	 7.51376000E-03
					-4.87700000E-05	-1.58071000E-02	-1.34352000E-04
					 9.66823000E-04	-2.36405000E-02	 3.55050000E-03
					 1.65948000E-03	-1.60348000E-02	 6.49909000E-03
					-4.82166000E-05	-2.25294000E-02	-1.94580000E-04
					 2.10822000E-03	-2.27166000E-02	 7.52156000E-03
					-4.99314000E-05	-1.39168000E-02	-1.10963000E-04
					 1.09159000E-03	-2.14867000E-02	 3.62849000E-03
					 2.01597000E-03	-1.41463000E-02	 6.54773000E-03
					-2.08957000E-03	-2.36500000E-02	-7.88872000E-03
					-2.32910000E-03	-2.14833000E-02	-7.87069000E-03
					-1.76483000E-03	-1.59529000E-02	-6.77461000E-03
					-1.06539000E-03	-2.35852000E-02	-3.97727000E-03
					-2.21010000E-03	-2.25939000E-02	-7.91459000E-03
					-2.12169000E-03	-1.40525000E-02	-6.77586000E-03
					-1.18761000E-03	-2.14246000E-02	-3.98187000E-03
					-4.29250000E-05	-1.90157000E-02	-1.34079000E-04
					 2.48324000E-03	-1.92075000E-02	 7.53515000E-03
					-4.55515000E-05	-2.02484000E-02	-1.55918000E-04
					 2.35569000E-03	-2.04371000E-02	 7.51102000E-03
					-4.70368000E-05	-1.16688000E-02	-8.24289000E-05
					 1.22213000E-03	-1.90823000E-02	 3.67465000E-03
					 2.38676000E-03	-1.18963000E-02	 6.54944000E-03
					-2.57304000E-03	-1.90734000E-02	-7.80953000E-03
					-2.45126000E-03	-2.03070000E-02	-7.82904000E-03
					-2.48517000E-03	-1.17927000E-02	-6.71971000E-03
					-1.30898000E-03	-1.90154000E-02	-3.94428000E-03
					-4.36512000E-05	-4.07145000E-02	-3.78659000E-04
					 2.25289000E-03	-4.08907000E-02	 8.54849000E-03
					-3.94800000E-05	-3.83426000E-02	-3.31369000E-04
					 2.42331000E-03	-3.85106000E-02	 8.59532000E-03
					-4.50975000E-05	-3.19442000E-02	-2.94130000E-04
					 1.10219000E-03	-4.07839000E-02	 4.08600000E-03
					 2.17557000E-03	-3.21282000E-02	 8.06746000E-03
					-4.22674000E-05	-3.95493000E-02	-3.56245000E-04
					 2.33750000E-03	-3.97193000E-02	 8.57465000E-03
					-4.22776000E-05	-2.96397000E-02	-2.49899000E-04
					 1.19181000E-03	-3.84075000E-02	 4.13738000E-03
					 2.35818000E-03	-2.98151000E-02	 8.11840000E-03
					-2.33395000E-03	-4.07193000E-02	-9.30889000E-03
					-2.49778000E-03	-3.83447000E-02	-9.26189000E-03
					-2.26570000E-03	-3.19825000E-02	-8.65879000E-03
					-1.18768000E-03	-4.06972000E-02	-4.84487000E-03
					-2.41566000E-03	-3.95516000E-02	-9.28961000E-03
					-2.44280000E-03	-2.96676000E-02	-8.62328000E-03
					-1.26885000E-03	-3.83252000E-02	-4.80135000E-03
					-3.14987000E-05	-3.57935000E-02	-2.78024000E-04
					 2.59998000E-03	-3.59637000E-02	 8.64863000E-03
					-3.57703000E-05	-3.70883000E-02	-3.04795000E-04
					 2.51188000E-03	-3.72566000E-02	 8.61467000E-03
					-3.63640000E-05	-2.71423000E-02	-2.00788000E-04
					 1.28519000E-03	-3.58587000E-02	 4.19719000E-03
					 2.55133000E-03	-2.73204000E-02	 8.15817000E-03
					-2.66219000E-03	-3.57972000E-02	-9.20947000E-03
					-2.58093000E-03	-3.70908000E-02	-9.22875000E-03
					-2.62470000E-03	-2.71706000E-02	-8.56716000E-03
					-1.34774000E-03	-3.57765000E-02	-4.75498000E-03
					-3.33570000E-05	-5.98044000E-02	-5.70600000E-04
					 2.33397000E-03	-6.00152000E-02	 9.60699000E-03
					-2.31471000E-05	-5.73357000E-02	-5.13693000E-04
					 2.54929000E-03	-5.75448000E-02	 9.66387000E-03
					-4.01918000E-05	-4.99419000E-02	-4.70006000E-04
					 1.15056000E-03	-5.98828000E-02	 4.51699000E-03
					 2.28612000E-03	-5.01338000E-02	 9.05656000E-03
					-3.01023000E-05	-5.85965000E-02	-5.42374000E-04
					 2.44095000E-03	-5.88069000E-02	 9.64161000E-03
					-3.29841000E-05	-4.75266000E-02	-4.18786000E-04
					 1.26260000E-03	-5.74117000E-02	 4.58125000E-03
					 2.48054000E-03	-4.77142000E-02	 9.10414000E-03
					-2.38876000E-03	-5.97911000E-02	-1.07551000E-02
					-2.59062000E-03	-5.73314000E-02	-1.06980000E-02
					-2.35567000E-03	-4.99361000E-02	-1.00010000E-02
					-1.21402000E-03	-5.97697000E-02	-5.65971000E-03
					-2.49055000E-03	-5.85905000E-02	-1.07335000E-02
					-2.54098000E-03	-4.75262000E-02	-9.94606000E-03
					-1.30667000E-03	-5.73065000E-02	-5.61018000E-03
					-8.95483000E-06	-5.46652000E-02	-4.50759000E-04
					 2.76584000E-03	-5.48751000E-02	 9.72781000E-03
					-1.53237000E-05	-5.60269000E-02	-4.83602000E-04
					 2.65739000E-03	-5.62363000E-02	 9.68448000E-03
					-2.18618000E-05	-4.49214000E-02	-3.59800000E-04
					 1.37795000E-03	-5.47424000E-02	 4.65433000E-03
					 2.67621000E-03	-4.51116000E-02	 9.16709000E-03
					-2.78774000E-03	-5.46560000E-02	-1.06357000E-02
					-2.68871000E-03	-5.60218000E-02	-1.06580000E-02
					-2.72175000E-03	-4.49199000E-02	-9.89106000E-03
					-1.39653000E-03	-5.46335000E-02	-5.55735000E-03
					-1.49073000E-05	-8.18585000E-02	-8.27854000E-04
					 2.54118000E-03	-8.20690000E-02	 1.06675000E-02
					-8.12267000E-06	-7.92252000E-02	-7.57263000E-04
					 2.70447000E-03	-7.94386000E-02	 1.07523000E-02
					-2.44286000E-05	-7.04332000E-02	-6.87621000E-04
					 1.26450000E-03	-8.19412000E-02	 4.86847000E-03
					 2.41131000E-03	-7.06431000E-02	 1.01853000E-02
					-1.23726000E-05	-8.05612000E-02	-7.92189000E-04
					 2.62206000E-03	-8.07746000E-02	 1.07319000E-02
					-1.45949000E-05	-6.78976000E-02	-6.24432000E-04
					 1.34889000E-03	-7.93091000E-02	 4.96624000E-03
					 2.61948000E-03	-6.81099000E-02	 1.02554000E-02
					-2.56895000E-03	-8.17990000E-02	-1.23189000E-02
					-2.71938000E-03	-7.91682000E-02	-1.22622000E-02
					-2.45207000E-03	-7.03975000E-02	-1.15659000E-02
					-1.29287000E-03	-8.18103000E-02	-6.52130000E-03
					-2.64507000E-03	-8.05034000E-02	-1.23133000E-02
					-2.64504000E-03	-6.78704000E-02	-1.15091000E-02
					-1.36414000E-03	-7.91774000E-02	-6.47885000E-03
					 1.46916000E-06	-7.64409000E-02	-6.91668000E-04
					 2.87025000E-03	-7.66524000E-02	 1.08057000E-02
					-3.23021000E-06	-7.78535000E-02	-7.24021000E-04
					 2.78754000E-03	-7.80665000E-02	 1.07739000E-02
					-1.01814000E-06	-6.51701000E-02	-5.60417000E-04
					 1.43535000E-03	-7.65244000E-02	 5.03324000E-03
					 2.82854000E-03	-6.53817000E-02	 1.03155000E-02
					-2.86763000E-03	-7.63803000E-02	-1.21836000E-02
					-2.79325000E-03	-7.77952000E-02	-1.22169000E-02
					-2.83257000E-03	-6.51386000E-02	-1.14404000E-02
					-1.43256000E-03	-7.63918000E-02	-6.41408000E-03
					 7.54065000E-06	-1.06194000E-01	-1.12950000E-03
					 2.89271000E-03	-1.06366000E-01	 1.08883000E-02
					 7.32763000E-06	-1.03319000E-01	-1.05448000E-03
					 2.89609000E-03	-1.03483000E-01	 1.09629000E-02
					-3.81146000E-06	-9.39205000E-02	-9.82677000E-04
					 1.44986000E-03	-1.06282000E-01	 4.84316000E-03
					 2.72870000E-03	-9.41124000E-02	 1.08926000E-02
					 9.08094000E-06	-1.04754000E-01	-1.09118000E-03
					 2.89739000E-03	-1.04922000E-01	 1.09445000E-02
					-1.85227000E-06	-9.11558000E-02	-9.05082000E-04
					 1.45400000E-03	-1.03404000E-01	 4.93093000E-03
					 2.80851000E-03	-9.13483000E-02	 1.09859000E-02
					-2.87350000E-03	-1.06037000E-01	-1.31482000E-02
					-2.87732000E-03	-1.03159000E-01	-1.30747000E-02
					-2.73971000E-03	-9.38127000E-02	-1.28468000E-02
					-1.43368000E-03	-1.06114000E-01	-7.10570000E-03
					-2.87380000E-03	-1.04596000E-01	-1.31262000E-02
					-2.81189000E-03	-9.10438000E-02	-1.27851000E-02
					-1.43781000E-03	-1.03238000E-01	-7.04229000E-03
					 6.15111000E-06	-1.00431000E-01	-9.78147000E-04
					 2.89989000E-03	-1.00594000E-01	 1.10182000E-02
					 5.29890000E-06	-1.01877000E-01	-1.01669000E-03
					 2.89686000E-03	-1.02039000E-01	 1.09856000E-02
					 1.15748000E-06	-8.83122000E-02	-8.34950000E-04
					 1.45493000E-03	-1.00516000E-01	 4.99853000E-03
					 2.89067000E-03	-8.85031000E-02	 1.10366000E-02
					-2.88462000E-03	-1.00276000E-01	-1.29800000E-02
					-2.88365000E-03	-1.01719000E-01	-1.30233000E-02
					-2.88593000E-03	-8.82005000E-02	-1.26958000E-02
					-1.44139000E-03	-1.00352000E-01	-6.95847000E-03
					-2.99946000E-05	-1.30291000E-01	-1.38651000E-03
					 2.90455000E-03	-1.30436000E-01	 1.05590000E-02
					 1.82789000E-06	-1.27343000E-01	-1.34673000E-03
					 2.91763000E-03	-1.27456000E-01	 1.05604000E-02
					 3.70460000E-06	-1.18309000E-01	-1.25648000E-03
					 1.42331000E-03	-1.30366000E-01	 4.60668000E-03
					 2.95136000E-03	-1.18489000E-01	 1.07318000E-02
					-1.67188000E-05	-1.28824000E-01	-1.37187000E-03
					 2.91146000E-03	-1.28942000E-01	 1.05532000E-02
					 1.03871000E-05	-1.15387000E-01	-1.20052000E-03
					 1.45091000E-03	-1.27398000E-01	 4.62068000E-03
					 2.93537000E-03	-1.15539000E-01	 1.07621000E-02
					-2.92054000E-03	-1.30147000E-01	-1.33837000E-02
					-2.89698000E-03	-1.27214000E-01	-1.33027000E-02
					-2.91592000E-03	-1.18153000E-01	-1.32771000E-02
					-1.47148000E-03	-1.30221000E-01	-7.39595000E-03
					-2.91028000E-03	-1.28685000E-01	-1.33451000E-02
					-2.90244000E-03	-1.15235000E-01	-1.31979000E-02
					-1.44129000E-03	-1.27284000E-01	-7.32789000E-03
					 3.57960000E-05	-1.24409000E-01	-1.26710000E-03
					 2.92136000E-03	-1.24520000E-01	 1.06063000E-02
					 2.08456000E-05	-1.25866000E-01	-1.31063000E-03
					 2.92005000E-03	-1.25976000E-01	 1.05753000E-02
					 1.78734000E-05	-1.12476000E-01	-1.12009000E-03
					 1.47756000E-03	-1.24463000E-01	 4.68086000E-03
					 2.91500000E-03	-1.12626000E-01	 1.08145000E-02
					-2.86321000E-03	-1.24273000E-01	-1.31890000E-02
					-2.87871000E-03	-1.25738000E-01	-1.32451000E-02
					-2.88571000E-03	-1.12322000E-01	-1.30927000E-02
					-1.40917000E-03	-1.24346000E-01	-7.22906000E-03
					 0.00000000E+00	 0.00000000E+00	 0.00000000E+00
					 0.00000000E+00	 0.00000000E+00	 0.00000000E+00
					 5.81660000E-05	-8.62803000E-03	 2.06658000E-05
					-1.83917000E-03	-9.05097000E-03	 7.66277000E-03
					 0.00000000E+00	 0.00000000E+00	 0.00000000E+00
					 0.00000000E+00	 0.00000000E+00	 0.00000000E+00
					 7.88943000E-05	-1.01234000E-02	 4.59997000E-05
					-1.01685000E-03	-1.05815000E-02	 7.81115000E-03
					 0.00000000E+00	 0.00000000E+00	 0.00000000E+00
					 1.99535000E-05	-2.05076000E-03	 1.34982000E-05
					-8.92341000E-04	-8.68262000E-03	 3.74676000E-03
					-1.66132000E-03	-2.73884000E-03	 4.15860000E-03
					 0.00000000E+00	 0.00000000E+00	 0.00000000E+00
					 0.00000000E+00	 0.00000000E+00	 0.00000000E+00
					 6.84597000E-05	-9.52526000E-03	 3.15693000E-05
					-1.42058000E-03	-9.96286000E-03	 7.65952000E-03
					 0.00000000E+00	 0.00000000E+00	 0.00000000E+00
					 2.88633000E-05	-3.08629000E-03	 2.72172000E-05
					-4.68549000E-04	-1.01875000E-02	 3.74634000E-03
					-5.08422000E-04	-3.77568000E-03	 4.08970000E-03
					 0.00000000E+00	 0.00000000E+00	 0.00000000E+00
					 1.94609000E-03	-8.87937000E-03	-7.63735000E-03
					 0.00000000E+00	 0.00000000E+00	 0.00000000E+00
					 1.17364000E-03	-1.03982000E-02	-7.73875000E-03
					 0.00000000E+00	 0.00000000E+00	 0.00000000E+00
					 1.69006000E-03	-2.66265000E-03	-4.13634000E-03
					 1.00670000E-03	-8.59770000E-03	-3.71165000E-03
					 0.00000000E+00	 0.00000000E+00	 0.00000000E+00
					 1.55301000E-03	-9.78454000E-03	-7.61302000E-03
					 0.00000000E+00	 0.00000000E+00	 0.00000000E+00
					 5.61493000E-04	-3.68898000E-03	-4.03616000E-03
					 6.25625000E-04	-1.00987000E-02	-3.66188000E-03
					 0.00000000E+00	 0.00000000E+00	 0.00000000E+00
					 0.00000000E+00	 0.00000000E+00	 0.00000000E+00
					 1.00847000E-04	-1.08188000E-02	 9.01139000E-05
					-1.84878000E-04	-1.12391000E-02	 7.73316000E-03
					 0.00000000E+00	 0.00000000E+00	 0.00000000E+00
					 0.00000000E+00	 0.00000000E+00	 0.00000000E+00
					 8.90025000E-05	-1.06192000E-02	 6.30432000E-05
					-6.08382000E-04	-1.10564000E-02	 7.89090000E-03
					 0.00000000E+00	 0.00000000E+00	 0.00000000E+00
					 4.45314000E-05	-3.11989000E-03	 6.03796000E-05
					-4.11090000E-05	-1.08686000E-02	 3.61609000E-03
					 6.90514000E-04	-3.78042000E-03	 4.20713000E-03
					 0.00000000E+00	 0.00000000E+00	 0.00000000E+00
					 3.88120000E-04	-1.10559000E-02	-7.57013000E-03
					 0.00000000E+00	 0.00000000E+00	 0.00000000E+00
					 7.85369000E-04	-1.08742000E-02	-7.78506000E-03
					 0.00000000E+00	 0.00000000E+00	 0.00000000E+00
					-6.04267000E-04	-3.67821000E-03	-4.08794000E-03
					 2.44809000E-04	-1.07842000E-02	-3.44089000E-03
					 1.84205000E-04	-2.89163000E-02	-3.26476000E-05
					-2.40188000E-03	-2.92900000E-02	 1.16556000E-02
					 2.19536000E-04	-3.12958000E-02	-1.29485000E-05
					-1.94418000E-03	-3.16668000E-02	 1.17039000E-02
					 1.16241000E-04	-1.78546000E-02	 6.58865000E-06
					-1.11213000E-03	-2.90672000E-02	 5.81679000E-03
					-2.13320000E-03	-1.83274000E-02	 1.00252000E-02
					 2.01311000E-04	-3.01454000E-02	-2.51842000E-05
					-2.17465000E-03	-3.05130000E-02	 1.16242000E-02
					 1.42127000E-04	-1.98140000E-02	 2.96514000E-05
					-8.57067000E-04	-3.14461000E-02	 5.79964000E-03
					-1.50784000E-03	-2.02799000E-02	 1.00984000E-02
					 2.77218000E-03	-2.89445000E-02	-1.17329000E-02
					 2.37787000E-03	-3.13278000E-02	-1.17396000E-02
					 2.36069000E-03	-1.80644000E-02	-1.00314000E-02
					 1.48021000E-03	-2.88944000E-02	-5.88561000E-03
					 2.57764000E-03	-3.01779000E-02	-1.16833000E-02
					 1.79217000E-03	-2.00154000E-02	-1.00584000E-02
					 1.29916000E-03	-3.12796000E-02	-5.82545000E-03
					 2.50160000E-04	-3.32420000E-02	 2.07612000E-05
					-1.47221000E-03	-3.36020000E-02	 1.17092000E-02
					 2.35008000E-04	-3.23068000E-02	 3.43246000E-06
					-1.70591000E-03	-3.27023000E-02	 1.17845000E-02
					 1.69042000E-04	-2.11596000E-02	 7.05913000E-05
					-6.13524000E-04	-3.33802000E-02	 5.74131000E-03
					-8.85400000E-04	-2.16343000E-02	 1.00903000E-02
					 1.99560000E-03	-3.32801000E-02	-1.16780000E-02
					 2.18555000E-03	-3.23402000E-02	-1.17896000E-02
					 1.23884000E-03	-2.13813000E-02	-9.96668000E-03
					 1.11995000E-03	-3.32256000E-02	-5.69903000E-03
					 3.80177000E-04	-5.45663000E-02	-1.93637000E-04
					-2.95609000E-03	-5.48602000E-02	 1.36791000E-02
					 4.21191000E-04	-5.77377000E-02	-1.50265000E-04
					-2.64717000E-03	-5.81525000E-02	 1.37460000E-02
					 2.71130000E-04	-4.11770000E-02	-9.61446000E-05
					-1.27965000E-03	-5.46773000E-02	 6.73921000E-03
					-2.70575000E-03	-4.15366000E-02	 1.28348000E-02
					 4.01514000E-04	-5.61882000E-02	-1.69133000E-04
					-2.80528000E-03	-5.65575000E-02	 1.36587000E-02
					 3.08149000E-04	-4.39785000E-02	-7.24673000E-05
					-1.13630000E-03	-5.79128000E-02	 6.72998000E-03
					-2.32688000E-03	-4.43525000E-02	 1.28828000E-02
					 3.67275000E-03	-5.44496000E-02	-1.40578000E-02
					 3.48139000E-03	-5.76374000E-02	-1.40733000E-02
					 3.23687000E-03	-4.11376000E-02	-1.30346000E-02
					 2.02600000E-03	-5.44746000E-02	-7.11694000E-03
					 3.57524000E-03	-5.60757000E-02	-1.40173000E-02
					 2.94057000E-03	-4.39321000E-02	-1.30346000E-02
					 1.95341000E-03	-5.76588000E-02	-7.05228000E-03
					 4.58630000E-04	-6.06860000E-02	-1.03321000E-04
					-2.44051000E-03	-6.12216000E-02	 1.37658000E-02
					 4.40220000E-04	-5.92586000E-02	-1.29751000E-04
					-2.54628000E-03	-5.96067000E-02	 1.38407000E-02
					 3.52872000E-04	-4.64426000E-02	-3.90139000E-05
					-9.60603000E-04	-6.09261000E-02	 6.67426000E-03
					-1.98059000E-03	-4.68506000E-02	 1.28971000E-02
					 3.30833000E-03	-6.06065000E-02	-1.40267000E-02
					 3.39456000E-03	-5.91492000E-02	-1.41295000E-02
					 2.64271000E-03	-4.63938000E-02	-1.29833000E-02
					 1.87770000E-03	-6.06277000E-02	-6.92665000E-03
					 7.42585000E-04	-8.36093000E-02	-4.82932000E-04
					-2.92858000E-03	-8.36901000E-02	 1.38607000E-02