<?xml version="1.0"?>
<VTKFile type="UnstructuredGrid" version="0.1" byte_order="LittleEndian">
	<UnstructuredGrid>
		<Piece NumberOfPoints="522" NumberOfCells="64">
			<Points>
				<DataArray type="Float64" NumberOfComponents="3" format="ascii">
					 1.00000000E+00	 1.00000000E+00	-5.96046000E-08
					 1.00000000E+00	 5.00000000E-01	-5.96046000E-08
					 1.00000000E+00	 5.00000000E-01	 1.00000000E+00
					 1.00000000E+00	 1.00000000E+00	 1.00000000E+00
					 5.00000000E-01	 1.00000000E+00	-5.96046000E-08
					 5.00000000E-01	 5.00000000E-01	-5.96046000E-08
					 5.00000000E-01	 5.00000000E-01	 1.00000000E+00
					 5.00000000E-01	 1.00000000E+00	 1.00000000E+00
					 1.00000000E+00	 7.50000000E-01	-5.96046000E-08
					 1.00000000E+00	 5.00000000E-01	 5.00000000E-01
					 1.00000000E+00	 7.50000000E-01	 1.00000000E+00
					 1.00000000E+00	 1.00000000E+00	 5.00000000E-01
					 7.50000000E-01	 1.00000000E+00	-5.96046000E-08
					 7.50000000E-01	 5.00000000E-01	-5.96046000E-08
					 7.50000000E-01	 5.00000000E-01	 1.00000000E+00
					 7.50000000E-01	 1.00000000E+00	 1.00000000E+00
					 5.00000000E-01	 7.50000000E-01	-5.96046000E-08
					 5.00000000E-01	 5.00000000E-01	 5.00000000E-01
					 5.00000000E-01	 7.50000000E-01	 1.00000000E+00
					 5.00000000E-01	 1.00000000E+00	 5.00000000E-01
					 1.00000000E+00	-1.49012000E-08	-5.96046000E-08
					 1.00000000E+00	-1.49012000E-08	 1.00000000E+00
					 5.00000000E-01	-1.49012000E-08	-5.96046000E-08
					 5.00000000E-01	-1.49012000E-08	 1.00000000E+00
					 1.00000000E+00	 2.50000000E-01	-5.96046000E-08
					 1.00000000E+00	-1.49012000E-08	 5.00000000E-01
					 1.00000000E+00	 2.50000000E-01	 1.00000000E+00
					 7.50000000E-01	-1.49012000E-08	-5.96046000E-08
					 7.50000000E-01	-1.49012000E-08	 1.00000000E+00
					 5.00000000E-01	 2.50000000E-01	-5.96046000E-08
					 5.00000000E-01	-1.49012000E-08	 5.00000000E-01
					 5.00000000E-01	 2.50000000E-01	 1.00000000E+00
					-7.45058000E-09	 1.00000000E+00	-5.96046000E-08
					-7.45058000E-09	 5.00000000E-01	-5.96046000E-08
					-7.45058000E-09	 5.00000000E-01	 1.00000000E+00
					-7.45058000E-09	 1.00000000E+00	 1.00000000E+00
					 2.50000000E-01	 1.00000000E+00	-5.96046000E-08
					 2.50000000E-01	 5.00000000E-01	-5.96046000E-08
					 2.50000000E-01	 5.00000000E-01	 1.00000000E+00
					 2.50000000E-01	 1.00000000E+00	 1.00000000E+00
					-7.45058000E-09	 7.50000000E-01	-5.96046000E-08
					-7.45058000E-09	 5.00000000E-01	 5.00000000E-01
					-7.45058000E-09	 7.50000000E-01	 1.00000000E+00
					-7.45058000E-09	 1.00000000E+00	 5.00000000E-01
					-7.45058000E-09	-1.49012000E-08	-5.96046000E-08
					-7.45058000E-09	-1.49012000E-08	 1.00000000E+00
					 2.50000000E-01	-1.49012000E-08	-5.96046000E-08
					 2.50000000E-01	-1.49012000E-08	 1.00000000E+00
					-7.45058000E-09	 2.50000000E-01	-5.96046000E-08
					-7.45058000E-09	-1.49012000E-08	 5.00000000E-01
					-7.45058000E-09	 2.50000000E-01	 1.00000000E+00
					 1.00000000E+00	 5.00000000E-01	 2.00000000E+00
					 1.00000000E+00	 1.00000000E+00	 2.00000000E+00
					 5.00000000E-01	 5.00000000E-01	 2.00000000E+00
					 5.00000000E-01	 1.00000000E+00	 2.00000000E+00
					 1.00000000E+00	 5.00000000E-01	 1.50000000E+00
					 1.00000000E+00	 7.50000000E-01	 2.00000000E+00
					 1.00000000E+00	 1.00000000E+00	 1.50000000E+00
					 7.50000000E-01	 5.00000000E-01	 2.00000000E+00
					 7.50000000E-01	 1.00000000E+00	 2.00000000E+00
					 5.00000000E-01	 5.00000000E-01	 1.50000000E+00
					 5.00000000E-01	 7.50000000E-01	 2.00000000E+00
					 5.00000000E-01	 1.00000000E+00	 1.50000000E+00
					 1.00000000E+00	-1.49012000E-08	 2.00000000E+00
					 5.00000000E-01	-1.49012000E-08	 2.00000000E+00
					 1.00000000E+00	-1.49012000E-08	 1.50000000E+00
					 1.00000000E+00	 2.50000000E-01	 2.00000000E+00
					 7.50000000E-01	-1.49012000E-08	 2.00000000E+00
					 5.00000000E-01	-1.49012000E-08	 1.50000000E+00
					 5.00000000E-01	 2.50000000E-01	 2.00000000E+00
					-7.45058000E-09	 5.00000000E-01	 2.00000000E+00
					-7.45058000E-09	 1.00000000E+00	 2.00000000E+00
					 2.50000000E-01	 5.00000000E-01	 2.00000000E+00
					 2.50000000E-01	 1.00000000E+00	 2.00000000E+00
					-7.45058000E-09	 5.00000000E-01	 1.50000000E+00
					-7.45058000E-09	 7.50000000E-01	 2.00000000E+00
					-7.45058000E-09	 1.00000000E+00	 1.50000000E+00
					-7.45058000E-09	-1.49012000E-08	 2.00000000E+00
					 2.50000000E-01	-1.49012000E-08	 2.00000000E+00
					-7.45058000E-09	-1.49012000E-08	 1.50000000E+00
					-7.45058000E-09	 2.50000000E-01	 2.00000000E+00
					 1.00000000E+00	 5.00000000E-01	 3.00000000E+00
					 1.00000000E+00	 1.00000000E+00	 3.00000000E+00
					 5.00000000E-01	 5.00000000E-01	 3.00000000E+00
					 5.00000000E-01	 1.00000000E+00	 3.00000000E+00
					 1.00000000E+00	 5.00000000E-01	 2.50000000E+00
					 1.00000000E+00	 7.50000000E-01	 3.00000000E+00
					 1.00000000E+00	 1.00000000E+00	 2.50000000E+00
					 7.50000000E-01	 5.00000000E-01	 3.00000000E+00
					 7.50000000E-01	 1.00000000E+00	 3.00000000E+00
					 5.00000000E-01	 5.00000000E-01	 2.50000000E+00
					 5.00000000E-01	 7.50000000E-01	 3.00000000E+00
					 5.00000000E-01	 1.00000000E+00	 2.50000000E+00
					 1.00000000E+00	-1.49012000E-08	 3.00000000E+00
					 5.00000000E-01	-1.49012000E-08	 3.00000000E+00
					 1.00000000E+00	-1.49012000E-08	 2.50000000E+00
					 1.00000000E+00	 2.50000000E-01	 3.00000000E+00
					 7.50000000E-01	-1.49012000E-08	 3.00000000E+00
					 5.00000000E-01	-1.49012000E-08	 2.50000000E+00
					 5.00000000E-01	 2.50000000E-01	 3.00000000E+00
					-7.45058000E-09	 5.00000000E-01	 3.00000000E+00
					-7.45058000E-09	 1.00000000E+00	 3.00000000E+00
					 2.50000000E-01	 5.00000000E-01	 3.00000000E+00
					 2.50000000E-01	 1.00000000E+00	 3.00000000E+00
					-7.45058000E-09	 5.00000000E-01	 2.50000000E+00
					-7.45058000E-09	 7.50000000E-01	 3.00000000E+00
					-7.45058000E-09	 1.00000000E+00	 2.50000000E+00
					-7.45058000E-09	-1.49012000E-08	 3.00000000E+00
					 2.50000000E-01	-1.49012000E-08	 3.00000000E+00
					-7.45058000E-09	-1.49012000E-08	 2.50000000E+00
					-7.45058000E-09	 2.50000000E-01	 3.00000000E+00
					 1.00000000E+00	 5.00000000E-01	 4.00000000E+00
					 1.00000000E+00	 1.00000000E+00	 4.00000000E+00
					 5.00000000E-01	 5.00000000E-01	 4.00000000E+00
					 5.00000000E-01	 1.00000000E+00	 4.00000000E+00
					 1.00000000E+00	 5.00000000E-01	 3.50000000E+00
					 1.00000000E+00	 7.50000000E-01	 4.00000000E+00
					 1.00000000E+00	 1.00000000E+00	 3.50000000E+00
					 7.50000000E-01	 5.00000000E-01	 4.00000000E+00
					 7.50000000E-01	 1.00000000E+00	 4.00000000E+00
					 5.00000000E-01	 5.00000000E-01	 3.50000000E+00
					 5.00000000E-01	 7.50000000E-01	 4.00000000E+00
					 5.00000000E-01	 1.00000000E+00	 3.50000000E+00
					 1.00000000E+00	-1.49012000E-08	 4.00000000E+00
					 5.00000000E-01	-1.49012000E-08	 4.00000000E+00
					 1.00000000E+00	-1.49012000E-08	 3.50000000E+00
					 1.00000000E+00	 2.50000000E-01	 4.00000000E+00
					 7.50000000E-01	-1.49012000E-08	 4.00000000E+00
					 5.00000000E-01	-1.49012000E-08	 3.50000000E+00
					 5.00000000E-01	 2.50000000E-01	 4.00000000E+00
					-7.45058000E-09	 5.00000000E-01	 4.00000000E+00
					-7.45058000E-09	 1.00000000E+00	 4.00000000E+00
					 2.50000000E-01	 5.00000000E-01	 4.00000000E+00
					 2.50000000E-01	 1.00000000E+00	 4.00000000E+00
					-7.45058000E-09	 5.00000000E-01	 3.50000000E+00
					-7.45058000E-09	 7.50000000E-01	 4.00000000E+00
					-7.45058000E-09	 1.00000000E+00	 3.50000000E+00
					-7.45058000E-09	-1.49012000E-08	 4.00000000E+00
					 2.50000000E-01	-1.49012000E-08	 4.00000000E+00
					-7.45058000E-09	-1.49012000E-08	 3.50000000E+00
					-7.45058000E-09	 2.50000000E-01	 4.00000000E+00
					 1.00000000E+00	 5.00000000E-01	 5.00000000E+00
					 1.00000000E+00	 1.00000000E+00	 5.00000000E+00
					 5.00000000E-01	 5.00000000E-01	 5.00000000E+00
					 5.00000000E-01	 1.00000000E+00	 5.00000000E+00
					 1.00000000E+00	 5.00000000E-01	 4.50000000E+00
					 1.00000000E+00	 7.50000000E-01	 5.00000000E+00
					 1.00000000E+00	 1.00000000E+00	 4.50000000E+00
					 7.50000000E-01	 5.00000000E-01	 5.00000000E+00
					 7.50000000E-01	 1.00000000E+00	 5.00000000E+00
					 5.00000000E-01	 5.00000000E-01	 4.50000000E+00
					 5.00000000E-01	 7.50000000E-01	 5.00000000E+00
					 5.00000000E-01	 1.00000000E+00	 4.50000000E+00
					 1.00000000E+00	-1.49012000E-08	 5.00000000E+00
					 5.00000000E-01	-1.49012000E-08	 5.00000000E+00
					 1.00000000E+00	-1.49012000E-08	 4.50000000E+00
					 1.00000000E+00	 2.50000000E-01	 5.00000000E+00
					 7.50000000E-01	-1.49012000E-08	 5.00000000E+00
					 5.00000000E-01	-1.49012000E-08	 4.50000000E+00
					 5.00000000E-01	 2.50000000E-01	 5.00000000E+00
					-7.45058000E-09	 5.00000000E-01	 5.00000000E+00
					-7.45058000E-09	 1.00000000E+00	 5.00000000E+00
					 2.50000000E-01	 5.00000000E-01	 5.00000000E+00
					 2.50000000E-01	 1.00000000E+00	 5.00000000E+00
					-7.45058000E-09	 5.00000000E-01	 4.50000000E+00
					-7.45058000E-09	 7.50000000E-01	 5.00000000E+00
					-7.45058000E-09	 1.00000000E+00	 4.50000000E+00
					-7.45058000E-09	-1.49012000E-08	 5.00000000E+00
					 2.50000000E-01	-1.49012000E-08	 5.00000000E+00
					-7.45058000E-09	-1.49012000E-08	 4.50000000E+00
					-7.45058000E-09	 2.50000000E-01	 5.00000000E+00
					 1.00000000E+00	 5.00000000E-01	 6.00000000E+00
					 1.00000000E+00	 1.00000000E+00	 6.00000000E+00
					 5.00000000E-01	 5.00000000E-01	 6.00000000E+00
					 5.00000000E-01	 1.00000000E+00	 6.00000000E+00
					 1.00000000E+00	 5.00000000E-01	 5.50000000E+00
					 1.00000000E+00	 7.50000000E-01	 6.00000000E+00
					 1.00000000E+00	 1.00000000E+00	 5.50000000E+00
					 7.50000000E-01	 5.00000000E-01	 6.00000000E+00
					 7.50000000E-01	 1.00000000E+00	 6.00000000E+00
					 5.00000000E-01	 5.00000000E-01	 5.50000000E+00
					 5.00000000E-01	 7.50000000E-01	 6.00000000E+00
					 5.00000000E-01	 1.00000000E+00	 5.50000000E+00
					 1.00000000E+00	-1.49012000E-08	 6.00000000E+00
[...]
			<PointData>
				<DataArray type="Float32" Name="U" NumberOfComponents="3" ComponentName0="D1" ComponentName1="D2" ComponentName2="D3" format="ascii">
					 0.00000000E+00	 0.00000000E+00	 0.00000000E+00
					 0.00000000E+00	 0.00000000E+00	 0.00000000E+00
					 1.37337000E-05	 7.79165000E-04	-1.94021000E-05
					-4.54716000E-04	 8.61495000E-04	-7.96948000E-04
					 0.00000000E+00	 0.00000000E+00	 0.00000000E+00
					 0.00000000E+00	 0.00000000E+00	 0.00000000E+00
					 9.96098000E-06	 2.07930000E-04	-2.21369000E-05
					-6.42362000E-04	 3.02757000E-04	-7.98098000E-04
					 0.00000000E+00	 0.00000000E+00	 0.00000000E+00
					 1.20593000E-05	 1.06089000E-04	-1.04373000E-05
					-2.22529000E-04	 7.93391000E-04	-3.69354000E-04
					-1.70931000E-04	 1.63349000E-04	-2.86749000E-04
					 0.00000000E+00	 0.00000000E+00	 0.00000000E+00
					 0.00000000E+00	 0.00000000E+00	 0.00000000E+00
					 1.22166000E-05	 5.17863000E-04	-2.01774000E-05
					-5.48555000E-04	 6.09033000E-04	-8.52786000E-04
					 0.00000000E+00	 0.00000000E+00	 0.00000000E+00
					 8.74799000E-06	-1.49185000E-04	-8.62737000E-06
					-3.15590000E-04	 2.27490000E-04	-4.28564000E-04
					-3.02814000E-04	-7.97044000E-05	-2.64640000E-04
					 0.00000000E+00	 0.00000000E+00	 0.00000000E+00
					 4.81833000E-04	 8.58845000E-04	 7.58047000E-04
					 0.00000000E+00	 0.00000000E+00	 0.00000000E+00
					 6.63350000E-04	 2.98249000E-04	 7.53644000E-04
					 0.00000000E+00	 0.00000000E+00	 0.00000000E+00
					 1.94907000E-04	 1.58281000E-04	 2.65397000E-04
					 2.49765000E-04	 7.92092000E-04	 3.30760000E-04
					 0.00000000E+00	 0.00000000E+00	 0.00000000E+00
					 5.73162000E-04	 6.05923000E-04	 8.12072000E-04
					 0.00000000E+00	 0.00000000E+00	 0.00000000E+00
					 3.21064000E-04	-8.49735000E-05	 2.46409000E-04
					 3.35729000E-04	 2.25639000E-04	 3.84426000E-04
					 0.00000000E+00	 0.00000000E+00	 0.00000000E+00
					 0.00000000E+00	 0.00000000E+00	 0.00000000E+00
					 4.48734000E-06	-5.26571000E-04	-2.57967000E-05
					-8.23396000E-04	-4.33325000E-04	-8.03265000E-04
					 0.00000000E+00	 0.00000000E+00	 0.00000000E+00
					 0.00000000E+00	 0.00000000E+00	 0.00000000E+00
					 7.20285000E-06	-1.33469000E-04	-2.41533000E-05
					-7.31716000E-04	-4.09655000E-05	-7.31678000E-04
					 0.00000000E+00	 0.00000000E+00	 0.00000000E+00
					 5.02579000E-06	-5.17726000E-04	-8.96956000E-06
					-4.10480000E-04	-5.06177000E-04	-5.00586000E-04
					-4.08592000E-04	-4.32767000E-04	-2.85796000E-04
					 0.00000000E+00	 0.00000000E+00	 0.00000000E+00
					 8.35198000E-04	-4.41619000E-04	 7.51501000E-04
					 0.00000000E+00	 0.00000000E+00	 0.00000000E+00
					 7.48210000E-04	-4.71803000E-05	 6.83355000E-04
					 0.00000000E+00	 0.00000000E+00	 0.00000000E+00
					 4.20289000E-04	-4.40215000E-04	 2.66318000E-04
					 4.20250000E-04	-5.10063000E-04	 4.49134000E-04
					-8.27016000E-06	 4.45642000E-03	-4.60864000E-05
					-1.24017000E-03	 4.50109000E-03	-1.89444000E-03
					-1.11567000E-05	 3.17856000E-03	-5.66482000E-05
					-1.33251000E-03	 3.22180000E-03	-1.92271000E-03
					 6.53872000E-06	 2.27537000E-03	-3.06967000E-05
					-6.24413000E-04	 4.46705000E-03	-8.77130000E-04
					-8.38073000E-04	 2.34376000E-03	-1.41386000E-03
					-9.35193000E-06	 3.82976000E-03	-5.18208000E-05
					-1.28672000E-03	 3.87276000E-03	-1.96228000E-03
					 2.37308000E-06	 1.34789000E-03	-3.83239000E-05
					-6.72435000E-04	 3.18727000E-03	-9.47057000E-04
					-1.00154000E-03	 1.41790000E-03	-1.43208000E-03
					 1.22123000E-03	 4.50286000E-03	 1.80158000E-03
					 1.30915000E-03	 3.22564000E-03	 1.80893000E-03
					 8.49875000E-04	 2.34259000E-03	 1.35143000E-03
					 6.07183000E-04	 4.46695000E-03	 7.85019000E-04
					 1.26591000E-03	 3.87648000E-03	 1.85777000E-03
					 1.00627000E-03	 1.41706000E-03	 1.35495000E-03
					 6.49680000E-04	 3.18927000E-03	 8.33619000E-04
					-1.51361000E-05	 1.81442000E-03	-6.59248000E-05
					-1.43382000E-03	 1.85028000E-03	-1.91366000E-03
					-1.32307000E-05	 2.50724000E-03	-6.12171000E-05
					-1.38339000E-03	 2.55026000E-03	-1.89048000E-03
					-2.77899000E-06	 2.67392000E-04	-4.55588000E-05
					-7.21549000E-04	 1.81919000E-03	-9.77461000E-04
					-1.17448000E-03	 3.27929000E-04	-1.42790000E-03
					 1.40438000E-03	 1.85294000E-03	 1.78168000E-03
					 1.35696000E-03	 2.55346000E-03	 1.76800000E-03
					 1.17064000E-03	 3.24732000E-04	 1.33696000E-03
					 6.91506000E-04	 1.82092000E-03	 8.45348000E-04
					-4.58533000E-05	 9.35775000E-03	-8.25765000E-05
					-1.90721000E-03	 9.31744000E-03	-1.90554000E-03
					-4.60889000E-05	 7.54621000E-03	-9.10057000E-05
					-1.81643000E-03	 7.49970000E-03	-1.92796000E-03
					-2.77252000E-05	 6.96545000E-03	-6.46008000E-05
					-9.74681000E-04	 9.35007000E-03	-9.37308000E-04
					-1.61487000E-03	 6.96961000E-03	-2.03871000E-03
					-4.59428000E-05	 8.44111000E-03	-8.67672000E-05
					-1.86183000E-03	 8.39571000E-03	-1.94727000E-03
					-2.92055000E-05	 5.38658000E-03	-7.48509000E-05
					-9.31321000E-04	 7.53562000E-03	-9.82109000E-04
					-1.60636000E-03	 5.38444000E-03	-2.06893000E-03
					 1.81548000E-03	 9.32449000E-03	 1.74119000E-03
					 1.72435000E-03	 7.50681000E-03	 1.74639000E-03
					 1.55733000E-03	 6.97386000E-03	 1.90953000E-03
					 8.82987000E-04	 9.35314000E-03	 7.71984000E-04
					 1.77002000E-03	 8.40306000E-03	 1.77485000E-03
					 1.54691000E-03	 5.39101000E-03	 1.91919000E-03
					 8.39190000E-04	 7.53896000E-03	 8.00127000E-04
					-4.62718000E-05	 5.81609000E-03	-9.85692000E-05
					-1.73164000E-03	 5.76954000E-03	-1.92180000E-03
					-4.62352000E-05	 6.66953000E-03	-9.49637000E-05
					-1.77421000E-03	 6.62261000E-03	-1.90833000E-03
					-3.12257000E-05	 3.81150000E-03	-8.40655000E-05
					-8.89733000E-04	 5.80485000E-03	-1.00077000E-03
					-1.60617000E-03	 3.80653000E-03	-2.05784000E-03
					 1.63914000E-03	 5.77656000E-03	 1.72474000E-03
					 1.68181000E-03	 6.62958000E-03	 1.71842000E-03
					 1.54370000E-03	 3.81299000E-03	 1.88959000E-03
					 7.97207000E-04	 5.80830000E-03	 8.03617000E-04
					-7.63295000E-05	 1.27107000E-02	-1.04781000E-04
					-2.25644000E-03	 1.26292000E-02	-1.03231000E-03
					-7.32098000E-05	 1.06189000E-02	-1.12860000E-04
					-2.08382000E-03	 1.05341000E-02	-1.04499000E-03
					-6.12870000E-05	 1.13176000E-02	-9.59061000E-05
					-1.16556000E-03	 1.26919000E-02	-5.46354000E-04
					-2.11036000E-03	 1.12537000E-02	-1.53344000E-03
					-7.49816000E-05	 1.16439000E-02	-1.09171000E-04
					-2.16958000E-03	 1.15598000E-02	-1.05312000E-03
					-5.98970000E-05	 9.33946000E-03	-1.03823000E-04
					-1.07883000E-03	 1.05990000E-02	-5.70310000E-04
					-1.97210000E-03	 9.27177000E-03	-1.55007000E-03
					 2.10770000E-03	 1.26387000E-02	 8.22358000E-04
					 1.93971000E-03	 1.05386000E-02	 8.19059000E-04
					 1.99040000E-03	 1.12630000E-02	 1.34244000E-03
					 1.01386000E-03	 1.26970000E-02	 3.36504000E-04
					 2.02328000E-03	 1.15662000E-02	 8.34501000E-04
					 1.85400000E-03	 9.27774000E-03	 1.34283000E-03
					 9.33163000E-04	 1.06009000E-02	 3.44392000E-04
					-7.01479000E-05	 8.68697000E-03	-1.19774000E-04
					-1.91671000E-03	 8.60302000E-03	-1.04736000E-03
					-7.13809000E-05	 9.63160000E-03	-1.16132000E-04
					-2.00080000E-03	 9.54702000E-03	-1.03770000E-03
					-5.85077000E-05	 7.49081000E-03	-1.10497000E-04
					-9.94179000E-04	 8.66710000E-03	-5.83822000E-04
					-1.83894000E-03	 7.42389000E-03	-1.54873000E-03
					 1.77681000E-03	 8.60639000E-03	 8.07735000E-04
					 1.85906000E-03	 9.55067000E-03	 8.05445000E-04
					 1.72262000E-03	 7.42862000E-03	 1.32769000E-03
					 8.53985000E-04	 8.66852000E-03	 3.43987000E-04
					-9.68240000E-05	 1.34137000E-02	-1.20798000E-04
					-2.34521000E-03	 1.33428000E-02	 1.13364000E-04
					-9.24865000E-05	 1.12534000E-02	-1.25632000E-04
					-2.17712000E-03	 1.11743000E-02	 1.18436000E-04
					-8.87836000E-05	 1.34290000E-02	-1.12321000E-04
					-1.21889000E-03	 1.34001000E-02	-2.97935000E-05
					-2.33662000E-03	 1.33493000E-02	-4.51969000E-04
					-9.52042000E-05	 1.23136000E-02	-1.23769000E-04
					-2.26188000E-03	 1.22360000E-02	 1.20820000E-04
					-8.48749000E-05	 1.12733000E-02	-1.19471000E-04
					-1.13534000E-03	 1.12364000E-02	-2.50770000E-05
					-2.15502000E-03	 1.11895000E-02	-4.58737000E-04
					 2.15479000E-03	 1.33473000E-02	-3.56782000E-04
					 1.99205000E-03	 1.11755000E-02	-3.71122000E-04
					 2.16292000E-03	 1.33563000E-02	 2.25761000E-04
					 1.02611000E-03	 1.34021000E-02	-2.12156000E-04
					 2.07380000E-03	 1.22381000E-02	-3.70141000E-04
					 1.98652000E-03	 1.11921000E-02	 2.18845000E-04
					 9.50411000E-04	 1.12361000E-02	-2.26469000E-04
					-8.77406000E-05	 9.24450000E-03	-1.29594000E-04
					-2.02019000E-03	 9.16120000E-03	 1.06061000E-04
					-8.97494000E-05	 1.02278000E-02	-1.27305000E-04
					-2.09870000E-03	 1.01474000E-02	 1.18341000E-04
					-8.08033000E-05	 9.28768000E-03	-1.25787000E-04
					-1.05382000E-03	 9.22416000E-03	-3.77874000E-05
					-1.97815000E-03	 9.20445000E-03	-4.64579000E-04
					 1.84094000E-03	 9.16682000E-03	-3.66233000E-04
					 1.91661000E-03	 1.01500000E-02	-3.73885000E-04
					 1.81485000E-03	 9.20843000E-03	 2.12652000E-04
					 8.77455000E-04	 9.22673000E-03	-2.21731000E-04
					-8.96603000E-05	 1.14108000E-02	-1.46279000E-04
					-1.88963000E-03	 1.14137000E-02	 6.55732000E-04
					-8.66762000E-05	 9.61025000E-03	-1.39830000E-04
					-1.88317000E-03	 9.61023000E-03	 6.77795000E-04
					-9.79402000E-05	 1.26476000E-02	-1.32649000E-04
					-9.88899000E-04	 1.14118000E-02	 1.69897000E-04
					-2.20482000E-03	 1.26179000E-02	 5.06202000E-04
					-8.87212000E-05	 1.05125000E-02	-1.42591000E-04
					-1.88725000E-03	 1.05124000E-02	 7.21148000E-04
					-9.35994000E-05	 1.05937000E-02	-1.32443000E-04
					-9.85092000E-04	 9.60879000E-03	 2.36277000E-04
					-2.10483000E-03	 1.05531000E-02	 5.26154000E-04
					 1.71120000E-03	 1.14137000E-02	-9.44965000E-04
					 1.70853000E-03	 9.61031000E-03	-9.54172000E-04
					 2.01085000E-03	 1.26189000E-02	-7.71794000E-04
					 8.10034000E-04	 1.14107000E-02	-4.61194000E-04
					 1.70983000E-03	 1.05124000E-02	-1.00336000E-03
					 1.91666000E-03	 1.05530000E-02	-7.91323000E-04
					 8.11362000E-04	 9.60767000E-03	-5.14971000E-04
					-8.28495000E-05	 7.81570000E-03	-1.36109000E-04
					-1.88748000E-03	 7.80378000E-03	 6.67396000E-04
					-8.43848000E-05	 8.71219000E-03	-1.37920000E-04
					-1.88557000E-03	 8.71014000E-03	 6.37512000E-04
					-8.85604000E-05	 8.62529000E-03	-1.32241000E-04
					-9.81766000E-04	 7.80819000E-03	 2.70309000E-04
					-2.02380000E-03	 8.57294000E-03	 5.08597000E-04
					 1.71852000E-03	 7.80821000E-03	-9.36490000E-04
					 1.71419000E-03	 8.71197000E-03	-9.10388000E-04
					 1.84260000E-03	 8.57813000E-03	-7.73354000E-04
					 8.14982000E-04	 7.80965000E-03	-5.41307000E-04
					-6.45547000E-05	 9.14749000E-03	-1.62185000E-04
					-1.06454000E-03	 9.15625000E-03	 3.78263000E-04
					-6.76251000E-05	 8.11737000E-03	-1.50449000E-04
					-1.11244000E-03	 8.13266000E-03	 3.80414000E-04
					-7.61489000E-05	 1.01528000E-02	-1.56270000E-04
					-5.65769000E-04	 9.14498000E-03	 6.42068000E-05
					-1.47760000E-03	 1.01631000E-02	 5.44348000E-04
					-6.57067000E-05	 8.63898000E-03	-1.56856000E-04
					-1.08714000E-03	 8.65314000E-03	 4.35919000E-04
					-7.68265000E-05	 8.72471000E-03	-1.46192000E-04
					-5.87580000E-04	 8.11796000E-03	 1.27231000E-04
					-1.52043000E-03	 8.73530000E-03	 5.57828000E-04
					 9.35864000E-04	 9.16011000E-03	-7.03951000E-04
					 9.74654000E-04	 8.13835000E-03	-6.82668000E-04
					 1.32429000E-03	 1.01647000E-02	-8.52567000E-04
					 4.36747000E-04	 9.14859000E-03	-3.90074000E-04
					 9.55519000E-04	 8.65730000E-03	-7.50263000E-04
					 1.36488000E-03	 8.73921000E-03	-8.45489000E-04
					 4.51661000E-04	 8.12193000E-03	-4.29100000E-04
					-6.87898000E-05	 7.05367000E-03	-1.36245000E-04
					-1.14894000E-03	 7.06765000E-03	 3.93628000E-04
					-6.90091000E-05	 7.58969000E-03	-1.42795000E-04
					-1.13114000E-03	 7.60503000E-03	 3.23062000E-04
					-7.63566000E-05	 7.26029000E-03	-1.39784000E-04
					-6.06934000E-04	 7.05320000E-03	 2.02270000E-04
					-1.56863000E-03	 7.26041000E-03	 5.60161000E-04
					 1.00599000E-03	 7.08078000E-03	-6.67455000E-04
					 9.88263000E-04	 7.61362000E-03	-6.09417000E-04
					 1.41355000E-03	 7.26787000E-03	-8.34671000E-04
					 4.67988000E-04	 7.06208000E-03	-4.76461000E-04
					-4.33202000E-05	 7.86736000E-03	-1.66192000E-04
					-6.45993000E-04	 7.85622000E-03	 3.04123000E-04
					-2.77592000E-05	 7.26534000E-03	-1.53282000E-04
					-6.47553000E-04	 7.28258000E-03	 2.93057000E-04
					-5.32770000E-05	 8.41930000E-03	-1.65130000E-04
					-3.50561000E-04	 7.86390000E-03	 6.79867000E-05
					-7.59752000E-04	 8.41130000E-03	 3.11606000E-04
					-3.78991000E-05	 7.55936000E-03	-1.61918000E-04
					-6.47444000E-04	 7.56788000E-03	 3.05883000E-04
					-5.15558000E-05	 7.69279000E-03	-1.52604000E-04
					-3.41105000E-04	 7.27829000E-03	 7.50312000E-05
					-7.81269000E-04	 7.70241000E-03	 3.03770000E-04
					 5.79277000E-04	 7.84636000E-03	-6.56192000E-04
					 5.92997000E-04	 7.25211000E-03	-6.20553000E-04
					 6.64548000E-04	 8.41702000E-03	-6.54819000E-04
					 2.69154000E-04	 7.85791000E-03	-4.06803000E-04
					 5.85087000E-04	 7.54313000E-03	-6.48787000E-04
					 6.77476000E-04	 7.69851000E-03	-6.23159000E-04
					 2.85957000E-04	 7.25876000E-03	-3.87304000E-04
					-1.05862000E-05	 6.66617000E-03	-1.18229000E-04
					-6.20165000E-04	 6.69629000E-03	 3.08315000E-04
					-1.72608000E-05	 6.96960000E-03	-1.38552000E-04
					-6.32494000E-04	 6.99042000E-03	 2.87537000E-04
					-4.83635000E-05	 6.95743000E-03	-1.24817000E-04
					-3.18849000E-04	 6.68453000E-03	 1.07411000E-04
					-7.85123000E-04	 6.97305000E-03	 3.21374000E-04
					 5.80319000E-04	 6.68376000E-03	-5.66859000E-04
					 5.86409000E-04	 6.96393000E-03	-5.86152000E-04
					 6.74716000E-04	 6.98438000E-03	-5.86302000E-04
					 2.93177000E-04	 6.67649000E-03	-3.50073000E-04
					 0.00000000E+00	 0.00000000E+00	 0.00000000E+00
					 0.00000000E+00	 0.00000000E+00	 0.00000000E+00
					-3.26229000E-05	-2.74560000E-03	 1.75204000E-04
					-1.03164000E-03	-2.99503000E-03	 3.54339000E-03
					 0.00000000E+00	 0.00000000E+00	 0.00000000E+00
					 0.00000000E+00	 0.00000000E+00	 0.00000000E+00
					-4.80280000E-06	-3.49853000E-03	 1.72648000E-04
					-5.35270000E-04	-3.77102000E-03	 3.58105000E-03
					 0.00000000E+00	 0.00000000E+00	 0.00000000E+00
					-2.87159000E-05	-3.20251000E-04	 8.34352000E-05
					-5.31692000E-04	-2.78875000E-03	 1.86858000E-03
					-7.96202000E-04	-6.43975000E-04	 1.74485000E-03
					 0.00000000E+00	 0.00000000E+00	 0.00000000E+00
					 0.00000000E+00	 0.00000000E+00	 0.00000000E+00
					-1.82276000E-05	-3.19998000E-03	 1.72453000E-04
					-7.80134000E-04	-3.46110000E-03	 3.51459000E-03
					 0.00000000E+00	 0.00000000E+00	 0.00000000E+00
					-2.37454000E-06	-8.13846000E-04	 7.61337000E-05
					-2.70680000E-04	-3.54961000E-03	 1.83778000E-03
					-2.68318000E-04	-1.13330000E-03	 1.68698000E-03
					 0.00000000E+00	 0.00000000E+00	 0.00000000E+00
					 9.63211000E-04	-2.91256000E-03	-3.19662000E-03
					 0.00000000E+00	 0.00000000E+00	 0.00000000E+00
					 5.25034000E-04	-3.68040000E-03	-3.23912000E-03
					 0.00000000E+00	 0.00000000E+00	 0.00000000E+00
					 7.36689000E-04	-5.78289000E-04	-1.56797000E-03
					 4.65914000E-04	-2.74698000E-03	-1.52032000E-03
					 0.00000000E+00	 0.00000000E+00	 0.00000000E+00
					 7.40981000E-04	-3.37357000E-03	-3.17375000E-03
					 0.00000000E+00	 0.00000000E+00	 0.00000000E+00
					 2.64387000E-04	-1.06689000E-03	-1.52347000E-03
					 2.59552000E-04	-3.50385000E-03	-1.49557000E-03
					 0.00000000E+00	 0.00000000E+00	 0.00000000E+00
					 0.00000000E+00	 0.00000000E+00	 0.00000000E+00
					 2.43042000E-05	-3.80499000E-03	 1.73875000E-04
					-3.41216000E-05	-4.05628000E-03	 3.54395000E-03
					 0.00000000E+00	 0.00000000E+00	 0.00000000E+00
					 0.00000000E+00	 0.00000000E+00	 0.00000000E+00
					 9.27327000E-06	-3.72957000E-03	 1.72049000E-04
					-2.87905000E-04	-3.98706000E-03	 3.60784000E-03
					 0.00000000E+00	 0.00000000E+00	 0.00000000E+00
					 2.42654000E-05	-8.52299000E-04	 8.06413000E-05
					-5.21383000E-06	-3.84886000E-03	 1.77450000E-03
					 2.76824000E-04	-1.15888000E-03	 1.74284000E-03
					 0.00000000E+00	 0.00000000E+00	 0.00000000E+00
					 8.00390000E-05	-3.96381000E-03	-3.19786000E-03
					 0.00000000E+00	 0.00000000E+00	 0.00000000E+00
					 3.04738000E-04	-3.90055000E-03	-3.26565000E-03
					 0.00000000E+00	 0.00000000E+00	 0.00000000E+00
					-2.27474000E-04	-1.09239000E-03	-1.57078000E-03
					 5.30845000E-05	-3.80323000E-03	-1.42954000E-03
					-1.87392000E-05	-1.27004000E-02	 3.28061000E-04
					-1.29120000E-03	-1.28627000E-02	 6.15781000E-03
					 1.75051000E-05	-1.38675000E-02	 3.33050000E-04
					-1.05789000E-03	-1.40320000E-02	 6.20106000E-03
					-3.06292000E-05	-7.01456000E-03	 2.55423000E-04
					-6.53908000E-04	-1.27597000E-02	 3.17980000E-03
					-1.19516000E-03	-7.24536000E-03	 5.08400000E-03
					-1.30466000E-06	-1.33049000E-02	 3.28894000E-04
					-1.17414000E-03	-1.34667000E-02	 6.16313000E-03
					 8.40196000E-08	-7.98775000E-03	 2.54768000E-04
					-5.13843000E-04	-1.39265000E-02	 3.18674000E-03
					-7.94064000E-04	-8.22472000E-03	 5.11699000E-03
					 1.25044000E-03	-1.27242000E-02	-5.50527000E-03
					 1.08403000E-03	-1.38924000E-02	-5.53705000E-03
					 1.12836000E-03	-7.13258000E-03	-4.57706000E-03
					 6.15282000E-04	-1.26912000E-02	-2.52515000E-03
					 1.16733000E-03	-1.33317000E-02	-5.50602000E-03
					 7.90830000E-04	-8.10744000E-03	-4.61093000E-03
					 5.51179000E-04	-1.38577000E-02	-2.51828000E-03
					 5.01334000E-05	-1.48430000E-02	 3.43410000E-04
					-7.98522000E-04	-1.49856000E-02	 6.17083000E-03
					 3.34553000E-05	-1.43725000E-02	 3.38985000E-04
					-9.27793000E-04	-1.45614000E-02	 6.24864000E-03
					 3.16680000E-05	-8.60187000E-03	 2.61398000E-04
					-3.83205000E-04	-1.48883000E-02	 3.11955000E-03
					-3.85754000E-04	-8.82824000E-03	 5.09020000E-03
					 9.20102000E-04	-1.48594000E-02	-5.48726000E-03
					 1.00188000E-03	-1.43993000E-02	-5.57644000E-03
					 4.56867000E-04	-8.71503000E-03	-4.56827000E-03
					 4.89510000E-04	-1.48269000E-02	-2.42920000E-03
					 5.50779000E-05	-2.53969000E-02	 4.57245000E-04
					-1.57464000E-03	-2.53466000E-02	 6.36642000E-03
					 9.31120000E-05	-2.70704000E-02	 4.89974000E-04
					-1.67168000E-03	-2.71261000E-02	 6.42804000E-03
					 1.08355000E-05	-1.90770000E-02	 3.94469000E-04
					-7.56356000E-04	-2.53910000E-02	 3.38698000E-03
					-1.39910000E-03	-1.91584000E-02	 6.54766000E-03
					 7.52298000E-05	-2.62175000E-02	 4.79063000E-04
					-1.62613000E-03	-2.62321000E-02	 6.35239000E-03
					 4.73311000E-05	-2.04751000E-02	 4.10115000E-04
					-8.13094000E-04	-2.71232000E-02	 3.37430000E-03
					-1.34904000E-03	-2.05663000E-02	 6.60533000E-03
					 1.64476000E-03	-2.52532000E-02	-5.43482000E-03
					 1.85290000E-03	-2.69358000E-02	-5.46600000E-03
					 1.40891000E-03	-1.90201000E-02	-5.75826000E-03
					 8.53102000E-04	-2.53473000E-02	-2.46127000E-03
					 1.74702000E-03	-2.60698000E-02	-5.40540000E-03
					 1.44167000E-03	-2.04058000E-02	-5.78666000E-03
					 9.74570000E-04	-2.70307000E-02	-2.41434000E-03
					 1.25140000E-04	-2.89060000E-02	 5.15675000E-04
					-1.86590000E-03	-2.90840000E-02	 6.42132000E-03
					 1.09699000E-04	-2.79814000E-02	 5.00019000E-04
					-1.77084000E-03	-2.79677000E-02	 6.51200000E-03
					 9.09463000E-05	-2.18618000E-02	 4.25390000E-04
					-8.37582000E-04	-2.90245000E-02	 3.29218000E-03
					-1.32055000E-03	-2.19780000E-02	 6.57998000E-03
					 2.07025000E-03	-2.88001000E-02	-5.43580000E-03
					 1.96151000E-03	-2.78411000E-02	-5.53173000E-03
					 1.46091000E-03	-2.17839000E-02	-5.73419000E-03
					 1.08890000E-03	-2.88881000E-02	-2.30564000E-03
					 2.12932000E-04	-3.55605000E-02	 5.93891000E-04
					-1.90137000E-03	-3.52947000E-02	 4.42844000E-03