<?xml version="1.0"?>
<VTKFile type="UnstructuredGrid" version="0.1" byte_order="LittleEndian">
	<UnstructuredGrid>
		<Piece NumberOfPoints="522" NumberOfCells="64">
			<Points>
				<DataArray type="Float64" NumberOfComponents="3" format="ascii">
					 1.00000000E+00	 1.00000000E+00	-5.96046000E-08
					 1.00000000E+00	 5.00000000E-01	-5.96046000E-08
					 1.00000000E+00	 5.00000000E-01	 1.00000000E+00
					 1.00000000E+00	 1.00000000E+00	 1.00000000E+00
					 5.00000000E-01	 1.00000000E+00	-5.96046000E-08
					 5.00000000E-01	 5.00000000E-01	-5.96046000E-08
					 5.00000000E-01	 5.00000000E-01	 1.00000000E+00
					 5.00000000E-01	 1.00000000E+00	 1.00000000E+00
					 1.00000000E+00	 7.50000000E-01	-5.96046000E-08
					 1.00000000E+00	 5.00000000E-01	 5.00000000E-01
					 1.00000000E+00	 7.50000000E-01	 1.00000000E+00
					 1.00000000E+00	 1.00000000E+00	 5.00000000E-01
					 7.50000000E-01	 1.00000000E+00	-5.96046000E-08
					 7.50000000E-01	 5.00000000E-01	-5.96046000E-08
					 7.50000000E-01	 5.00000000E-01	 1.00000000E+00
					 7.50000000E-01	 1.00000000E+00	 1.00000000E+00
					 5.00000000E-01	 7.50000000E-01	-5.96046000E-08
					 5.00000000E-01	 5.00000000E-01	 5.00000000E-01
					 5.00000000E-01	 7.50000000E-01	 1.00000000E+00
					 5.00000000E-01	 1.00000000E+00	 5.00000000E-01
					 1.00000000E+00	-1.49012000E-08	-5.96046000E-08
					 1.00000000E+00	-1.49012000E-08	 1.00000000E+00
					 5.00000000E-01	-1.49012000E-08	-5.96046000E-08
					 5.00000000E-01	-1.49012000E-08	 1.00000000E+00
					 1.00000000E+00	 2.50000000E-01	-5.96046000E-08
					 1.00000000E+00	-1.49012000E-08	 5.00000000E-01
					 1.00000000E+00	 2.50000000E-01	 1.00000000E+00
					 7.50000000E-01	-1.49012000E-08	-5.96046000E-08
					 7.50000000E-01	-1.49012000E-08	 1.00000000E+00
					 5.00000000E-01	 2.50000000E-01	-5.96046000E-08
					 5.00000000E-01	-1.49012000E-08	 5.00000000E-01
					 5.00000000E-01	 2.50000000E-01	 1.00000000E+00
					-7.45058000E-09	 1.00000000E+00	-5.96046000E-08
					-7.45058000E-09	 5.00000000E-01	-5.96046000E-08
					-7.45058000E-09	 5.00000000E-01	 1.00000000E+00
					-7.45058000E-09	 1.00000000E+00	 1.00000000E+00
					 2.50000000E-01	 1.00000000E+00	-5.96046000E-08
					 2.50000000E-01	 5.00000000E-01	-5.96046000E-08
					 2.50000000E-01	 5.00000000E-01	 1.00000000E+00
					 2.50000000E-01	 1.00000000E+00	 1.00000000E+00
					-7.45058000E-09	 7.50000000E-01	-5.96046000E-08
					-7.45058000E-09	 5.00000000E-01	 5.00000000E-01
					-7.45058000E-09	 7.50000000E-01	 1.00000000E+00
					-7.45058000E-09	 1.00000000E+00	 5.00000000E-01
					-7.45058000E-09	-1.49012000E-08	-5.96046000E-08
					-7.45058000E-09	-1.49012000E-08	 1.00000000E+00
					 2.50000000E-01	-1.49012000E-08	-5.96046000E-08
					 2.50000000E-01	-1.49012000E-08	 1.00000000E+00
					-7.45058000E-09	 2.50000000E-01	-5.96046000E-08
					-7.45058000E-09	-1.49012000E-08	 5.00000000E-01
					-7.45058000E-09	 2.50000000E-01	 1.00000000E+00
					 1.00000000E+00	 5.00000000E-01	 2.00000000E+00
					 1.00000000E+00	 1.00000000E+00	 2.00000000E+00
					 5.00000000E-01	 5.00000000E-01	 2.00000000E+00
					 5.00000000E-01	 1.00000000E+00	 2.00000000E+00
					 1.00000000E+00	 5.00000000E-01	 1.50000000E+00
					 1.00000000E+00	 7.50000000E-01	 2.00000000E+00
					 1.00000000E+00	 1.00000000E+00	 1.50000000E+00
					 7.50000000E-01	 5.00000000E-01	 2.00000000E+00
					 7.50000000E-01	 1.00000000E+00	 2.00000000E+00
					 5.00000000E-01	 5.00000000E-01	 1.50000000E+00
					 5.00000000E-01	 7.50000000E-01	 2.00000000E+00
					 5.00000000E-01	 1.00000000E+00	 1.50000000E+00
					 1.00000000E+00	-1.49012000E-08	 2.00000000E+00
					 5.00000000E-01	-1.49012000E-08	 2.00000000E+00
					 1.00000000E+00	-1.49012000E-08	 1.50000000E+00
					 1.00000000E+00	 2.50000000E-01	 2.00000000E+00
					 7.50000000E-01	-1.49012000E-08	 2.00000000E+00
					 5.00000000E-01	-1.49012000E-08	 1.50000000E+00
					 5.00000000E-01	 2.50000000E-01	 2.00000000E+00
					-7.45058000E-09	 5.00000000E-01	 2.00000000E+00
					-7.45058000E-09	 1.00000000E+00	 2.00000000E+00
					 2.50000000E-01	 5.00000000E-01	 2.00000000E+00
					 2.50000000E-01	 1.00000000E+00	 2.00000000E+00
					-7.45058000E-09	 5.00000000E-01	 1.50000000E+00
					-7.45058000E-09	 7.50000000E-01	 2.00000000E+00
					-7.45058000E-09	 1.00000000E+00	 1.50000000E+00
					-7.45058000E-09	-1.49012000E-08	 2.00000000E+00
					 2.50000000E-01	-1.49012000E-08	 2.00000000E+00
					-7.45058000E-09	-1.49012000E-08	 1.50000000E+00
					-7.45058000E-09	 2.50000000E-01	 2.00000000E+00
					 1.00000000E+00	 5.00000000E-01	 3.00000000E+00
					 1.00000000E+00	 1.00000000E+00	 3.00000000E+00
					 5.00000000E-01	 5.00000000E-01	 3.00000000E+00
					 5.00000000E-01	 1.00000000E+00	 3.00000000E+00
					 1.00000000E+00	 5.00000000E-01	 2.50000000E+00
					 1.00000000E+00	 7.50000000E-01	 3.00000000E+00
					 1.00000000E+00	 1.00000000E+00	 2.50000000E+00
					 7.50000000E-01	 5.00000000E-01	 3.00000000E+00
					 7.50000000E-01	 1.00000000E+00	 3.00000000E+00
					 5.00000000E-01	 5.00000000E-01	 2.50000000E+00
					 5.00000000E-01	 7.50000000E-01	 3.00000000E+00
					 5.00000000E-01	 1.00000000E+00	 2.50000000E+00
					 1.00000000E+00	-1.49012000E-08	 3.00000000E+00
					 5.00000000E-01	-1.49012000E-08	 3.00000000E+00
					 1.00000000E+00	-1.49012000E-08	 2.50000000E+00
					 1.00000000E+00	 2.50000000E-01	 3.00000000E+00
					 7.50000000E-01	-1.49012000E-08	 3.00000000E+00
					 5.00000000E-01	-1.49012000E-08	 2.50000000E+00
					 5.00000000E-01	 2.50000000E-01	 3.00000000E+00
					-7.45058000E-09	 5.00000000E-01	 3.00000000E+00
					-7.45058000E-09	 1.00000000E+00	 3.00000000E+00
					 2.50000000E-01	 5.00000000E-01	 3.00000000E+00
					 2.50000000E-01	 1.00000000E+00	 3.00000000E+00
					-7.45058000E-09	 5.00000000E-01	 2.50000000E+00
					-7.45058000E-09	 7.50000000E-01	 3.00000000E+00
					-7.45058000E-09	 1.00000000E+00	 2.50000000E+00
					-7.45058000E-09	-1.49012000E-08	 3.00000000E+00
					 2.50000000E-01	-1.49012000E-08	 3.00000000E+00
					-7.45058000E-09	-1.49012000E-08	 2.50000000E+00
					-7.45058000E-09	 2.50000000E-01	 3.00000000E+00
					 1.00000000E+00	 5.00000000E-01	 4.00000000E+00
					 1.00000000E+00	 1.00000000E+00	 4.00000000E+00
					 5.00000000E-01	 5.00000000E-01	 4.00000000E+00
					 5.00000000E-01	 1.00000000E+00	 4.00000000E+00
					 1.00000000E+00	 5.00000000E-01	 3.50000000E+00
					 1.00000000E+00	 7.50000000E-01	 4.00000000E+00
					 1.00000000E+00	 1.00000000E+00	 3.50000000E+00
					 7.50000000E-01	 5.00000000E-01	 4.00000000E+00
					 7.50000000E-01	 1.00000000E+00	 4.00000000E+00
					 5.00000000E-01	 5.00000000E-01	 3.50000000E+00
					 5.00000000E-01	 7.50000000E-01	 4.00000000E+00
					 5.00000000E-01	 1.00000000E+00	 3.50000000E+00
					 1.00000000E+00	-1.49012000E-08	 4.00000000E+00
					 5.00000000E-01	-1.49012000E-08	 4.00000000E+00
					 1.00000000E+00	-1.49012000E-08	 3.50000000E+00
					 1.00000000E+00	 2.50000000E-01	 4.00000000E+00
					 7.50000000E-01	-1.49012000E-08	 4.00000000E+00
					 5.00000000E-01	-1.49012000E-08	 3.50000000E+00
					 5.00000000E-01	 2.50000000E-01	 4.00000000E+00
					-7.45058000E-09	 5.00000000E-01	 4.00000000E+00
					-7.45058000E-09	 1.00000000E+00	 4.00000000E+00
					 2.50000000E-01	 5.00000000E-01	 4.00000000E+00
					 2.50000000E-01	 1.00000000E+00	 4.00000000E+00
					-7.45058000E-09	 5.00000000E-01	 3.50000000E+00
					-7.45058000E-09	 7.50000000E-01	 4.00000000E+00
					-7.45058000E-09	 1.00000000E+00	 3.50000000E+00
					-7.45058000E-09	-1.49012000E-08	 4.00000000E+00
					 2.50000000E-01	-1.49012000E-08	 4.00000000E+00
					-7.45058000E-09	-1.49012000E-08	 3.50000000E+00
					-7.45058000E-09	 2.50000000E-01	 4.00000000E+00
					 1.00000000E+00	 5.00000000E-01	 5.00000000E+00
					 1.00000000E+00	 1.00000000E+00	 5.00000000E+00
					 5.00000000E-01	 5.00000000E-01	 5.00000000E+00
					 5.00000000E-01	 1.00000000E+00	 5.00000000E+00
					 1.00000000E+00	 5.00000000E-01	 4.50000000E+00
					 1.00000000E+00	 7.50000000E-01	 5.00000000E+00
					 1.00000000E+00	 1.00000000E+00	 4.50000000E+00
					 7.50000000E-01	 5.00000000E-01	 5.00000000E+00
					 7.50000000E-01	 1.00000000E+00	 5.00000000E+00
					 5.00000000E-01	 5.00000000E-01	 4.50000000E+00
					 5.00000000E-01	 7.50000000E-01	 5.00000000E+00
					 5.00000000E-01	 1.00000000E+00	 4.50000000E+00
					 1.00000000E+00	-1.49012000E-08	 5.00000000E+00
					 5.00000000E-01	-1.49012000E-08	 5.00000000E+00
					 1.00000000E+00	-1.49012000E-08	 4.50000000E+00
					 1.00000000E+00	 2.50000000E-01	 5.00000000E+00
					 7.50000000E-01	-1.49012000E-08	 5.00000000E+00
					 5.00000000E-01	-1.49012000E-08	 4.50000000E+00
					 5.00000000E-01	 2.50000000E-01	 5.00000000E+00
					-7.45058000E-09	 5.00000000E-01	 5.00000000E+00
					-7.45058000E-09	 1.00000000E+00	 5.00000000E+00
					 2.50000000E-01	 5.00000000E-01	 5.00000000E+00
					 2.50000000E-01	 1.00000000E+00	 5.00000000E+00
					-7.45058000E-09	 5.00000000E-01	 4.50000000E+00
					-7.45058000E-09	 7.50000000E-01	 5.00000000E+00
					-7.45058000E-09	 1.00000000E+00	 4.50000000E+00
					-7.45058000E-09	-1.49012000E-08	 5.00000000E+00
					 2.50000000E-01	-1.49012000E-08	 5.00000000E+00
					-7.45058000E-09	-1.49012000E-08	 4.50000000E+00
					-7.45058000E-09	 2.50000000E-01	 5.00000000E+00
					 1.00000000E+00	 5.00000000E-01	 6.00000000E+00
					 1.00000000E+00	 1.00000000E+00	 6.00000000E+00
					 5.00000000E-01	 5.00000000E-01	 6.00000000E+00
					 5.00000000E-01	 1.00000000E+00	 6.00000000E+00
					 1.00000000E+00	 5.00000000E-01	 5.50000000E+00
					 1.00000000E+00	 7.50000000E-01	 6.00000000E+00
					 1.00000000E+00	 1.00000000E+00	 5.50000000E+00
					 7.50000000E-01	 5.00000000E-01	 6.00000000E+00
					 7.50000000E-01	 1.00000000E+00	 6.00000000E+00
					 5.00000000E-01	 5.00000000E-01	 5.50000000E+00
					 5.00000000E-01	 7.50000000E-01	 6.00000000E+00
					 5.00000000E-01	 1.00000000E+00	 5.50000000E+00
					 1.00000000E+00	-1.49012000E-08	 6.00000000E+00
[...]
			<PointData>
				<DataArray type="Float32" Name="U" NumberOfComponents="3" ComponentName0="D1" ComponentName1="D2" ComponentName2="D3" format="ascii">
					 0.00000000E+00	 0.00000000E+00	 0.00000000E+00
					 0.00000000E+00	 0.00000000E+00	 0.00000000E+00
					 1.80672000E-06	 1.85575000E-03	-7.49139000E-05
					 5.43476000E-04	 2.03228000E-03	-2.39250000E-03
					 0.00000000E+00	 0.00000000E+00	 0.00000000E+00
					 0.00000000E+00	 0.00000000E+00	 0.00000000E+00
					-1.01169000E-05	 2.22319000E-03	-7.84103000E-05
					 1.77587000E-04	 2.40179000E-03	-2.40370000E-03
					 0.00000000E+00	 0.00000000E+00	 0.00000000E+00
					 6.61012000E-06	 3.11335000E-04	-3.28324000E-05
					 2.75584000E-04	 1.88639000E-03	-1.27128000E-03
					 4.22929000E-04	 5.27375000E-04	-1.14105000E-03
					 0.00000000E+00	 0.00000000E+00	 0.00000000E+00
					 0.00000000E+00	 0.00000000E+00	 0.00000000E+00
					-4.24477000E-06	 2.09642000E-03	-7.70729000E-05
					 3.58561000E-04	 2.27115000E-03	-2.36842000E-03
					 0.00000000E+00	 0.00000000E+00	 0.00000000E+00
					-5.20411000E-06	 5.44253000E-04	-3.38927000E-05
					 8.33283000E-05	 2.25330000E-03	-1.24884000E-03
					 6.88684000E-05	 7.54850000E-04	-1.10321000E-03
					 0.00000000E+00	 0.00000000E+00	 0.00000000E+00
					-5.42205000E-04	 2.02170000E-03	 2.24178000E-03
					 0.00000000E+00	 0.00000000E+00	 0.00000000E+00
					-1.98357000E-04	 2.39226000E-03	 2.24645000E-03
					 0.00000000E+00	 0.00000000E+00	 0.00000000E+00
					-4.09981000E-04	 5.09115000E-04	 1.07103000E-03
					-2.72893000E-04	 1.88144000E-03	 1.12162000E-03
					 0.00000000E+00	 0.00000000E+00	 0.00000000E+00
					-3.68188000E-04	 2.26115000E-03	 2.21356000E-03
					 0.00000000E+00	 0.00000000E+00	 0.00000000E+00
					-7.89476000E-05	 7.35535000E-04	 1.03152000E-03
					-1.03668000E-04	 2.24871000E-03	 1.09224000E-03
					 0.00000000E+00	 0.00000000E+00	 0.00000000E+00
					 0.00000000E+00	 0.00000000E+00	 0.00000000E+00
					-2.08993000E-05	 2.23158000E-03	-7.89113000E-05
					-1.96346000E-04	 2.39726000E-03	-2.39584000E-03
					 0.00000000E+00	 0.00000000E+00	 0.00000000E+00
					 0.00000000E+00	 0.00000000E+00	 0.00000000E+00
					-1.56463000E-05	 2.28327000E-03	-7.83921000E-05
					-8.14245000E-06	 2.45536000E-03	-2.41194000E-03
					 0.00000000E+00	 0.00000000E+00	 0.00000000E+00
					-1.72866000E-05	 4.59116000E-04	-3.80269000E-05
					-1.09498000E-04	 2.25647000E-03	-1.23251000E-03
					-2.94530000E-04	 6.66798000E-04	-1.14589000E-03
					 0.00000000E+00	 0.00000000E+00	 0.00000000E+00
					 1.55550000E-04	 2.39015000E-03	 2.23828000E-03
					 0.00000000E+00	 0.00000000E+00	 0.00000000E+00
					-2.31656000E-05	 2.44733000E-03	 2.25517000E-03
					 0.00000000E+00	 0.00000000E+00	 0.00000000E+00
					 2.60957000E-04	 6.46927000E-04	 1.06609000E-03
					 6.83173000E-05	 2.25283000E-03	 1.07506000E-03
					 1.09805000E-05	 8.45103000E-03	-1.75343000E-04
					 1.10375000E-03	 8.66759000E-03	-5.30914000E-03
					 1.53818000E-06	 9.30938000E-03	-1.76153000E-04
					 6.26919000E-04	 9.52491000E-03	-5.30112000E-03
					 3.04488000E-06	 4.48992000E-03	-1.22766000E-04
					 5.57504000E-04	 8.50210000E-03	-2.80709000E-03
					 7.82581000E-04	 4.70779000E-03	-3.77644000E-03
					 6.27024000E-06	 8.93748000E-03	-1.75680000E-04
					 8.65486000E-04	 9.15328000E-03	-5.25667000E-03
					-8.09484000E-06	 5.06652000E-03	-1.23421000E-04
					 3.13718000E-04	 9.36024000E-03	-2.75667000E-03
					 3.57805000E-04	 5.27760000E-03	-3.76619000E-03
					-1.08312000E-03	 8.70531000E-03	 4.95582000E-03
					-6.23720000E-04	 9.56172000E-03	 4.94587000E-03
					-7.78600000E-04	 4.71357000E-03	 3.52918000E-03
					-5.36118000E-04	 8.52234000E-03	 2.45531000E-03
					-8.53337000E-04	 9.18983000E-03	 4.90307000E-03
					-3.74661000E-04	 5.28505000E-03	 3.51787000E-03
					-3.10617000E-04	 9.37926000E-03	 2.40363000E-03
					-8.46986000E-06	 9.70163000E-03	-1.71336000E-04
					 1.37986000E-04	 9.90703000E-03	-5.30530000E-03
					-3.41834000E-06	 9.56167000E-03	-1.75269000E-04
					 3.81816000E-04	 9.77415000E-03	-5.34330000E-03
					-1.89783000E-05	 5.22228000E-03	-1.20060000E-04
					 6.66277000E-05	 9.74733000E-03	-2.71625000E-03
					-7.67597000E-05	 5.42856000E-03	-3.77353000E-03
					-1.53310000E-04	 9.94380000E-03	 4.95962000E-03
					-3.88028000E-04	 9.81175000E-03	 4.98924000E-03
					 3.91691000E-05	 5.43771000E-03	 3.53195000E-03
					-8.28505000E-05	 9.76562000E-03	 2.37331000E-03
					 2.98142000E-05	 2.11079000E-02	-3.05912000E-04
					 1.96969000E-03	 2.12823000E-02	-8.72823000E-03
					 2.57439000E-05	 2.28044000E-02	-3.28499000E-04
					 1.48311000E-03	 2.29797000E-02	-8.75693000E-03
					 2.20480000E-05	 1.39550000E-02	-2.34155000E-04
					 9.99260000E-04	 2.11308000E-02	-4.57769000E-03
					 1.49725000E-03	 1.41589000E-02	-6.99933000E-03
					 2.83294000E-05	 2.20192000E-02	-3.17973000E-04
					 1.72652000E-03	 2.21943000E-02	-8.67022000E-03
					 1.46345000E-05	 1.51860000E-02	-2.42622000E-04
					 7.53360000E-04	 2.28279000E-02	-4.52951000E-03
					 1.00103000E-03	 1.53879000E-02	-7.00618000E-03
					-1.90900000E-03	 2.14242000E-02	 8.10928000E-03
					-1.42866000E-03	 2.31154000E-02	 8.09292000E-03
					-1.45305000E-03	 1.42424000E-02	 6.52648000E-03
					-9.39802000E-04	 2.12041000E-02	 3.96370000E-03
					-1.66765000E-03	 2.23311000E-02	 8.02788000E-03
					-9.70080000E-04	 1.54672000E-02	 6.51632000E-03
					-7.01249000E-04	 2.28959000E-02	 3.87086000E-03
					 1.79589000E-05	 2.40194000E-02	-3.41874000E-04
					 9.81033000E-04	 2.41885000E-02	-8.76406000E-03
					 2.23208000E-05	 2.34735000E-02	-3.36812000E-04
					 1.23224000E-03	 2.36473000E-02	-8.84238000E-03
					 4.92729000E-06	 1.59261000E-02	-2.43390000E-04
					 5.01608000E-04	 2.40414000E-02	-4.46049000E-03
					 4.88055000E-04	 1.61194000E-02	-7.00868000E-03
					-9.39867000E-04	 2.43169000E-02	 8.07365000E-03
					-1.18379000E-03	 2.37823000E-02	 8.16108000E-03
					-4.74697000E-04	 1.61947000E-02	 6.51721000E-03
					-4.64108000E-04	 2.41031000E-02	 3.77574000E-03
					 3.39410000E-05	 4.01277000E-02	-5.10991000E-04
					 3.09638000E-03	 4.01821000E-02	-1.18798000E-02
					 3.80256000E-05	 4.29969000E-02	-5.77664000E-04
					 2.72010000E-03	 4.30550000E-02	-1.19603000E-02
					 3.44040000E-05	 2.98897000E-02	-3.97225000E-04
					 1.56495000E-03	 4.01058000E-02	-6.26004000E-03
					 2.50198000E-03	 3.00084000E-02	-1.03748000E-02
					 3.67368000E-05	 4.16102000E-02	-5.45250000E-04
					 2.90888000E-03	 4.16677000E-02	-1.18278000E-02
					 3.35785000E-05	 3.21379000E-02	-4.39339000E-04
					 1.37820000E-03	 4.29788000E-02	-6.23916000E-03
					 2.06450000E-03	 3.22571000E-02	-1.04289000E-02
					-3.02492000E-03	 4.04575000E-02	 1.08486000E-02
					-2.63904000E-03	 4.33209000E-02	 1.07959000E-02
					-2.43082000E-03	 3.02148000E-02	 9.57165000E-03
					-1.49649000E-03	 4.02467000E-02	 5.23532000E-03
					-2.83100000E-03	 4.19345000E-02	 1.07289000E-02
					-1.99326000E-03	 3.24556000E-02	 9.54167000E-03
					-1.30099000E-03	 4.31108000E-02	 5.08162000E-03
					 3.66416000E-05	 4.54852000E-02	-6.34501000E-04
					 2.33540000E-03	 4.55471000E-02	-1.20034000E-02
					 3.79987000E-05	 4.42884000E-02	-6.07679000E-04
					 2.52827000E-03	 4.43464000E-02	-1.20925000E-02
					 2.80524000E-05	 3.39467000E-02	-4.71550000E-04
					 1.18579000E-03	 4.54714000E-02	-6.18167000E-03
					 1.61144000E-03	 3.40630000E-02	-1.04490000E-02
					-2.25545000E-03	 4.58013000E-02	 1.07256000E-02
					-2.44661000E-03	 4.46117000E-02	 1.08675000E-02
					-1.54930000E-03	 3.42518000E-02	 9.49771000E-03
					-1.11063000E-03	 4.55925000E-02	 4.91101000E-03
					 1.47700000E-05	 6.41787000E-02	-8.08126000E-04
					 4.30572000E-03	 6.41048000E-02	-1.42959000E-02
					 2.95647000E-05	 6.83301000E-02	-9.32104000E-04
					 4.05391000E-03	 6.82663000E-02	-1.44306000E-02
					 2.79884000E-05	 5.16216000E-02	-6.47735000E-04
					 2.15884000E-03	 6.41075000E-02	-7.61810000E-03
					 3.71544000E-03	 5.16111000E-02	-1.31707000E-02
					 2.28413000E-05	 6.62861000E-02	-8.71069000E-04
					 4.18085000E-03	 6.62210000E-02	-1.42778000E-02
					 3.70424000E-05	 5.51455000E-02	-7.42647000E-04
					 2.04172000E-03	 6.82669000E-02	-7.66031000E-03
					 3.40603000E-03	 5.51415000E-02	-1.32795000E-02
					-4.27125000E-03	 6.45049000E-02	 1.26723000E-02
					-3.98910000E-03	 6.86556000E-02	 1.25590000E-02
					-3.65486000E-03	 5.19507000E-02	 1.18663000E-02
					-2.12822000E-03	 6.43112000E-02	 5.99987000E-03
					-4.12973000E-03	 6.66112000E-02	 1.25286000E-02
					-3.32633000E-03	 5.54705000E-02	 1.17854000E-02
					-1.98115000E-03	 6.84605000E-02	 5.79422000E-03
					 3.87372000E-05	 7.22181000E-02	-1.04837000E-03
					 3.80850000E-03	 7.21676000E-02	-1.45365000E-02
					 3.48739000E-05	 7.03072000E-02	-9.91217000E-04
					 3.93228000E-03	 7.02448000E-02	-1.45812000E-02
					 4.04449000E-05	 5.83514000E-02	-8.28726000E-04
					 1.92108000E-03	 7.21643000E-02	-7.67565000E-03
					 3.09532000E-03	 5.83566000E-02	-1.33520000E-02
					-3.72461000E-03	 7.25449000E-02	 1.24324000E-02
					-3.85661000E-03	 7.06336000E-02	 1.25912000E-02
					-3.00757000E-03	 5.86732000E-02	 1.16859000E-02
					-1.84181000E-03	 7.23465000E-02	 5.57714000E-03
					-2.48118000E-05	 9.20545000E-02	-1.19869000E-03
					 5.13047000E-03	 9.18888000E-02	-1.61724000E-02
					-8.92826000E-07	 9.71007000E-02	-1.37212000E-03
					 4.95721000E-03	 9.69492000E-02	-1.63547000E-02
					-3.16504000E-06	 7.76755000E-02	-9.92139000E-04
					 2.55019000E-03	 9.19464000E-02	-8.70962000E-03
					 4.79880000E-03	 7.75507000E-02	-1.52807000E-02
					-1.20630000E-05	 9.46007000E-02	-1.28602000E-03
					 5.04513000E-03	 9.44460000E-02	-1.62245000E-02
					 1.66714000E-05	 8.23511000E-02	-1.14238000E-03
					 2.47837000E-03	 9.70012000E-02	-8.84725000E-03
					 4.58569000E-03	 8.22417000E-02	-1.54392000E-02
					-5.17509000E-03	 9.23921000E-02	 1.37709000E-02
					-4.95315000E-03	 9.74415000E-02	 1.36057000E-02
					-4.80030000E-03	 7.80047000E-02	 1.32908000E-02
					-2.59871000E-03	 9.21995000E-02	 6.31133000E-03
					-5.06384000E-03	 9.49415000E-02	 1.36480000E-02
					-4.54666000E-03	 8.26850000E-02	 1.31482000E-02
					-2.47873000E-03	 9.72465000E-02	 6.10190000E-03
					 1.72789000E-05	 1.01958000E-01	-1.54009000E-03
					 4.79454000E-03	 1.01821000E-01	-1.65147000E-02
					 8.92112000E-06	 9.95542000E-02	-1.45692000E-03
					 4.87700000E-03	 9.94058000E-02	-1.64827000E-02
					 3.09252000E-05	 8.68031000E-02	-1.28613000E-03
					 2.40385000E-03	 1.01868000E-01	-8.96466000E-03
					 4.38847000E-03	 8.67108000E-02	-1.55755000E-02
					-4.75317000E-03	 1.02300000E-01	 1.34294000E-02
					-4.85282000E-03	 9.98950000E-02	 1.35638000E-02
					-4.32011000E-03	 8.71424000E-02	 1.29965000E-02
					-2.36757000E-03	 1.02104000E-01	 5.88333000E-03
					-9.03355000E-05	 1.23016000E-01	-1.66979000E-03
					 5.35621000E-03	 1.22772000E-01	-1.76087000E-02
					-6.26658000E-05	 1.28408000E-01	-1.87996000E-03
					 5.28857000E-03	 1.28171000E-01	-1.78328000E-02
					-5.28303000E-05	 1.07228000E-01	-1.42515000E-03
					 2.63230000E-03	 1.22883000E-01	-9.62265000E-03
					 5.30424000E-03	 1.07020000E-01	-1.69584000E-02
					-7.58149000E-05	 1.25723000E-01	-1.77617000E-03
					 5.32361000E-03	 1.25484000E-01	-1.77143000E-02
					-2.67398000E-05	 1.12498000E-01	-1.61923000E-03
					 2.61324000E-03	 1.28279000E-01	-9.83138000E-03
					 5.17734000E-03	 1.12302000E-01	-1.71642000E-02
					-5.53353000E-03	 1.23343000E-01	 1.42659000E-02
					-5.41009000E-03	 1.28736000E-01	 1.40700000E-02
					-5.40542000E-03	 1.07563000E-01	 1.41048000E-02
					-2.81221000E-03	 1.23168000E-01	 6.28232000E-03
					-5.47164000E-03	 1.26051000E-01	 1.41587000E-02
					-5.22553000E-03	 1.12835000E-01	 1.39223000E-02
					-2.73761000E-03	 1.28560000E-01	 6.07060000E-03
					-3.84944000E-05	 1.33705000E-01	-2.08563000E-03
					 5.22676000E-03	 1.33479000E-01	-1.80280000E-02
					-5.03520000E-05	 1.31068000E-01	-1.98250000E-03
					 5.25797000E-03	 1.30835000E-01	-1.79516000E-02
					-5.50097000E-06	 1.17622000E-01	-1.80876000E-03
					 2.59289000E-03	 1.33582000E-01	-1.00124000E-02
					 5.05846000E-03	 1.17438000E-01	-1.73432000E-02
					-5.29947000E-03	 1.34035000E-01	 1.38542000E-02
					-5.35465000E-03	 1.31397000E-01	 1.39844000E-02
					-5.06310000E-03	 1.17959000E-01	 1.37223000E-02
					-2.66878000E-03	 1.33858000E-01	 5.83994000E-03
					-1.79185000E-04	 1.55391000E-01	-2.19226000E-03
					 5.28011000E-03	 1.55106000E-01	-1.83661000E-02
					-1.46556000E-04	 1.60857000E-01	-2.41259000E-03
					 5.30931000E-03	 1.60575000E-01	-1.86041000E-02
					-1.34082000E-04	 1.39165000E-01	-1.92892000E-03
					 2.54884000E-03	 1.55251000E-01	-1.02704000E-02
					 5.33818000E-03	 1.38892000E-01	-1.80566000E-02
					-1.63295000E-04	 1.58122000E-01	-2.30308000E-03
					 5.29556000E-03	 1.57839000E-01	-1.84871000E-02
					-1.04669000E-04	 1.44612000E-01	-2.14714000E-03
					 2.58008000E-03	 1.60719000E-01	-1.05012000E-02
					 5.32784000E-03	 1.44343000E-01	-1.82903000E-02
					-5.63549000E-03	 1.55686000E-01	 1.39778000E-02
					-5.60172000E-03	 1.61154000E-01	 1.37756000E-02
					-5.60345000E-03	 1.39473000E-01	 1.41950000E-02
					-2.90623000E-03	 1.55540000E-01	 5.88462000E-03
					-5.61995000E-03	 1.58418000E-01	 1.38774000E-02
					-5.53548000E-03	 1.44921000E-01	 1.39929000E-02
					-2.87273000E-03	 1.61007000E-01	 5.67484000E-03
					-1.14387000E-04	 1.66307000E-01	-2.62756000E-03
					 5.34462000E-03	 1.66032000E-01	-1.88147000E-02
					-1.30261000E-04	 1.63583000E-01	-2.52046000E-03
					 5.32609000E-03	 1.63303000E-01	-1.87155000E-02
					-7.67012000E-05	 1.50019000E-01	-2.36024000E-03
					 2.61444000E-03	 1.66171000E-01	-1.07101000E-02
					 5.31916000E-03	 1.49756000E-01	-1.84969000E-02
					-5.57529000E-03	 1.66613000E-01	 1.35564000E-02
					-5.58747000E-03	 1.63883000E-01	 1.36717000E-02
					-5.47220000E-03	 1.50332000E-01	 1.37736000E-02
					-2.84341000E-03	 1.66461000E-01	 5.45359000E-03
					 0.00000000E+00	 0.00000000E+00	 0.00000000E+00
					 0.00000000E+00	 0.00000000E+00	 0.00000000E+00
					-1.31473000E-04	-8.98311000E-03	 2.14240000E-04
					-1.80498000E-03	-9.57987000E-03	 8.80617000E-03
					 0.00000000E+00	 0.00000000E+00	 0.00000000E+00
					 0.00000000E+00	 0.00000000E+00	 0.00000000E+00
					-9.82562000E-05	-1.01144000E-02	 1.05335000E-04
					-6.94917000E-04	-1.07373000E-02	 8.80197000E-03
					 0.00000000E+00	 0.00000000E+00	 0.00000000E+00
					-5.48393000E-05	-1.99501000E-03	 1.15818000E-04
					-9.72409000E-04	-9.08813000E-03	 4.45190000E-03
					-1.61777000E-03	-2.80191000E-03	 4.55471000E-03
					 0.00000000E+00	 0.00000000E+00	 0.00000000E+00
					 0.00000000E+00	 0.00000000E+00	 0.00000000E+00
					-1.12014000E-04	-9.73455000E-03	 1.55328000E-04
					-1.23902000E-03	-1.03425000E-02	 8.74591000E-03
					 0.00000000E+00	 0.00000000E+00	 0.00000000E+00
					-2.59525000E-05	-2.84448000E-03	 5.72340000E-05
					-3.99061000E-04	-1.02246000E-02	 4.33408000E-03
					-2.95307000E-04	-3.63535000E-03	 4.38217000E-03
					 0.00000000E+00	 0.00000000E+00	 0.00000000E+00
					 1.54417000E-03	-9.32976000E-03	-8.40572000E-03
					 0.00000000E+00	 0.00000000E+00	 0.00000000E+00
					 5.10558000E-04	-1.05028000E-02	-8.61970000E-03
					 0.00000000E+00	 0.00000000E+00	 0.00000000E+00
					 1.51294000E-03	-2.65658000E-03	-4.32031000E-03
					 7.08496000E-04	-8.96284000E-03	-4.03386000E-03
					 0.00000000E+00	 0.00000000E+00	 0.00000000E+00
					 1.02303000E-03	-1.00981000E-02	-8.46322000E-03
					 0.00000000E+00	 0.00000000E+00	 0.00000000E+00
					 2.56388000E-04	-3.52029000E-03	-4.26345000E-03
					 2.03206000E-04	-1.01078000E-02	-4.13452000E-03
					 0.00000000E+00	 0.00000000E+00	 0.00000000E+00
					 0.00000000E+00	 0.00000000E+00	 0.00000000E+00
					-7.70983000E-05	-1.01840000E-02	 1.74195000E-05
					 4.14334000E-04	-1.07486000E-02	 8.61469000E-03
					 0.00000000E+00	 0.00000000E+00	 0.00000000E+00
					 0.00000000E+00	 0.00000000E+00	 0.00000000E+00
					-8.55895000E-05	-1.03338000E-02	 5.81753000E-05
					-1.45993000E-04	-1.09246000E-02	 8.76966000E-03
					 0.00000000E+00	 0.00000000E+00	 0.00000000E+00
					-1.33382000E-05	-2.54466000E-03	 2.23485000E-05
					 1.67142000E-04	-1.02713000E-02	 4.13817000E-03
					 1.03357000E-03	-3.30038000E-03	 4.46028000E-03
					 0.00000000E+00	 0.00000000E+00	 0.00000000E+00
					-5.48972000E-04	-1.05423000E-02	-8.60107000E-03
					 0.00000000E+00	 0.00000000E+00	 0.00000000E+00
					-1.14911000E-05	-1.07060000E-02	-8.67882000E-03
					 0.00000000E+00	 0.00000000E+00	 0.00000000E+00
					-1.04187000E-03	-3.21031000E-03	-4.41635000E-03
					-3.16193000E-04	-1.01710000E-02	-4.11074000E-03
					-3.82978000E-04	-3.33849000E-02	 1.79107000E-04
					-2.62801000E-03	-3.40352000E-02	 1.51579000E-02
					-3.44108000E-04	-3.52381000E-02	-1.80491000E-05
					-1.81927000E-03	-3.58793000E-02	 1.50021000E-02
					-2.41650000E-04	-1.95931000E-02	 2.38124000E-04
					-1.50776000E-03	-3.36258000E-02	 7.64578000E-03
					-2.18641000E-03	-2.02909000E-02	 1.23175000E-02
					-3.63044000E-04	-3.43973000E-02	 7.49823000E-05
					-2.22263000E-03	-3.50386000E-02	 1.50256000E-02
					-2.08276000E-04	-2.10673000E-02	 8.15195000E-05
					-1.07629000E-03	-3.54730000E-02	 7.41993000E-03
					-1.20368000E-03	-2.17473000E-02	 1.22039000E-02
					 1.86881000E-03	-3.34868000E-02	-1.48310000E-02
					 1.13331000E-03	-3.53524000E-02	-1.50666000E-02
					 1.70334000E-03	-1.99002000E-02	-1.18754000E-02
					 7.42578000E-04	-3.33526000E-02	-7.29530000E-03
					 1.50356000E-03	-3.45079000E-02	-1.49030000E-02
					 7.96773000E-04	-2.13760000E-02	-1.20734000E-02
					 3.93215000E-04	-3.52136000E-02	-7.45967000E-03
					-3.18802000E-04	-3.63278000E-02	-1.89242000E-04
					-9.86133000E-04	-3.69284000E-02	 1.47911000E-02
					-3.30563000E-04	-3.58647000E-02	-1.04298000E-04
					-1.40000000E-03	-3.65235000E-02	 1.49889000E-02
					-1.86891000E-04	-2.15890000E-02	-4.91801000E-05
					-6.62084000E-04	-3.65360000E-02	 7.13761000E-03
					-2.17655000E-04	-2.22476000E-02	 1.20336000E-02
					 3.82636000E-04	-3.64368000E-02	-1.51967000E-02
					 7.57461000E-04	-3.59806000E-02	-1.52281000E-02
					-1.27339000E-04	-2.19089000E-02	-1.21602000E-02
					 3.43425000E-05	-3.62991000E-02	-7.51816000E-03
					-6.77373000E-04	-6.79095000E-02	-1.95369000E-04
					-3.78591000E-03	-6.84315000E-02	 1.85705000E-02
					-6.35922000E-04	-7.08040000E-02	-4.31515000E-04
					-3.37955000E-03	-7.14317000E-02	 1.83819000E-02
					-5.30962000E-04	-4.97137000E-02	 3.29836000E-05
					-2.22714000E-03	-6.81224000E-02	 9.17037000E-03
					-3.15609000E-03	-5.03343000E-02	 1.72439000E-02
					-6.55217000E-04	-6.94066000E-02	-3.12410000E-04
					-3.58487000E-03	-6.99910000E-02	 1.83862000E-02
					-4.92552000E-04	-5.20442000E-02	-1.91761000E-04
					-2.03126000E-03	-7.10711000E-02	 8.85613000E-03
					-2.54510000E-03	-5.26662000E-02	 1.70720000E-02
					 2.39237000E-03	-6.76938000E-02	-1.89634000E-02
					 2.10526000E-03	-7.05975000E-02	-1.92803000E-02
					 2.08905000E-03	-4.96607000E-02	-1.72039000E-02
					 8.59418000E-04	-6.77576000E-02	-9.55435000E-03
					 2.24696000E-03	-6.91896000E-02	-1.90413000E-02
					 1.56536000E-03	-5.19839000E-02	-1.74800000E-02
					 7.35532000E-04	-7.06636000E-02	-9.74295000E-03
					-6.02389000E-04	-7.33660000E-02	-6.58575000E-04
					-3.06485000E-03	-7.41026000E-02	 1.81041000E-02
					-6.18291000E-04	-7.21433000E-02	-5.47781000E-04
					-3.22429000E-03	-7.27030000E-02	 1.83925000E-02
					-4.53553000E-04	-5.38061000E-02	-3.96483000E-04
					-1.80427000E-03	-7.36877000E-02	 8.45340000E-03
					-1.95438000E-03	-5.44390000E-02	 1.68198000E-02
					 1.81639000E-03	-7.31815000E-02	-1.94820000E-02
					 1.96111000E-03	-7.19261000E-02	-1.95246000E-02
					 1.01342000E-03	-5.37388000E-02	-1.76376000E-02
					 6.00531000E-04	-7.32493000E-02	-9.81758000E-03
					-8.58678000E-04	-1.06521000E-01	-7.93250000E-04
					-5.10969000E-03	-1.06774000E-01	 1.85828000E-02