<?xml version="1.0"?>
<VTKFile type="UnstructuredGrid" version="0.1" byte_order="LittleEndian">
	<UnstructuredGrid>
		<Piece NumberOfPoints="522" NumberOfCells="64">
			<Points>
				<DataArray type="Float64" NumberOfComponents="3" format="ascii">
					 1.00000000E+00	 1.00000000E+00	-5.96046000E-08
					 1.00000000E+00	 5.00000000E-01	-5.96046000E-08
					 1.00000000E+00	 5.00000000E-01	 1.00000000E+00
					 1.00000000E+00	 1.00000000E+00	 1.00000000E+00
					 5.00000000E-01	 1.00000000E+00	-5.96046000E-08
					 5.00000000E-01	 5.00000000E-01	-5.96046000E-08
					 5.00000000E-01	 5.00000000E-01	 1.00000000E+00
					 5.00000000E-01	 1.00000000E+00	 1.00000000E+00
					 1.00000000E+00	 7.50000000E-01	-5.96046000E-08
					 1.00000000E+00	 5.00000000E-01	 5.00000000E-01
					 1.00000000E+00	 7.50000000E-01	 1.00000000E+00
					 1.00000000E+00	 1.00000000E+00	 5.00000000E-01
					 7.50000000E-01	 1.00000000E+00	-5.96046000E-08
					 7.50000000E-01	 5.00000000E-01	-5.96046000E-08
					 7.50000000E-01	 5.00000000E-01	 1.00000000E+00
					 7.50000000E-01	 1.00000000E+00	 1.00000000E+00
					 5.00000000E-01	 7.50000000E-01	-5.96046000E-08
					 5.00000000E-01	 5.00000000E-01	 5.00000000E-01
					 5.00000000E-01	 7.50000000E-01	 1.00000000E+00
					 5.00000000E-01	 1.00000000E+00	 5.00000000E-01
					 1.00000000E+00	-1.49012000E-08	-5.96046000E-08
					 1.00000000E+00	-1.49012000E-08	 1.00000000E+00
					 5.00000000E-01	-1.49012000E-08	-5.96046000E-08
					 5.00000000E-01	-1.49012000E-08	 1.00000000E+00
					 1.00000000E+00	 2.50000000E-01	-5.96046000E-08
					 1.00000000E+00	-1.49012000E-08	 5.00000000E-01
					 1.00000000E+00	 2.50000000E-01	 1.00000000E+00
					 7.50000000E-01	-1.49012000E-08	-5.96046000E-08
					 7.50000000E-01	-1.49012000E-08	 1.00000000E+00
					 5.00000000E-01	 2.50000000E-01	-5.96046000E-08
					 5.00000000E-01	-1.49012000E-08	 5.00000000E-01
					 5.00000000E-01	 2.50000000E-01	 1.00000000E+00
					-7.45058000E-09	 1.00000000E+00	-5.96046000E-08
					-7.45058000E-09	 5.00000000E-01	-5.96046000E-08
					-7.45058000E-09	 5.00000000E-01	 1.00000000E+00
					-7.45058000E-09	 1.00000000E+00	 1.00000000E+00
					 2.50000000E-01	 1.00000000E+00	-5.96046000E-08
					 2.50000000E-01	 5.00000000E-01	-5.96046000E-08
					 2.50000000E-01	 5.00000000E-01	 1.00000000E+00
					 2.50000000E-01	 1.00000000E+00	 1.00000000E+00
					-7.45058000E-09	 7.50000000E-01	-5.96046000E-08
					-7.45058000E-09	 5.00000000E-01	 5.00000000E-01
					-7.45058000E-09	 7.50000000E-01	 1.00000000E+00
					-7.45058000E-09	 1.00000000E+00	 5.00000000E-01
					-7.45058000E-09	-1.49012000E-08	-5.96046000E-08
					-7.45058000E-09	-1.49012000E-08	 1.00000000E+00
					 2.50000000E-01	-1.49012000E-08	-5.96046000E-08
					 2.50000000E-01	-1.49012000E-08	 1.00000000E+00
					-7.45058000E-09	 2.50000000E-01	-5.96046000E-08
					-7.45058000E-09	-1.49012000E-08	 5.00000000E-01
					-7.45058000E-09	 2.50000000E-01	 1.00000000E+00
					 1.00000000E+00	 5.00000000E-01	 2.00000000E+00
					 1.00000000E+00	 1.00000000E+00	 2.00000000E+00
					 5.00000000E-01	 5.00000000E-01	 2.00000000E+00
					 5.00000000E-01	 1.00000000E+00	 2.00000000E+00
					 1.00000000E+00	 5.00000000E-01	 1.50000000E+00
					 1.00000000E+00	 7.50000000E-01	 2.00000000E+00
					 1.00000000E+00	 1.00000000E+00	 1.50000000E+00
					 7.50000000E-01	 5.00000000E-01	 2.00000000E+00
					 7.50000000E-01	 1.00000000E+00	 2.00000000E+00
					 5.00000000E-01	 5.00000000E-01	 1.50000000E+00
					 5.00000000E-01	 7.50000000E-01	 2.00000000E+00
					 5.00000000E-01	 1.00000000E+00	 1.50000000E+00
					 1.00000000E+00	-1.49012000E-08	 2.00000000E+00
					 5.00000000E-01	-1.49012000E-08	 2.00000000E+00
					 1.00000000E+00	-1.49012000E-08	 1.50000000E+00
					 1.00000000E+00	 2.50000000E-01	 2.00000000E+00
					 7.50000000E-01	-1.49012000E-08	 2.00000000E+00
					 5.00000000E-01	-1.49012000E-08	 1.50000000E+00
					 5.00000000E-01	 2.50000000E-01	 2.00000000E+00
					-7.45058000E-09	 5.00000000E-01	 2.00000000E+00
					-7.45058000E-09	 1.00000000E+00	 2.00000000E+00
					 2.50000000E-01	 5.00000000E-01	 2.00000000E+00
					 2.50000000E-01	 1.00000000E+00	 2.00000000E+00
					-7.45058000E-09	 5.00000000E-01	 1.50000000E+00
					-7.45058000E-09	 7.50000000E-01	 2.00000000E+00
					-7.45058000E-09	 1.00000000E+00	 1.50000000E+00
					-7.45058000E-09	-1.49012000E-08	 2.00000000E+00
					 2.50000000E-01	-1.49012000E-08	 2.00000000E+00
					-7.45058000E-09	-1.49012000E-08	 1.50000000E+00
					-7.45058000E-09	 2.50000000E-01	 2.00000000E+00
					 1.00000000E+00	 5.00000000E-01	 3.00000000E+00
					 1.00000000E+00	 1.00000000E+00	 3.00000000E+00
					 5.00000000E-01	 5.00000000E-01	 3.00000000E+00
					 5.00000000E-01	 1.00000000E+00	 3.00000000E+00
					 1.00000000E+00	 5.00000000E-01	 2.50000000E+00
					 1.00000000E+00	 7.50000000E-01	 3.00000000E+00
					 1.00000000E+00	 1.00000000E+00	 2.50000000E+00
					 7.50000000E-01	 5.00000000E-01	 3.00000000E+00
					 7.50000000E-01	 1.00000000E+00	 3.00000000E+00
					 5.00000000E-01	 5.00000000E-01	 2.50000000E+00
					 5.00000000E-01	 7.50000000E-01	 3.00000000E+00
					 5.00000000E-01	 1.00000000E+00	 2.50000000E+00
					 1.00000000E+00	-1.49012000E-08	 3.00000000E+00
					 5.00000000E-01	-1.49012000E-08	 3.00000000E+00
					 1.00000000E+00	-1.49012000E-08	 2.50000000E+00
					 1.00000000E+00	 2.50000000E-01	 3.00000000E+00
					 7.50000000E-01	-1.49012000E-08	 3.00000000E+00
					 5.00000000E-01	-1.49012000E-08	 2.50000000E+00
					 5.00000000E-01	 2.50000000E-01	 3.00000000E+00
					-7.45058000E-09	 5.00000000E-01	 3.00000000E+00
					-7.45058000E-09	 1.00000000E+00	 3.00000000E+00
					 2.50000000E-01	 5.00000000E-01	 3.00000000E+00
					 2.50000000E-01	 1.00000000E+00	 3.00000000E+00
					-7.45058000E-09	 5.00000000E-01	 2.50000000E+00
					-7.45058000E-09	 7.50000000E-01	 3.00000000E+00
					-7.45058000E-09	 1.00000000E+00	 2.50000000E+00
					-7.45058000E-09	-1.49012000E-08	 3.00000000E+00
					 2.50000000E-01	-1.49012000E-08	 3.00000000E+00
					-7.45058000E-09	-1.49012000E-08	 2.50000000E+00
					-7.45058000E-09	 2.50000000E-01	 3.00000000E+00
					 1.00000000E+00	 5.00000000E-01	 4.00000000E+00
					 1.00000000E+00	 1.00000000E+00	 4.00000000E+00
					 5.00000000E-01	 5.00000000E-01	 4.00000000E+00
					 5.00000000E-01	 1.00000000E+00	 4.00000000E+00
					 1.00000000E+00	 5.00000000E-01	 3.50000000E+00
					 1.00000000E+00	 7.50000000E-01	 4.00000000E+00
					 1.00000000E+00	 1.00000000E+00	 3.50000000E+00
					 7.50000000E-01	 5.00000000E-01	 4.00000000E+00
					 7.50000000E-01	 1.00000000E+00	 4.00000000E+00
					 5.00000000E-01	 5.00000000E-01	 3.50000000E+00
					 5.00000000E-01	 7.50000000E-01	 4.00000000E+00
					 5.00000000E-01	 1.00000000E+00	 3.50000000E+00
					 1.00000000E+00	-1.49012000E-08	 4.00000000E+00
					 5.00000000E-01	-1.49012000E-08	 4.00000000E+00
					 1.00000000E+00	-1.49012000E-08	 3.50000000E+00
					 1.00000000E+00	 2.50000000E-01	 4.00000000E+00
					 7.50000000E-01	-1.49012000E-08	 4.00000000E+00
					 5.00000000E-01	-1.49012000E-08	 3.50000000E+00
					 5.00000000E-01	 2.50000000E-01	 4.00000000E+00
					-7.45058000E-09	 5.00000000E-01	 4.00000000E+00
					-7.45058000E-09	 1.00000000E+00	 4.00000000E+00
					 2.50000000E-01	 5.00000000E-01	 4.00000000E+00
					 2.50000000E-01	 1.00000000E+00	 4.00000000E+00
					-7.45058000E-09	 5.00000000E-01	 3.50000000E+00
					-7.45058000E-09	 7.50000000E-01	 4.00000000E+00
					-7.45058000E-09	 1.00000000E+00	 3.50000000E+00
					-7.45058000E-09	-1.49012000E-08	 4.00000000E+00
					 2.50000000E-01	-1.49012000E-08	 4.00000000E+00
					-7.45058000E-09	-1.49012000E-08	 3.50000000E+00
					-7.45058000E-09	 2.50000000E-01	 4.00000000E+00
					 1.00000000E+00	 5.00000000E-01	 5.00000000E+00
					 1.00000000E+00	 1.00000000E+00	 5.00000000E+00
					 5.00000000E-01	 5.00000000E-01	 5.00000000E+00
					 5.00000000E-01	 1.00000000E+00	 5.00000000E+00
					 1.00000000E+00	 5.00000000E-01	 4.50000000E+00
					 1.00000000E+00	 7.50000000E-01	 5.00000000E+00
					 1.00000000E+00	 1.00000000E+00	 4.50000000E+00
					 7.50000000E-01	 5.00000000E-01	 5.00000000E+00
					 7.50000000E-01	 1.00000000E+00	 5.00000000E+00
					 5.00000000E-01	 5.00000000E-01	 4.50000000E+00
					 5.00000000E-01	 7.50000000E-01	 5.00000000E+00
					 5.00000000E-01	 1.00000000E+00	 4.50000000E+00
					 1.00000000E+00	-1.49012000E-08	 5.00000000E+00
					 5.00000000E-01	-1.49012000E-08	 5.00000000E+00
					 1.00000000E+00	-1.49012000E-08	 4.50000000E+00
					 1.00000000E+00	 2.50000000E-01	 5.00000000E+00
					 7.50000000E-01	-1.49012000E-08	 5.00000000E+00
					 5.00000000E-01	-1.49012000E-08	 4.50000000E+00
					 5.00000000E-01	 2.50000000E-01	 5.00000000E+00
					-7.45058000E-09	 5.00000000E-01	 5.00000000E+00
					-7.45058000E-09	 1.00000000E+00	 5.00000000E+00
					 2.50000000E-01	 5.00000000E-01	 5.00000000E+00
					 2.50000000E-01	 1.00000000E+00	 5.00000000E+00
					-7.45058000E-09	 5.00000000E-01	 4.50000000E+00
					-7.45058000E-09	 7.50000000E-01	 5.00000000E+00
					-7.45058000E-09	 1.00000000E+00	 4.50000000E+00
					-7.45058000E-09	-1.49012000E-08	 5.00000000E+00
					 2.50000000E-01	-1.49012000E-08	 5.00000000E+00
					-7.45058000E-09	-1.49012000E-08	 4.50000000E+00
					-7.45058000E-09	 2.50000000E-01	 5.00000000E+00
					 1.00000000E+00	 5.00000000E-01	 6.00000000E+00
					 1.00000000E+00	 1.00000000E+00	 6.00000000E+00
					 5.00000000E-01	 5.00000000E-01	 6.00000000E+00
					 5.00000000E-01	 1.00000000E+00	 6.00000000E+00
					 1.00000000E+00	 5.00000000E-01	 5.50000000E+00
					 1.00000000E+00	 7.50000000E-01	 6.00000000E+00
					 1.00000000E+00	 1.00000000E+00	 5.50000000E+00
					 7.50000000E-01	 5.00000000E-01	 6.00000000E+00
					 7.50000000E-01	 1.00000000E+00	 6.00000000E+00
					 5.00000000E-01	 5.00000000E-01	 5.50000000E+00
					 5.00000000E-01	 7.50000000E-01	 6.00000000E+00
					 5.00000000E-01	 1.00000000E+00	 5.50000000E+00
					 1.00000000E+00	-1.49012000E-08	 6.00000000E+00
[...]
			<PointData>
				<DataArray type="Float32" Name="U" NumberOfComponents="3" ComponentName0="D1" ComponentName1="D2" ComponentName2="D3" format="ascii">
					 0.00000000E+00	 0.00000000E+00	 0.00000000E+00
					 0.00000000E+00	 0.00000000E+00	 0.00000000E+00
					-5.69349000E-06	 3.36233000E-03	 1.66370000E-05
					 9.28542000E-04	 3.55334000E-03	-3.65057000E-03
					 0.00000000E+00	 0.00000000E+00	 0.00000000E+00
					 0.00000000E+00	 0.00000000E+00	 0.00000000E+00
					-2.47528000E-06	 4.04749000E-03	 1.07135000E-05
					 4.48608000E-04	 4.25760000E-03	-3.70007000E-03
					 0.00000000E+00	 0.00000000E+00	 0.00000000E+00
					-3.42637000E-06	 5.57857000E-04	 1.09037000E-05
					 4.62036000E-04	 3.37223000E-03	-1.80892000E-03
					 7.81076000E-04	 8.62559000E-04	-1.83460000E-03
					 0.00000000E+00	 0.00000000E+00	 0.00000000E+00
					 0.00000000E+00	 0.00000000E+00	 0.00000000E+00
					-3.95157000E-06	 3.78619000E-03	 1.30037000E-05
					 6.85672000E-04	 3.98648000E-03	-3.64026000E-03
					 0.00000000E+00	 0.00000000E+00	 0.00000000E+00
					-7.95441000E-07	 1.04242000E-03	 7.12821000E-06
					 2.22796000E-04	 4.06350000E-03	-1.79843000E-03
					 2.37915000E-04	 1.34482000E-03	-1.78563000E-03
					 0.00000000E+00	 0.00000000E+00	 0.00000000E+00
					-9.41600000E-04	 3.59222000E-03	 3.67825000E-03
					 0.00000000E+00	 0.00000000E+00	 0.00000000E+00
					-4.52986000E-04	 4.29690000E-03	 3.71561000E-03
					 0.00000000E+00	 0.00000000E+00	 0.00000000E+00
					-7.88741000E-04	 8.82281000E-04	 1.85603000E-03
					-4.73981000E-04	 3.39219000E-03	 1.84024000E-03
					 0.00000000E+00	 0.00000000E+00	 0.00000000E+00
					-6.93775000E-04	 4.02569000E-03	 3.66071000E-03
					 0.00000000E+00	 0.00000000E+00	 0.00000000E+00
					-2.38732000E-04	 1.36283000E-03	 1.80040000E-03
					-2.27593000E-04	 4.08328000E-03	 1.81782000E-03
					 0.00000000E+00	 0.00000000E+00	 0.00000000E+00
					 0.00000000E+00	 0.00000000E+00	 0.00000000E+00
					 4.02460000E-07	 4.26388000E-03	 8.22679000E-06
					-3.14911000E-05	 4.45602000E-03	-3.65852000E-03
					 0.00000000E+00	 0.00000000E+00	 0.00000000E+00
					 0.00000000E+00	 0.00000000E+00	 0.00000000E+00
					-1.04121000E-06	 4.23654000E-03	 8.92993000E-06
					 2.11372000E-04	 4.43809000E-03	-3.71858000E-03
					 0.00000000E+00	 0.00000000E+00	 0.00000000E+00
					 1.17450000E-06	 1.03448000E-03	 6.77603000E-06
					-1.55213000E-05	 4.27464000E-03	-1.74280000E-03
					-3.21523000E-04	 1.32506000E-03	-1.83843000E-03
					 0.00000000E+00	 0.00000000E+00	 0.00000000E+00
					 3.48157000E-05	 4.49324000E-03	 3.67025000E-03
					 0.00000000E+00	 0.00000000E+00	 0.00000000E+00
					-2.12223000E-04	 4.47730000E-03	 3.73086000E-03
					 0.00000000E+00	 0.00000000E+00	 0.00000000E+00
					 3.26104000E-04	 1.34189000E-03	 1.85219000E-03
					 1.71867000E-05	 4.29271000E-03	 1.75784000E-03
					-1.93618000E-06	 1.41680000E-02	-2.07840000E-05
					 9.56310000E-04	 1.42540000E-02	-6.41254000E-03
					 1.87113000E-06	 1.49689000E-02	-2.86276000E-05
					 6.59216000E-04	 1.50661000E-02	-6.44554000E-03
					-4.92145000E-06	 7.99577000E-03	 6.16186000E-06
					 4.74963000E-04	 1.41798000E-02	-3.14945000E-03
					 1.00805000E-03	 8.16082000E-03	-5.19702000E-03
					 1.53909000E-07	 1.45998000E-02	-2.49491000E-05
					 8.08857000E-04	 1.46944000E-02	-6.44537000E-03
					-1.85721000E-06	 8.79717000E-03	-9.60426000E-07
					 3.31341000E-04	 1.49874000E-02	-3.18401000E-03
					 5.98054000E-04	 8.97146000E-03	-5.22954000E-03
					-9.59780000E-04	 1.43465000E-02	 6.36613000E-03
					-6.54566000E-04	 1.51578000E-02	 6.38287000E-03
					-1.01948000E-03	 8.22528000E-03	 5.20299000E-03
					-4.78786000E-04	 1.42243000E-02	 3.10687000E-03
					-8.07894000E-04	 1.47868000E-02	 6.39038000E-03
					-6.01285000E-04	 9.03632000E-03	 5.22086000E-03
					-3.27369000E-04	 1.50318000E-02	 3.12562000E-03
					 4.87045000E-06	 1.54817000E-02	-3.26136000E-05
					 3.74311000E-04	 1.55824000E-02	-6.42480000E-03
					 3.39329000E-06	 1.52584000E-02	-3.14001000E-05
					 5.16825000E-04	 1.53552000E-02	-6.45032000E-03
					 7.19954000E-07	 9.19503000E-03	-3.90936000E-06
					 1.88360000E-04	 1.55018000E-02	-3.16308000E-03
					 2.03597000E-04	 9.37695000E-03	-5.20726000E-03
					-3.63176000E-04	 1.56713000E-02	 6.35384000E-03
					-5.08888000E-04	 1.54461000E-02	 6.38193000E-03
					-1.99838000E-04	 9.43989000E-03	 5.19266000E-03
					-1.78237000E-04	 1.55444000E-02	 3.09669000E-03
					 6.51064000E-07	 2.93378000E-02	-1.09619000E-04
					 5.41043000E-04	 2.93013000E-02	-7.62558000E-03
					 4.07693000E-06	 2.98535000E-02	-1.18868000E-04
					 4.94016000E-04	 2.98185000E-02	-7.65939000E-03
					 1.31556000E-06	 2.14330000E-02	-6.01105000E-05
					 2.71210000E-04	 2.93143000E-02	-3.78393000E-03
					 7.93449000E-04	 2.14582000E-02	-7.20301000E-03
					 2.49579000E-06	 2.96023000E-02	-1.14649000E-04
					 5.17790000E-04	 2.95658000E-02	-7.68081000E-03
					 4.96465000E-06	 2.21348000E-02	-6.93020000E-05
					 2.49253000E-04	 2.98303000E-02	-3.84080000E-03
					 6.21801000E-04	 2.21648000E-02	-7.23975000E-03
					-5.39138000E-04	 2.94220000E-02	 7.40519000E-03
					-4.85248000E-04	 2.99388000E-02	 7.42068000E-03
					-7.89961000E-04	 2.15695000E-02	 7.07933000E-03
					-2.69774000E-04	 2.93719000E-02	 3.56443000E-03
					-5.12183000E-04	 2.96875000E-02	 7.45032000E-03
					-6.10848000E-04	 2.22749000E-02	 7.09757000E-03
					-2.40958000E-04	 2.98889000E-02	 3.60273000E-03
					 6.89854000E-06	 3.03169000E-02	-1.27239000E-04
					 4.53006000E-04	 3.02881000E-02	-7.64312000E-03
					 5.53603000E-06	 3.00923000E-02	-1.22857000E-04
					 4.73718000E-04	 3.00589000E-02	-7.63930000E-03
					 7.80242000E-06	 2.26654000E-02	-7.60200000E-05
					 2.28325000E-04	 3.02967000E-02	-3.85118000E-03
					 4.60615000E-04	 2.27040000E-02	-7.21908000E-03
					-4.38398000E-04	 3.04062000E-02	 7.38775000E-03
					-4.61929000E-04	 3.01778000E-02	 7.39281000E-03
					-4.43590000E-04	 2.28109000E-02	 7.06332000E-03
					-2.14368000E-04	 3.03546000E-02	 3.59626000E-03
					-4.90407000E-06	 4.52223000E-02	-2.16544000E-04
					-3.93694000E-05	 4.51127000E-02	-7.41763000E-03
					-2.22471000E-06	 4.52535000E-02	-2.17577000E-04
					 8.52922000E-05	 4.51390000E-02	-7.42958000E-03
					-2.44039000E-06	 3.73984000E-02	-1.64142000E-04
					-2.06929000E-05	 4.51850000E-02	-3.75897000E-03
					 2.49791000E-04	 3.73219000E-02	-7.65488000E-03
					-3.59805000E-06	 4.52223000E-02	-2.17046000E-04
					 2.29647000E-05	 4.51083000E-02	-7.46146000E-03
					 5.34445000E-07	 3.76770000E-02	-1.70230000E-04
					 4.14793000E-05	 4.52137000E-02	-3.80263000E-03
					 3.01257000E-04	 3.75982000E-02	-7.67994000E-03
					 2.87677000E-05	 4.52216000E-02	 6.98623000E-03
					-9.03046000E-05	 4.52495000E-02	 6.99657000E-03
					-2.54864000E-04	 3.74399000E-02	 7.32728000E-03
					 1.06831000E-05	 4.52379000E-02	 3.32633000E-03
					-3.09035000E-05	 4.52192000E-02	 7.02918000E-03
					-3.00231000E-04	 3.77173000E-02	 7.34038000E-03
					-4.60803000E-05	 4.52684000E-02	 3.36796000E-03
					 1.14969000E-06	 4.53978000E-02	-2.20210000E-04
					 2.09337000E-04	 4.52857000E-02	-7.42086000E-03
					-6.15913000E-07	 4.53097000E-02	-2.18427000E-04
					 1.47012000E-04	 4.51962000E-02	-7.39758000E-03
					 3.64713000E-06	 3.79998000E-02	-1.76889000E-04
					 1.04416000E-04	 4.53583000E-02	-3.82752000E-03
					 3.55969000E-04	 3.79261000E-02	-7.66749000E-03
					-2.07453000E-04	 4.53971000E-02	 6.98279000E-03
					-1.48756000E-04	 4.53065000E-02	 6.96311000E-03
					-3.48638000E-04	 3.80447000E-02	 7.31466000E-03
					-1.02259000E-04	 4.54141000E-02	 3.38758000E-03
					-3.38094000E-06	 5.91923000E-02	-3.02524000E-04
					-4.32834000E-04	 5.90751000E-02	-6.50232000E-03
					-1.51708000E-06	 5.88524000E-02	-2.89494000E-04
					-2.62446000E-04	 5.87286000E-02	-6.49032000E-03
					-5.73829000E-06	 5.25172000E-02	-2.62291000E-04
					-2.16317000E-04	 5.91560000E-02	-3.38373000E-03
					-2.68917000E-04	 5.24038000E-02	-6.99927000E-03
					-2.84226000E-06	 5.90016000E-02	-2.96399000E-04
					-3.47850000E-04	 5.88794000E-02	-6.51385000E-03
					-3.49336000E-06	 5.23363000E-02	-2.57476000E-04
					-1.31790000E-04	 5.88124000E-02	-3.38820000E-03
					-1.11637000E-04	 5.22151000E-02	-6.99886000E-03
					 4.23218000E-04	 5.91540000E-02	 5.89888000E-03
					 2.56556000E-04	 5.88128000E-02	 5.91328000E-03
					 2.55775000E-04	 5.24986000E-02	 6.47588000E-03
					 2.08697000E-04	 5.91948000E-02	 2.77881000E-03
					 3.39520000E-04	 5.89613000E-02	 5.92306000E-03
					 1.03011000E-04	 5.23129000E-02	 6.48616000E-03
					 1.28079000E-04	 5.88546000E-02	 2.80960000E-03
					 2.62029000E-06	 5.86737000E-02	-2.78267000E-04
					-9.21678000E-05	 5.85484000E-02	-6.47804000E-03
					 2.30673000E-07	 5.87417000E-02	-2.83033000E-04
					-1.77906000E-04	 5.86173000E-02	-6.46732000E-03
					 1.17209000E-07	 5.23024000E-02	-2.54511000E-04
					-4.48026000E-05	 5.86322000E-02	-3.39279000E-03
					 4.00948000E-05	 5.21790000E-02	-6.99053000E-03
					 9.51554000E-05	 5.86379000E-02	 5.92389000E-03
					 1.75783000E-04	 5.87037000E-02	 5.90339000E-03
					-4.10633000E-05	 5.22795000E-02	 6.48457000E-03
					 4.97965000E-05	 5.86778000E-02	 2.83669000E-03
					 3.59114000E-05	 7.06167000E-02	-3.67724000E-04
					-5.79113000E-04	 7.05244000E-02	-5.53071000E-03
					 3.82171000E-05	 7.00675000E-02	-3.31742000E-04
					-4.50399000E-04	 6.99739000E-02	-5.48504000E-03
					 9.08424000E-06	 6.52045000E-02	-3.39460000E-04
					-2.71068000E-04	 7.05861000E-02	-2.95422000E-03
					-5.23336000E-04	 6.50997000E-02	-5.98994000E-03
					 3.68685000E-05	 7.03250000E-02	-3.48756000E-04
					-5.15130000E-04	 7.02321000E-02	-5.52109000E-03
					 1.09037000E-05	 6.47551000E-02	-3.13961000E-04
					-2.06014000E-04	 7.00374000E-02	-2.92887000E-03
					-3.63226000E-04	 6.46452000E-02	-5.96161000E-03
					 6.49706000E-04	 7.05827000E-02	 4.79633000E-03
					 5.26346000E-04	 7.00346000E-02	 4.82220000E-03
					 5.38097000E-04	 6.51648000E-02	 5.31441000E-03
					 3.43529000E-04	 7.06163000E-02	 2.22017000E-03
					 5.87609000E-04	 7.02928000E-02	 4.82340000E-03
					 3.82954000E-04	 6.47163000E-02	 5.33539000E-03
					 2.82403000E-04	 7.00682000E-02	 2.26562000E-03
					 4.30577000E-05	 6.96412000E-02	-2.97925000E-04
					-3.16846000E-04	 6.95508000E-02	-5.46154000E-03
					 4.02208000E-05	 6.98389000E-02	-3.15317000E-04
					-3.83791000E-04	 6.97453000E-02	-5.44793000E-03
					 1.56110000E-05	 6.44591000E-02	-2.90560000E-04
					-1.38899000E-04	 6.96131000E-02	-2.92419000E-03
					-2.00188000E-04	 6.43501000E-02	-5.94332000E-03
					 4.00607000E-04	 6.96146000E-02	 4.86592000E-03
					 4.63022000E-04	 6.98069000E-02	 4.81822000E-03
					 2.28775000E-04	 6.44267000E-02	 5.36245000E-03
					 2.23612000E-04	 6.96446000E-02	 2.32861000E-03
					 1.08156000E-04	 8.04193000E-02	-4.12300000E-04
					-8.17502000E-04	 8.03935000E-02	-5.11548000E-03
					 1.10901000E-04	 7.94947000E-02	-3.60718000E-04
					-8.08930000E-04	 7.94665000E-02	-5.06756000E-03
					 7.15361000E-05	 7.55945000E-02	-3.86226000E-04
					-3.56694000E-04	 8.04096000E-02	-2.75171000E-03
					-6.61657000E-04	 7.55323000E-02	-5.23804000E-03
					 1.09290000E-04	 7.99580000E-02	-3.87192000E-04
					-8.12602000E-04	 7.99327000E-02	-5.12240000E-03
					 7.35873000E-05	 7.48915000E-02	-3.46026000E-04
					-3.47057000E-04	 7.94801000E-02	-2.73374000E-03
					-5.98296000E-04	 7.48319000E-02	-5.18042000E-03
					 1.03309000E-03	 8.04339000E-02	 4.30564000E-03
					 1.02563000E-03	 7.95157000E-02	 4.34705000E-03
					 8.01576000E-04	 7.55796000E-02	 4.45976000E-03
					 5.70662000E-04	 8.04264000E-02	 1.93047000E-03
					 1.02914000E-03	 7.99749000E-02	 4.35990000E-03
					 7.41306000E-04	 7.48841000E-02	 4.48834000E-03
					 5.67955000E-04	 7.95057000E-02	 2.01252000E-03
					 1.12156000E-04	 7.85806000E-02	-3.12194000E-04
					-8.06527000E-04	 7.85439000E-02	-5.03789000E-03
					 1.12092000E-04	 7.90357000E-02	-3.35647000E-04
					-8.07266000E-04	 7.90047000E-02	-5.00903000E-03
					 7.58122000E-05	 7.42553000E-02	-3.06234000E-04
					-3.43546000E-04	 7.85589000E-02	-2.73986000E-03
					-5.22878000E-04	 7.41983000E-02	-5.15239000E-03
					 1.02556000E-03	 7.86027000E-02	 4.40744000E-03
					 1.02508000E-03	 7.90592000E-02	 4.33310000E-03
					 6.74274000E-04	 7.42544000E-02	 4.54362000E-03
					 5.67984000E-04	 7.85947000E-02	 2.11162000E-03
					 1.67364000E-04	 9.00481000E-02	-4.31165000E-04
					-1.01112000E-03	 9.00788000E-02	-5.20472000E-03
					 1.67087000E-04	 8.89158000E-02	-3.99811000E-04
					-9.73560000E-04	 8.89178000E-02	-5.19733000E-03
					 1.43663000E-04	 8.52523000E-02	-4.26857000E-04
					-4.25004000E-04	 9.00497000E-02	-2.79378000E-03
					-9.48952000E-04	 8.52096000E-02	-5.13463000E-03
					 1.66165000E-04	 8.94734000E-02	-4.17781000E-04
					-9.89280000E-04	 8.94867000E-02	-5.19781000E-03
					 1.42922000E-04	 8.41555000E-02	-3.76162000E-04
					-4.21206000E-04	 8.89157000E-02	-2.78632000E-03
					-9.41878000E-04	 8.41298000E-02	-5.12095000E-03
					 1.39024000E-03	 9.01078000E-02	 4.30829000E-03
					 1.38414000E-03	 8.89317000E-02	 4.37423000E-03
					 1.26841000E-03	 8.52938000E-02	 4.29596000E-03
					 7.79812000E-04	 9.00814000E-02	 1.92366000E-03
					 1.38504000E-03	 8.95130000E-02	 4.34501000E-03
					 1.27069000E-03	 8.41764000E-02	 4.35456000E-03
					 7.81469000E-04	 8.89199000E-02	 1.98148000E-03
					 1.92687000E-04	 8.77808000E-02	-3.54478000E-04
					-9.78290000E-04	 8.78706000E-02	-5.22765000E-03
					 1.75235000E-04	 8.83605000E-02	-3.77046000E-04
					-9.77617000E-04	 8.84120000E-02	-5.22918000E-03
					 1.54176000E-04	 8.30436000E-02	-3.18706000E-04
					-4.03182000E-04	 8.78313000E-02	-2.76171000E-03
					-9.78508000E-04	 8.30242000E-02	-5.11354000E-03
					 1.42141000E-03	 8.77407000E-02	 4.44065000E-03
					 1.40561000E-03	 8.83467000E-02	 4.40754000E-03
					 1.30022000E-03	 8.30468000E-02	 4.42028000E-03
					 8.05039000E-04	 8.77462000E-02	 2.04094000E-03
					 0.00000000E+00	 0.00000000E+00	 0.00000000E+00
					 0.00000000E+00	 0.00000000E+00	 0.00000000E+00
					-2.23123000E-05	-1.30422000E-02	-2.23748000E-04
					-3.13173000E-03	-1.40179000E-02	 1.32757000E-02
					 0.00000000E+00	 0.00000000E+00	 0.00000000E+00
					 0.00000000E+00	 0.00000000E+00	 0.00000000E+00
					-4.39735000E-05	-1.52455000E-02	-3.42363000E-04
					-1.38528000E-03	-1.62742000E-02	 1.33145000E-02
					 0.00000000E+00	 0.00000000E+00	 0.00000000E+00
					 2.93116000E-05	-2.48476000E-03	-7.28959000E-05
					-1.58077000E-03	-1.32212000E-02	 6.48478000E-03
					-2.66385000E-03	-3.70743000E-03	 6.78028000E-03
					 0.00000000E+00	 0.00000000E+00	 0.00000000E+00
					 0.00000000E+00	 0.00000000E+00	 0.00000000E+00
					-2.95887000E-05	-1.44418000E-02	-2.90039000E-04
					-2.24094000E-03	-1.54420000E-02	 1.31734000E-02
					 0.00000000E+00	 0.00000000E+00	 0.00000000E+00
					-6.93481000E-06	-4.05880000E-03	-1.21273000E-04
					-7.16692000E-04	-1.54369000E-02	 6.31948000E-03
					-6.68047000E-04	-5.25782000E-03	 6.54690000E-03
					 0.00000000E+00	 0.00000000E+00	 0.00000000E+00
					 3.06710000E-03	-1.36111000E-02	-1.37856000E-02
					 0.00000000E+00	 0.00000000E+00	 0.00000000E+00
					 1.31106000E-03	-1.58815000E-02	-1.40664000E-02
					 0.00000000E+00	 0.00000000E+00	 0.00000000E+00
					 2.71321000E-03	-3.58220000E-03	-6.95357000E-03
					 1.52700000E-03	-1.30138000E-02	-6.95247000E-03
					 0.00000000E+00	 0.00000000E+00	 0.00000000E+00
					 2.18283000E-03	-1.50390000E-02	-1.38158000E-02
					 0.00000000E+00	 0.00000000E+00	 0.00000000E+00
					 6.66811000E-04	-5.16264000E-03	-6.80864000E-03
					 6.30213000E-04	-1.52395000E-02	-7.02568000E-03
					 0.00000000E+00	 0.00000000E+00	 0.00000000E+00
					 0.00000000E+00	 0.00000000E+00	 0.00000000E+00
					-8.01904000E-05	-1.57333000E-02	-4.02864000E-04
					 3.57434000E-04	-1.66733000E-02	 1.31033000E-02
					 0.00000000E+00	 0.00000000E+00	 0.00000000E+00
					 0.00000000E+00	 0.00000000E+00	 0.00000000E+00
					-6.03910000E-05	-1.57852000E-02	-3.81259000E-04
					-5.25436000E-04	-1.67723000E-02	 1.33260000E-02
					 0.00000000E+00	 0.00000000E+00	 0.00000000E+00
					-5.79604000E-05	-3.81742000E-03	-1.46474000E-04
					 1.35612000E-04	-1.58882000E-02	 6.06634000E-03
					 1.36121000E-03	-4.96540000E-03	 6.70830000E-03
					 0.00000000E+00	 0.00000000E+00	 0.00000000E+00
					-4.74553000E-04	-1.63166000E-02	-1.39625000E-02
					 0.00000000E+00	 0.00000000E+00	 0.00000000E+00
					 4.27768000E-04	-1.63910000E-02	-1.41525000E-02
					 0.00000000E+00	 0.00000000E+00	 0.00000000E+00
					-1.44672000E-03	-4.88996000E-03	-7.02697000E-03
					-2.81072000E-04	-1.57173000E-02	-6.88506000E-03
					-1.73849000E-04	-5.19991000E-02	-1.06195000E-03
					-3.98098000E-03	-5.31498000E-02	 2.26566000E-02
					-1.76493000E-04	-5.51880000E-02	-1.29415000E-03
					-2.77932000E-03	-5.63423000E-02	 2.24942000E-02
					-8.53970000E-05	-2.98512000E-02	-5.41806000E-04
					-2.07705000E-03	-5.24406000E-02	 1.07007000E-02
					-3.62833000E-03	-3.10105000E-02	 1.85900000E-02
					-1.73827000E-04	-5.37237000E-02	-1.18873000E-03
					-3.37950000E-03	-5.48762000E-02	 2.25325000E-02
					-1.04396000E-04	-3.26158000E-02	-7.20941000E-04
					-1.47466000E-03	-5.56318000E-02	 1.04676000E-02
					-2.10622000E-03	-3.37727000E-02	 1.84883000E-02
					 3.63806000E-03	-5.19792000E-02	-2.48501000E-02
					 2.43328000E-03	-5.51974000E-02	-2.51524000E-02
					 3.44436000E-03	-3.02452000E-02	-1.97558000E-02
					 1.72851000E-03	-5.18644000E-02	-1.28406000E-02
					 3.04031000E-03	-5.37256000E-02	-2.49767000E-02
					 1.90997000E-03	-3.30239000E-02	-2.00126000E-02
					 1.12782000E-03	-5.50722000E-02	-1.30692000E-02
					-1.96823000E-04	-5.71987000E-02	-1.46077000E-03
					-1.58039000E-03	-5.83133000E-02	 2.22588000E-02
					-1.85424000E-04	-5.63225000E-02	-1.38384000E-03
					-2.17720000E-03	-5.74944000E-02	 2.24865000E-02
					-1.38229000E-04	-3.38611000E-02	-8.33415000E-04
					-8.96606000E-04	-5.76126000E-02	 1.01546000E-02
					-6.08367000E-04	-3.49992000E-02	 1.83016000E-02
					 1.23157000E-03	-5.72175000E-02	-2.52487000E-02
					 1.83248000E-03	-5.63334000E-02	-2.53260000E-02
					 3.80097000E-04	-3.42991000E-02	-2.00464000E-02
					 5.16253000E-04	-5.70887000E-02	-1.30877000E-02
					-3.20491000E-04	-1.07267000E-01	-2.64742000E-03
					-4.47736000E-03	-1.08365000E-01	 2.67820000E-02
					-3.10763000E-04	-1.11114000E-01	-2.92727000E-03
					-3.91205000E-03	-1.12320000E-01	 2.65670000E-02
					-2.51648000E-04	-7.81845000E-02	-1.77242000E-03
					-2.39528000E-03	-1.07739000E-01	 1.19653000E-02
					-4.25514000E-03	-7.93556000E-02	 2.53187000E-02
					-3.13806000E-04	-1.09263000E-01	-2.78880000E-03
					-4.19670000E-03	-1.10427000E-01	 2.66354000E-02
					-2.49675000E-04	-8.17400000E-02	-2.03909000E-03
					-2.13624000E-03	-1.11643000E-01	 1.16688000E-02
					-3.38177000E-03	-8.29181000E-02	 2.51308000E-02
					 3.80089000E-03	-1.06652000E-01	-3.20954000E-02
					 3.29378000E-03	-1.10514000E-01	-3.24754000E-02
					 3.74743000E-03	-7.78642000E-02	-2.89207000E-02
					 1.74239000E-03	-1.06898000E-01	-1.72581000E-02
					 3.54650000E-03	-1.08649000E-01	-3.22605000E-02
					 2.89249000E-03	-8.14203000E-02	-2.92648000E-02
					 1.49276000E-03	-1.10758000E-01	-1.75520000E-02
					-3.12385000E-04	-1.14440000E-01	-3.17515000E-03
					-3.45865000E-03	-1.15759000E-01	 2.62478000E-02
					-3.10419000E-04	-1.12859000E-01	-3.05702000E-03
					-3.68763000E-03	-1.13997000E-01	 2.65174000E-02
					-2.50898000E-04	-8.44361000E-02	-2.25364000E-03
					-1.85393000E-03	-1.15024000E-01	 1.12741000E-02
					-2.55545000E-03	-8.56339000E-02	 2.48424000E-02
					 2.79655000E-03	-1.13879000E-01	-3.26800000E-02
					 3.04612000E-03	-1.12252000E-01	-3.26884000E-02
					 2.02776000E-03	-8.41324000E-02	-2.94070000E-02
					 1.23165000E-03	-1.14118000E-01	-1.76762000E-02
					-3.50317000E-04	-1.69365000E-01	-4.63893000E-03
					-4.70290000E-03	-1.70208000E-01	 2.62135000E-02