# vtk DataFile Version 3.0

ASCII
DATASET UNSTRUCTURED_GRID

POINTS 522 double
	 1.00000000E+00	 1.00000000E+00	-5.96046000E-08
	 1.00000000E+00	 5.00000000E-01	-5.96046000E-08
	 1.00000000E+00	 5.00000000E-01	 1.00000000E+00
	 1.00000000E+00	 1.00000000E+00	 1.00000000E+00
	 5.00000000E-01	 1.00000000E+00	-5.96046000E-08
	 5.00000000E-01	 5.00000000E-01	-5.96046000E-08
	 5.00000000E-01	 5.00000000E-01	 1.00000000E+00
	 5.00000000E-01	 1.00000000E+00	 1.00000000E+00
	 1.00000000E+00	 7.50000000E-01	-5.96046000E-08
	 1.00000000E+00	 5.00000000E-01	 5.00000000E-01
	 1.00000000E+00	 7.50000000E-01	 1.00000000E+00
	 1.00000000E+00	 1.00000000E+00	 5.00000000E-01
	 7.50000000E-01	 1.00000000E+00	-5.96046000E-08
	 7.50000000E-01	 5.00000000E-01	-5.96046000E-08
	 7.50000000E-01	 5.00000000E-01	 1.00000000E+00
	 7.50000000E-01	 1.00000000E+00	 1.00000000E+00
	 5.00000000E-01	 7.50000000E-01	-5.96046000E-08
	 5.00000000E-01	 5.00000000E-01	 5.00000000E-01
	 5.00000000E-01	 7.50000000E-01	 1.00000000E+00
	 5.00000000E-01	 1.00000000E+00	 5.00000000E-01
	 1.00000000E+00	-1.49012000E-08	-5.96046000E-08
	 1.00000000E+00	-1.49012000E-08	 1.00000000E+00
	 5.00000000E-01	-1.49012000E-08	-5.96046000E-08
	 5.00000000E-01	-1.49012000E-08	 1.00000000E+00
	 1.00000000E+00	 2.50000000E-01	-5.96046000E-08
	 1.00000000E+00	-1.49012000E-08	 5.00000000E-01
	 1.00000000E+00	 2.50000000E-01	 1.00000000E+00
	 7.50000000E-01	-1.49012000E-08	-5.96046000E-08
	 7.50000000E-01	-1.49012000E-08	 1.00000000E+00
	 5.00000000E-01	 2.50000000E-01	-5.96046000E-08
	 5.00000000E-01	-1.49012000E-08	 5.00000000E-01
	 5.00000000E-01	 2.50000000E-01	 1.00000000E+00
	-7.45058000E-09	 1.00000000E+00	-5.96046000E-08
	-7.45058000E-09	 5.00000000E-01	-5.96046000E-08
	-7.45058000E-09	 5.00000000E-01	 1.00000000E+00
	-7.45058000E-09	 1.00000000E+00	 1.00000000E+00
	 2.50000000E-01	 1.00000000E+00	-5.96046000E-08
	 2.50000000E-01	 5.00000000E-01	-5.96046000E-08
	 2.50000000E-01	 5.00000000E-01	 1.00000000E+00
	 2.50000000E-01	 1.00000000E+00	 1.00000000E+00
	-7.45058000E-09	 7.50000000E-01	-5.96046000E-08
	-7.45058000E-09	 5.00000000E-01	 5.00000000E-01
	-7.45058000E-09	 7.50000000E-01	 1.00000000E+00
	-7.45058000E-09	 1.00000000E+00	 5.00000000E-01
	-7.45058000E-09	-1.49012000E-08	-5.96046000E-08
	-7.45058000E-09	-1.49012000E-08	 1.00000000E+00
	 2.50000000E-01	-1.49012000E-08	-5.96046000E-08
	 2.50000000E-01	-1.49012000E-08	 1.00000000E+00
	-7.45058000E-09	 2.50000000E-01	-5.96046000E-08
	-7.45058000E-09	-1.49012000E-08	 5.00000000E-01
	-7.45058000E-09	 2.50000000E-01	 1.00000000E+00
	 1.00000000E+00	 5.00000000E-01	 2.00000000E+00
	 1.00000000E+00	 1.00000000E+00	 2.00000000E+00
	 5.00000000E-01	 5.00000000E-01	 2.00000000E+00
	 5.00000000E-01	 1.00000000E+00	 2.00000000E+00
	 1.00000000E+00	 5.00000000E-01	 1.50000000E+00
	 1.00000000E+00	 7.50000000E-01	 2.00000000E+00
	 1.00000000E+00	 1.00000000E+00	 1.50000000E+00
	 7.50000000E-01	 5.00000000E-01	 2.00000000E+00
	 7.50000000E-01	 1.00000000E+00	 2.00000000E+00
	 5.00000000E-01	 5.00000000E-01	 1.50000000E+00
	 5.00000000E-01	 7.50000000E-01	 2.00000000E+00
	 5.00000000E-01	 1.00000000E+00	 1.50000000E+00
	 1.00000000E+00	-1.49012000E-08	 2.00000000E+00
	 5.00000000E-01	-1.49012000E-08	 2.00000000E+00
	 1.00000000E+00	-1.49012000E-08	 1.50000000E+00
	 1.00000000E+00	 2.50000000E-01	 2.00000000E+00
	 7.50000000E-01	-1.49012000E-08	 2.00000000E+00
	 5.00000000E-01	-1.49012000E-08	 1.50000000E+00
	 5.00000000E-01	 2.50000000E-01	 2.00000000E+00
	-7.45058000E-09	 5.00000000E-01	 2.00000000E+00
	-7.45058000E-09	 1.00000000E+00	 2.00000000E+00
	 2.50000000E-01	 5.00000000E-01	 2.00000000E+00
	 2.50000000E-01	 1.00000000E+00	 2.00000000E+00
	-7.45058000E-09	 5.00000000E-01	 1.50000000E+00
	-7.45058000E-09	 7.50000000E-01	 2.00000000E+00
	-7.45058000E-09	 1.00000000E+00	 1.50000000E+00
	-7.45058000E-09	-1.49012000E-08	 2.00000000E+00
	 2.50000000E-01	-1.49012000E-08	 2.00000000E+00
	-7.45058000E-09	-1.49012000E-08	 1.50000000E+00
	-7.45058000E-09	 2.50000000E-01	 2.00000000E+00
	 1.00000000E+00	 5.00000000E-01	 3.00000000E+00
	 1.00000000E+00	 1.00000000E+00	 3.00000000E+00
	 5.00000000E-01	 5.00000000E-01	 3.00000000E+00
	 5.00000000E-01	 1.00000000E+00	 3.00000000E+00
	 1.00000000E+00	 5.00000000E-01	 2.50000000E+00
	 1.00000000E+00	 7.50000000E-01	 3.00000000E+00
	 1.00000000E+00	 1.00000000E+00	 2.50000000E+00
	 7.50000000E-01	 5.00000000E-01	 3.00000000E+00
	 7.50000000E-01	 1.00000000E+00	 3.00000000E+00
	 5.00000000E-01	 5.00000000E-01	 2.50000000E+00
	 5.00000000E-01	 7.50000000E-01	 3.00000000E+00
	 5.00000000E-01	 1.00000000E+00	 2.50000000E+00
	 1.00000000E+00	-1.49012000E-08	 3.00000000E+00
	 5.00000000E-01	-1.49012000E-08	 3.00000000E+00
	 1.00000000E+00	-1.49012000E-08	 2.50000000E+00
	 1.00000000E+00	 2.50000000E-01	 3.00000000E+00
	 7.50000000E-01	-1.49012000E-08	 3.00000000E+00
	 5.00000000E-01	-1.49012000E-08	 2.50000000E+00
	 5.00000000E-01	 2.50000000E-01	 3.00000000E+00
	-7.45058000E-09	 5.00000000E-01	 3.00000000E+00
	-7.45058000E-09	 1.00000000E+00	 3.00000000E+00
	 2.50000000E-01	 5.00000000E-01	 3.00000000E+00
	 2.50000000E-01	 1.00000000E+00	 3.00000000E+00
	-7.45058000E-09	 5.00000000E-01	 2.50000000E+00
	-7.45058000E-09	 7.50000000E-01	 3.00000000E+00
	-7.45058000E-09	 1.00000000E+00	 2.50000000E+00
	-7.45058000E-09	-1.49012000E-08	 3.00000000E+00
	 2.50000000E-01	-1.49012000E-08	 3.00000000E+00
	-7.45058000E-09	-1.49012000E-08	 2.50000000E+00
	-7.45058000E-09	 2.50000000E-01	 3.00000000E+00
	 1.00000000E+00	 5.00000000E-01	 4.00000000E+00
	 1.00000000E+00	 1.00000000E+00	 4.00000000E+00
	 5.00000000E-01	 5.00000000E-01	 4.00000000E+00
	 5.00000000E-01	 1.00000000E+00	 4.00000000E+00
	 1.00000000E+00	 5.00000000E-01	 3.50000000E+00
	 1.00000000E+00	 7.50000000E-01	 4.00000000E+00
	 1.00000000E+00	 1.00000000E+00	 3.50000000E+00
	 7.50000000E-01	 5.00000000E-01	 4.00000000E+00
	 7.50000000E-01	 1.00000000E+00	 4.00000000E+00
	 5.00000000E-01	 5.00000000E-01	 3.50000000E+00
	 5.00000000E-01	 7.50000000E-01	 4.00000000E+00
	 5.00000000E-01	 1.00000000E+00	 3.50000000E+00
	 1.00000000E+00	-1.49012000E-08	 4.00000000E+00
	 5.00000000E-01	-1.49012000E-08	 4.00000000E+00
	 1.00000000E+00	-1.49012000E-08	 3.50000000E+00
	 1.00000000E+00	 2.50000000E-01	 4.00000000E+00
	 7.50000000E-01	-1.49012000E-08	 4.00000000E+00
	 5.00000000E-01	-1.49012000E-08	 3.50000000E+00
	 5.00000000E-01	 2.50000000E-01	 4.00000000E+00
	-7.45058000E-09	 5.00000000E-01	 4.00000000E+00
	-7.45058000E-09	 1.00000000E+00	 4.00000000E+00
	 2.50000000E-01	 5.00000000E-01	 4.00000000E+00
	 2.50000000E-01	 1.00000000E+00	 4.00000000E+00
	-7.45058000E-09	 5.00000000E-01	 3.50000000E+00
	-7.45058000E-09	 7.50000000E-01	 4.00000000E+00
	-7.45058000E-09	 1.00000000E+00	 3.50000000E+00
	-7.45058000E-09	-1.49012000E-08	 4.00000000E+00
	 2.50000000E-01	-1.49012000E-08	 4.00000000E+00
	-7.45058000E-09	-1.49012000E-08	 3.50000000E+00
	-7.45058000E-09	 2.50000000E-01	 4.00000000E+00
	 1.00000000E+00	 5.00000000E-01	 5.00000000E+00
	 1.00000000E+00	 1.00000000E+00	 5.00000000E+00
	 5.00000000E-01	 5.00000000E-01	 5.00000000E+00
	 5.00000000E-01	 1.00000000E+00	 5.00000000E+00
	 1.00000000E+00	 5.00000000E-01	 4.50000000E+00
	 1.00000000E+00	 7.50000000E-01	 5.00000000E+00
	 1.00000000E+00	 1.00000000E+00	 4.50000000E+00
	 7.50000000E-01	 5.00000000E-01	 5.00000000E+00
	 7.50000000E-01	 1.00000000E+00	 5.00000000E+00
	 5.00000000E-01	 5.00000000E-01	 4.50000000E+00
	 5.00000000E-01	 7.50000000E-01	 5.00000000E+00
	 5.00000000E-01	 1.00000000E+00	 4.50000000E+00
	 1.00000000E+00	-1.49012000E-08	 5.00000000E+00
	 5.00000000E-01	-1.49012000E-08	 5.00000000E+00
	 1.00000000E+00	-1.49012000E-08	 4.50000000E+00
	 1.00000000E+00	 2.50000000E-01	 5.00000000E+00
	 7.50000000E-01	-1.49012000E-08	 5.00000000E+00
	 5.00000000E-01	-1.49012000E-08	 4.50000000E+00
	 5.00000000E-01	 2.50000000E-01	 5.00000000E+00
	-7.45058000E-09	 5.00000000E-01	 5.00000000E+00
	-7.45058000E-09	 1.00000000E+00	 5.00000000E+00
	 2.50000000E-01	 5.00000000E-01	 5.00000000E+00
	 2.50000000E-01	 1.00000000E+00	 5.00000000E+00
	-7.45058000E-09	 5.00000000E-01	 4.50000000E+00
	-7.45058000E-09	 7.50000000E-01	 5.00000000E+00
	-7.45058000E-09	 1.00000000E+00	 4.50000000E+00
	-7.45058000E-09	-1.49012000E-08	 5.00000000E+00
	 2.50000000E-01	-1.49012000E-08	 5.00000000E+00
	-7.45058000E-09	-1.49012000E-08	 4.50000000E+00
	-7.45058000E-09	 2.50000000E-01	 5.00000000E+00
	 1.00000000E+00	 5.00000000E-01	 6.00000000E+00
	 1.00000000E+00	 1.00000000E+00	 6.00000000E+00
	 5.00000000E-01	 5.00000000E-01	 6.00000000E+00
	 5.00000000E-01	 1.00000000E+00	 6.00000000E+00
	 1.00000000E+00	 5.00000000E-01	 5.50000000E+00
	 1.00000000E+00	 7.50000000E-01	 6.00000000E+00
	 1.00000000E+00	 1.00000000E+00	 5.50000000E+00
	 7.50000000E-01	 5.00000000E-01	 6.00000000E+00
	 7.50000000E-01	 1.00000000E+00	 6.00000000E+00
	 5.00000000E-01	 5.00000000E-01	 5.50000000E+00
	 5.00000000E-01	 7.50000000E-01	 6.00000000E+00
	 5.00000000E-01	 1.00000000E+00	 5.50000000E+00
	 1.00000000E+00	-1.49012000E-08	 6.00000000E+00
	 5.00000000E-01	-1.49012000E-08	 6.00000000E+00
	 1.00000000E+00	-1.49012000E-08	 5.50000000E+00
	 1.00000000E+00	 2.50000000E-01	 6.00000000E+00
	 7.50000000E-01	-1.49012000E-08	 6.00000000E+00
	 5.00000000E-01	-1.49012000E-08	 5.50000000E+00
	 5.00000000E-01	 2.50000000E-01	 6.00000000E+00
	-7.45058000E-09	 5.00000000E-01	 6.00000000E+00
	-7.45058000E-09	 1.00000000E+00	 6.00000000E+00
	 2.50000000E-01	 5.00000000E-01	 6.00000000E+00
	 2.50000000E-01	 1.00000000E+00	 6.00000000E+00
	-7.45058000E-09	 5.00000000E-01	 5.50000000E+00
	-7.45058000E-09	 7.50000000E-01	 6.00000000E+00
	-7.45058000E-09	 1.00000000E+00	 5.50000000E+00
	-7.45058000E-09	-1.49012000E-08	 6.00000000E+00
	 2.50000000E-01	-1.49012000E-08	 6.00000000E+00
	-7.45058000E-09	-1.49012000E-08	 5.50000000E+00
	-7.45058000E-09	 2.50000000E-01	 6.00000000E+00
	 1.00000000E+00	 5.00000000E-01	 7.00000000E+00
[...]
POINT_DATA 522
FIELD U 1
	U 3 522 double
		 0.00000000E+00	 0.00000000E+00	 0.00000000E+00
		 0.00000000E+00	 0.00000000E+00	 0.00000000E+00
		 1.49566000E-05	 5.66764000E-04	-3.84305000E-05
		-2.26033000E-04	 6.07104000E-04	-4.07346000E-04
		 0.00000000E+00	 0.00000000E+00	 0.00000000E+00
		 0.00000000E+00	 0.00000000E+00	 0.00000000E+00
		 8.81995000E-06	 2.98383000E-04	-2.90889000E-05
		-2.95264000E-04	 3.34942000E-04	-3.93441000E-04
		 0.00000000E+00	 0.00000000E+00	 0.00000000E+00
		 8.13558000E-06	 1.99171000E-04	-1.73480000E-05
		-1.03795000E-04	 5.78519000E-04	-2.08450000E-04
		-8.21718000E-05	 2.34123000E-04	-1.86382000E-04
		 0.00000000E+00	 0.00000000E+00	 0.00000000E+00
		 0.00000000E+00	 0.00000000E+00	 0.00000000E+00
		 1.17933000E-05	 4.41516000E-04	-3.37083000E-05
		-2.60864000E-04	 4.79057000E-04	-4.25555000E-04
		 0.00000000E+00	 0.00000000E+00	 0.00000000E+00
		 2.60884000E-06	 7.53091000E-05	-1.19142000E-05
		-1.42568000E-04	 3.08507000E-04	-2.22176000E-04
		-1.48445000E-04	 1.12576000E-04	-1.73973000E-04
		 0.00000000E+00	 0.00000000E+00	 0.00000000E+00
		 2.53393000E-04	 5.94958000E-04	 3.30609000E-04
		 0.00000000E+00	 0.00000000E+00	 0.00000000E+00
		 3.11345000E-04	 3.26192000E-04	 3.34640000E-04
		 0.00000000E+00	 0.00000000E+00	 0.00000000E+00
		 9.60957000E-05	 2.22239000E-04	 1.49547000E-04
		 1.33163000E-04	 5.72310000E-04	 1.31796000E-04
		 0.00000000E+00	 0.00000000E+00	 0.00000000E+00
		 2.82316000E-04	 4.68888000E-04	 3.58101000E-04
		 0.00000000E+00	 0.00000000E+00	 0.00000000E+00
		 1.51689000E-04	 1.04764000E-04	 1.48393000E-04
		 1.59950000E-04	 3.04310000E-04	 1.64014000E-04
		 0.00000000E+00	 0.00000000E+00	 0.00000000E+00
		 0.00000000E+00	 0.00000000E+00	 0.00000000E+00
		 3.80565000E-06	-4.03725000E-05	-1.98179000E-05
		-3.62392000E-04	-2.32807000E-06	-3.88861000E-04
		 0.00000000E+00	 0.00000000E+00	 0.00000000E+00
		 0.00000000E+00	 0.00000000E+00	 0.00000000E+00
		 5.92809000E-06	 1.38279000E-04	-2.42078000E-05
		-3.28768000E-04	 1.73292000E-04	-3.58884000E-04
		 0.00000000E+00	 0.00000000E+00	 0.00000000E+00
		-1.45748000E-06	-1.00952000E-04	-8.72805000E-06
		-1.81302000E-04	-2.96475000E-05	-2.47058000E-04
		-2.00877000E-04	-5.74590000E-05	-1.76937000E-04
		 0.00000000E+00	 0.00000000E+00	 0.00000000E+00
		 3.69091000E-04	-8.20166000E-06	 3.47937000E-04
		 0.00000000E+00	 0.00000000E+00	 0.00000000E+00
		 3.39485000E-04	 1.66073000E-04	 3.09260000E-04
		 0.00000000E+00	 0.00000000E+00	 0.00000000E+00
		 1.96321000E-04	-6.22666000E-05	 1.58189000E-04
		 1.88889000E-04	-3.23625000E-05	 2.07291000E-04
		 4.12489000E-05	 1.70707000E-03	-7.82239000E-05
		-2.69588000E-04	 1.82387000E-03	-1.29331000E-03
		 3.60396000E-05	 1.29035000E-03	-6.70020000E-05
		-4.87383000E-04	 1.40396000E-03	-1.26019000E-03
		 2.67371000E-05	 1.01813000E-03	-5.96540000E-05
		-1.12843000E-04	 1.73866000E-03	-7.38262000E-04
		-2.99437000E-04	 1.10164000E-03	-7.33969000E-04
		 3.85968000E-05	 1.52656000E-03	-7.19974000E-05
		-3.79023000E-04	 1.63939000E-03	-1.26729000E-03
		 2.08228000E-05	 6.38706000E-04	-4.72335000E-05
		-2.26630000E-04	 1.32026000E-03	-7.10130000E-04
		-4.21436000E-04	 7.13286000E-04	-7.05068000E-04
		 3.55288000E-04	 1.82063000E-03	 1.13655000E-03
		 5.62692000E-04	 1.39558000E-03	 1.12527000E-03
		 3.53138000E-04	 1.09212000E-03	 6.15215000E-04
		 1.96113000E-04	 1.73782000E-03	 5.81272000E-04
		 4.59752000E-04	 1.63331000E-03	 1.12316000E-03
		 4.63891000E-04	 7.03666000E-04	 6.09873000E-04
		 2.99743000E-04	 1.31621000E-03	 5.75800000E-04
		 3.04026000E-05	 6.56303000E-04	-5.50729000E-05
		-7.17512000E-04	 7.65425000E-04	-1.27079000E-03
		 3.33684000E-05	 9.99147000E-04	-6.17615000E-05
		-6.02519000E-04	 1.11293000E-03	-1.24738000E-03
		 1.53955000E-05	 1.31869000E-04	-3.41973000E-05
		-3.42285000E-04	 6.83597000E-04	-7.25227000E-04
		-5.53074000E-04	 2.05415000E-04	-7.09481000E-04
		 7.81021000E-04	 7.53424000E-04	 1.15906000E-03
		 6.72188000E-04	 1.10268000E-03	 1.12242000E-03
		 5.84805000E-04	 1.95356000E-04	 6.38973000E-04
		 4.03849000E-04	 6.77440000E-04	 6.14715000E-04
		 5.15020000E-05	 5.39751000E-03	-1.14879000E-04
		 6.97749000E-05	 5.57830000E-03	-3.44993000E-03
		 4.62782000E-05	 5.21753000E-03	-1.20262000E-04
		-3.19038000E-04	 5.40463000E-03	-3.44884000E-03
		 5.15972000E-05	 3.00814000E-03	-9.42773000E-05
		 5.87436000E-05	 5.43750000E-03	-1.82378000E-03
		-1.32699000E-04	 3.16347000E-03	-2.24242000E-03
		 4.89306000E-05	 5.35659000E-03	-1.17749000E-04
		-1.24616000E-04	 5.54188000E-03	-3.41850000E-03
		 4.63382000E-05	 2.66446000E-03	-9.02586000E-05
		-1.36878000E-04	 5.26012000E-03	-1.79512000E-03
		-4.52117000E-04	 2.81984000E-03	-2.21919000E-03
		 3.66361000E-05	 5.59234000E-03	 3.21666000E-03
		 4.13741000E-04	 5.41221000E-03	 3.20525000E-03
		 2.40194000E-04	 3.16666000E-03	 2.05166000E-03
		 4.49706000E-05	 5.44502000E-03	 1.59319000E-03
		 2.25826000E-04	 5.55183000E-03	 3.17955000E-03
		 5.48109000E-04	 2.81590000E-03	 2.03700000E-03
		 2.30013000E-04	 5.26372000E-03	 1.55381000E-03
		 3.90997000E-05	 4.66475000E-03	-1.23149000E-04
		-7.14405000E-04	 4.84497000E-03	-3.45768000E-03
		 4.32134000E-05	 4.98978000E-03	-1.22080000E-04
		-5.16428000E-04	 5.17570000E-03	-3.47822000E-03
		 3.97961000E-05	 2.00763000E-03	-8.49747000E-05
		-3.35437000E-04	 4.70453000E-03	-1.77599000E-03
		-7.87728000E-04	 2.15313000E-03	-2.23277000E-03
		 7.93722000E-04	 4.85062000E-03	 3.20890000E-03
		 6.03906000E-04	 5.18234000E-03	 3.23142000E-03
		 8.69687000E-04	 2.14558000E-03	 2.06160000E-03
		 4.14050000E-04	 4.70727000E-03	 1.52899000E-03
		 2.26179000E-05	 1.44089000E-02	-1.92015000E-04
		 3.43756000E-04	 1.45490000E-02	-6.07015000E-03
		 1.72139000E-05	 1.45419000E-02	-2.13177000E-04
		-2.44023000E-05	 1.46909000E-02	-6.10032000E-03
		 4.08858000E-05	 9.19691000E-03	-1.46712000E-04
		 1.80169000E-04	 1.44323000E-02	-3.12386000E-03
		 2.39150000E-04	 9.35970000E-03	-4.77432000E-03
		 1.98896000E-05	 1.45203000E-02	-2.03331000E-04
		 1.60013000E-04	 1.46679000E-02	-6.07360000E-03
		 3.52975000E-05	 9.19632000E-03	-1.60795000E-04
		-3.43906000E-06	 1.45701000E-02	-3.13625000E-03
		-1.53142000E-04	 9.36841000E-03	-4.79142000E-03
		-2.95818000E-04	 1.46092000E-02	 5.68315000E-03
		 6.09067000E-05	 1.47465000E-02	 5.67079000E-03
		-1.54849000E-04	 9.39242000E-03	 4.47761000E-03
		-1.34281000E-04	 1.44624000E-02	 2.73919000E-03
		-1.17400000E-04	 1.47252000E-02	 5.66400000E-03
		 2.25414000E-04	 9.39610000E-03	 4.46652000E-03
		 3.84961000E-05	 1.45971000E-02	 2.70925000E-03
		 1.07286000E-05	 1.43235000E-02	-2.30111000E-04
		-3.89001000E-04	 1.44718000E-02	-6.10775000E-03
		 1.42886000E-05	 1.44787000E-02	-2.22109000E-04
		-2.06255000E-04	 1.46272000E-02	-6.12670000E-03
		 2.81904000E-05	 8.81852000E-03	-1.71242000E-04
		-1.88414000E-04	 1.43521000E-02	-3.12691000E-03
		-5.42029000E-04	 8.98955000E-03	-4.79850000E-03
		 4.11658000E-04	 1.45254000E-02	 5.64436000E-03
		 2.36109000E-04	 1.46821000E-02	 5.67900000E-03
		 5.99037000E-04	 9.01594000E-03	 4.45287000E-03
		 2.10316000E-04	 1.43777000E-02	 2.66623000E-03
		-2.70314000E-05	 2.86904000E-02	-3.25390000E-04
		 2.60557000E-04	 2.87291000E-02	-8.13378000E-03
		-3.16868000E-05	 2.88798000E-02	-3.54984000E-04
		 6.36006000E-05	 2.89191000E-02	-8.18746000E-03
		 4.93903000E-08	 2.09851000E-02	-2.51789000E-04
		 1.16637000E-04	 2.86859000E-02	-4.17007000E-03
		 3.43774000E-04	 2.10730000E-02	-7.22213000E-03
		-2.93708000E-05	 2.88099000E-02	-3.40999000E-04
		 1.62364000E-04	 2.88485000E-02	-8.17248000E-03
		-5.27657000E-06	 2.11740000E-02	-2.78200000E-04
		 1.57187000E-05	 2.88754000E-02	-4.21988000E-03
		 4.07153000E-05	 2.12706000E-02	-7.26634000E-03
		-3.12672000E-04	 2.88455000E-02	 7.48079000E-03
		-1.24860000E-04	 2.90336000E-02	 7.47566000E-03
		-3.40745000E-04	 2.11634000E-02	 6.71597000E-03
		-1.70210000E-04	 2.87427000E-02	 3.51904000E-03
		-2.18825000E-04	 2.89640000E-02	 7.48817000E-03
		-4.87633000E-05	 2.13569000E-02	 6.70713000E-03
		-7.83340000E-05	 2.89310000E-02	 3.50953000E-03
		-3.61563000E-05	 2.88774000E-02	-3.80554000E-04
		-1.36152000E-04	 2.89157000E-02	-8.18792000E-03
		-3.39892000E-05	 2.89027000E-02	-3.68111000E-04
		-3.66870000E-05	 2.89422000E-02	-8.20610000E-03
		-1.11428000E-05	 2.10740000E-02	-3.00264000E-04
		-8.55252000E-05	 2.88730000E-02	-4.21763000E-03
		-2.56837000E-04	 2.11716000E-02	-7.26984000E-03
		 6.56153000E-05	 2.90273000E-02	 7.42552000E-03
		-2.93401000E-05	 2.90559000E-02	 7.46842000E-03
		 2.36433000E-04	 2.12548000E-02	 6.66657000E-03
		 1.37561000E-05	 2.89264000E-02	 3.45621000E-03
		-7.90319000E-05	 4.55101000E-02	-4.93643000E-04
		 2.11315000E-04	 4.54410000E-02	-8.79037000E-03
		-8.22523000E-05	 4.58221000E-02	-5.20920000E-04
		 2.36745000E-04	 4.57436000E-02	-8.83172000E-03
		-5.50137000E-05	 3.70642000E-02	-4.09214000E-04
		 6.91606000E-05	 4.54813000E-02	-4.63888000E-03
		 1.77572000E-04	 3.70493000E-02	-8.63012000E-03
		-8.08382000E-05	 4.56626000E-02	-5.06991000E-04
		 2.23695000E-04	 4.55861000E-02	-8.78810000E-03
		-5.88638000E-05	 3.72689000E-02	-4.38259000E-04
		 7.70148000E-05	 4.57895000E-02	-4.64923000E-03
		 1.08610000E-04	 3.72443000E-02	-8.68394000E-03
		-3.70722000E-04	 4.55721000E-02	 7.80374000E-03
		-4.01633000E-04	 4.58777000E-02	 7.79091000E-03
		-2.87461000E-04	 3.71780000E-02	 7.81043000E-03
		-2.27377000E-04	 4.55468000E-02	 3.65173000E-03
		-3.86356000E-04	 4.57182000E-02	 7.77488000E-03
		-2.25615000E-04	 3.73742000E-02	 7.80708000E-03
		-2.41431000E-04	 4.58559000E-02	 3.60756000E-03
		-8.43682000E-05	 4.61478000E-02	-5.48601000E-04
		 2.58332000E-04	 4.60721000E-02	-8.84575000E-03
		-8.34883000E-05	 4.59805000E-02	-5.34887000E-04
		 2.47157000E-04	 4.59021000E-02	-8.87703000E-03
		-6.19163000E-05	 3.73967000E-02	-4.65080000E-04
		 8.58141000E-05	 4.61162000E-02	-4.63332000E-03
		 2.81035000E-05	 3.73696000E-02	-8.68535000E-03
		-4.26927000E-04	 4.62066000E-02	 7.74954000E-03
		-4.14054000E-04	 4.60379000E-02	 7.80836000E-03
		-1.51125000E-04	 3.74984000E-02	 7.75558000E-03
		-2.54361000E-04	 4.61814000E-02	 3.53629000E-03
		-1.15317000E-04	 6.14572000E-02	-6.39441000E-04
		 5.83991000E-04	 6.13693000E-02	-8.58695000E-03
		-1.18001000E-04	 6.21800000E-02	-6.71313000E-04
		 6.28096000E-04	 6.20939000E-02	-8.61409000E-03
		-9.78902000E-05	 5.36348000E-02	-5.70790000E-04
		 2.34041000E-04	 6.14191000E-02	-4.65563000E-03
		 3.82869000E-04	 5.35550000E-02	-8.71281000E-03
		-1.16269000E-04	 6.18114000E-02	-6.54805000E-04
		 6.06557000E-04	 6.17255000E-02	-8.56867000E-03
		-1.01036000E-04	 5.41483000E-02	-5.98528000E-04
		 2.54879000E-04	 6.21437000E-02	-4.65415000E-03
		 4.35886000E-04	 5.40632000E-02	-8.74300000E-03
		-8.14063000E-04	 6.14952000E-02	 7.31029000E-03
		-8.62317000E-04	 6.22185000E-02	 7.27280000E-03
		-5.80049000E-04	 5.36827000E-02	 7.57267000E-03
		-4.64472000E-04	 6.14836000E-02	 3.37700000E-03
		-8.38022000E-04	 6.18498000E-02	 7.26135000E-03
		-6.37945000E-04	 5.41929000E-02	 7.54702000E-03
		-4.90235000E-04	 6.22066000E-02	 3.31182000E-03
		-1.20930000E-04	 6.29484000E-02	-7.03017000E-04
		 6.78699000E-04	 6.28689000E-02	-8.64776000E-03
		-1.19780000E-04	 6.25585000E-02	-6.87607000E-04
		 6.53151000E-04	 6.24733000E-02	-8.65562000E-03
		-1.03726000E-04	 5.47096000E-02	-6.27853000E-04
		 2.76903000E-04	 6.29161000E-02	-4.66099000E-03
		 4.90188000E-04	 5.46298000E-02	-8.77022000E-03
		-9.17869000E-04	 6.29903000E-02	 7.24212000E-03
		-8.90238000E-04	 6.25974000E-02	 7.28093000E-03
		-6.96723000E-04	 5.47590000E-02	 7.51494000E-03
		-5.17976000E-04	 6.29763000E-02	 3.25512000E-03
		-1.65684000E-04	 7.68620000E-02	-7.57401000E-04
		 7.70379000E-04	 7.67867000E-02	-8.57713000E-03
		-1.63601000E-04	 7.77759000E-02	-8.00794000E-04
		 7.66025000E-04	 7.77107000E-02	-8.60756000E-03
		-1.37124000E-04	 6.91291000E-02	-6.99601000E-04
		 3.01650000E-04	 7.68224000E-02	-4.67440000E-03
		 7.30193000E-04	 6.90488000E-02	-8.54683000E-03
		-1.64880000E-04	 7.73205000E-02	-7.79780000E-04
		 7.67758000E-04	 7.72520000E-02	-8.59132000E-03
		-1.38199000E-04	 6.99969000E-02	-7.38512000E-04
		 3.03266000E-04	 7.77419000E-02	-4.70886000E-03
		 7.43453000E-04	 6.99247000E-02	-8.57550000E-03
		-1.09636000E-03	 7.69156000E-02	 7.06128000E-03
		-1.08799000E-03	 7.78324000E-02	 7.00533000E-03
		-1.00073000E-03	 6.91771000E-02	 7.14888000E-03
		-6.31639000E-04	 7.68880000E-02	 3.15921000E-03
		-1.09186000E-03	 7.73765000E-02	 7.03098000E-03
		-1.01581000E-03	 7.00476000E-02	 7.09883000E-03
		-6.28589000E-04	 7.78029000E-02	 3.10711000E-03
		-1.60800000E-04	 7.87001000E-02	-8.39516000E-04
		 7.76204000E-04	 7.86399000E-02	-8.64365000E-03
		-1.62114000E-04	 7.82372000E-02	-8.20606000E-04
		 7.72314000E-04	 7.81734000E-02	-8.62386000E-03
		-1.38995000E-04	 7.08875000E-02	-7.74015000E-04
		 3.07386000E-04	 7.86696000E-02	-4.74701000E-03
		 7.71218000E-04	 7.08227000E-02	-8.61179000E-03
		-1.09356000E-03	 7.87567000E-02	 6.96479000E-03
		-1.09158000E-03	 7.82929000E-02	 6.98244000E-03
		-1.04536000E-03	 7.09407000E-02	 7.06332000E-03
		-6.27679000E-04	 7.87273000E-02	 3.06806000E-03
		 0.00000000E+00	 0.00000000E+00	 0.00000000E+00
		 0.00000000E+00	 0.00000000E+00	 0.00000000E+00
		-7.84936000E-05	-4.54031000E-03	 3.49532000E-05
		-1.22443000E-03	-4.72387000E-03	 3.99384000E-03
		 0.00000000E+00	 0.00000000E+00	 0.00000000E+00
		 0.00000000E+00	 0.00000000E+00	 0.00000000E+00
		-7.56777000E-05	-5.50317000E-03	-3.30500000E-05
		-8.46695000E-04	-5.69405000E-03	 3.99933000E-03
		 0.00000000E+00	 0.00000000E+00	 0.00000000E+00
		-2.26948000E-05	-1.10480000E-03	 2.10937000E-05
		-6.54728000E-04	-4.55430000E-03	 1.96744000E-03
		-9.76307000E-04	-1.45755000E-03	 2.21503000E-03
		 0.00000000E+00	 0.00000000E+00	 0.00000000E+00
		 0.00000000E+00	 0.00000000E+00	 0.00000000E+00
		-7.52351000E-05	-5.09625000E-03	-1.57482000E-06
		-1.02999000E-03	-5.28083000E-03	 3.93854000E-03
		 0.00000000E+00	 0.00000000E+00	 0.00000000E+00
		-2.13534000E-05	-1.72974000E-03	-1.31833000E-05
		-4.62650000E-04	-5.51708000E-03	 1.87336000E-03
		-3.85513000E-04	-2.06936000E-03	 2.14108000E-03
		 0.00000000E+00	 0.00000000E+00	 0.00000000E+00
		 1.07034000E-03	-4.67691000E-03	-3.92910000E-03
		 0.00000000E+00	 0.00000000E+00	 0.00000000E+00
		 7.00818000E-04	-5.65470000E-03	-4.06904000E-03
		 0.00000000E+00	 0.00000000E+00	 0.00000000E+00
		 9.36388000E-04	-1.42894000E-03	-2.17535000E-03
		 4.97730000E-04	-4.53184000E-03	-1.89903000E-03
		 0.00000000E+00	 0.00000000E+00	 0.00000000E+00
		 8.83127000E-04	-5.23685000E-03	-3.94629000E-03
		 0.00000000E+00	 0.00000000E+00	 0.00000000E+00
		 3.49967000E-04	-2.05809000E-03	-2.17014000E-03
		 3.10550000E-04	-5.49842000E-03	-1.94121000E-03
		 0.00000000E+00	 0.00000000E+00	 0.00000000E+00
		 0.00000000E+00	 0.00000000E+00	 0.00000000E+00
		-7.89609000E-05	-6.08502000E-03	-9.38657000E-05
		-4.62194000E-04	-6.24773000E-03	 3.86835000E-03
		 0.00000000E+00	 0.00000000E+00	 0.00000000E+00
		 0.00000000E+00	 0.00000000E+00	 0.00000000E+00
		-7.61489000E-05	-5.86711000E-03	-6.30487000E-05
		-6.56615000E-04	-6.04007000E-03	 4.02296000E-03
		 0.00000000E+00	 0.00000000E+00	 0.00000000E+00
		-3.04247000E-05	-1.83887000E-03	-4.43983000E-05
		-2.71429000E-04	-6.08773000E-03	 1.69471000E-03
		 2.22946000E-04	-2.14631000E-03	 2.14901000E-03
		 0.00000000E+00	 0.00000000E+00	 0.00000000E+00
		 3.09267000E-04	-6.21821000E-03	-4.05649000E-03
		 0.00000000E+00	 0.00000000E+00	 0.00000000E+00
		 5.08854000E-04	-6.01010000E-03	-4.15097000E-03
		 0.00000000E+00	 0.00000000E+00	 0.00000000E+00
		-2.77313000E-04	-2.15072000E-03	-2.24181000E-03
		 1.14760000E-04	-6.07527000E-03	-1.88300000E-03
		-2.43303000E-04	-1.44093000E-02	 2.43036000E-05
		-2.15401000E-03	-1.45307000E-02	 5.71697000E-03
		-2.33356000E-04	-1.62543000E-02	-7.55996000E-05
		-2.00670000E-03	-1.63619000E-02	 5.63652000E-03
		-1.56579000E-04	-9.15233000E-03	 3.35196000E-05
		-1.20269000E-03	-1.44609000E-02	 2.91348000E-03
		-1.63201000E-03	-9.34586000E-03	 5.07118000E-03
		-2.39193000E-04	-1.53445000E-02	-2.84561000E-05
		-2.07974000E-03	-1.54523000E-02	 5.60000000E-03
		-1.51183000E-04	-1.05142000E-02	-5.47946000E-05
		-1.11385000E-03	-1.62969000E-02	 2.75115000E-03
		-1.38172000E-03	-1.06913000E-02	 5.01309000E-03
		 1.67337000E-03	-1.44427000E-02	-5.67153000E-03
		 1.53805000E-03	-1.62862000E-02	-5.78817000E-03
		 1.32225000E-03	-9.27746000E-03	-5.00841000E-03
		 7.17458000E-04	-1.44146000E-02	-2.86655000E-03
		 1.60595000E-03	-1.53769000E-02	-5.65659000E-03
		 1.08337000E-03	-1.06320000E-02	-5.12598000E-03
		 6.51715000E-04	-1.62597000E-02	-2.89994000E-03
		-2.28453000E-04	-1.79519000E-02	-1.70319000E-04
		-1.82537000E-03	-1.80335000E-02	 5.52211000E-03
		-2.30933000E-04	-1.71109000E-02	-1.21004000E-04
		-1.91480000E-03	-1.72401000E-02	 5.66982000E-03
		-1.50047000E-04	-1.16171000E-02	-1.36035000E-04
		-1.03438000E-03	-1.79770000E-02	 2.55830000E-03
		-1.12170000E-03	-1.17854000E-02	 4.90245000E-03
		 1.39371000E-03	-1.79779000E-02	-5.86311000E-03
		 1.46553000E-03	-1.71450000E-02	-5.91474000E-03
		 8.35104000E-04	-1.17421000E-02	-5.17558000E-03
		 5.84532000E-04	-1.79517000E-02	-2.89537000E-03
		-3.89484000E-04	-2.56785000E-02	-2.59768000E-05
		-3.66060000E-03	-2.56663000E-02	 6.13880000E-03
		-3.71891000E-04	-2.89212000E-02	-1.07922000E-04
		-3.64973000E-03	-2.90222000E-02	 6.08151000E-03
		-3.23459000E-04	-1.99509000E-02	 5.89373000E-06
		-2.01926000E-03	-2.56731000E-02	 3.11656000E-03
		-2.84614000E-03	-2.00332000E-02	 6.08006000E-03
		-3.80294000E-04	-2.73013000E-02	-6.35752000E-05
		-3.65840000E-03	-2.73580000E-02	 5.98702000E-03
		-3.11321000E-04	-2.24348000E-02	-9.33107000E-05
		-2.03378000E-03	-2.89761000E-02	 2.91077000E-03
		-2.76445000E-03	-2.25199000E-02	 6.00402000E-03
		 2.83974000E-03	-2.56163000E-02	-6.17617000E-03
		 2.89704000E-03	-2.88700000E-02	-6.31552000E-03
		 2.19332000E-03	-1.99440000E-02	-6.06984000E-03
		 1.22643000E-03	-2.56495000E-02	-3.15677000E-03
		 2.86578000E-03	-2.72388000E-02	-6.12834000E-03
		 2.14250000E-03	-2.24152000E-02	-6.19146000E-03
		 1.26427000E-03	-2.89029000E-02	-3.14650000E-03
		-3.56432000E-04	-3.22084000E-02	-1.93007000E-04
		-3.72868000E-03	-3.24290000E-02	 5.97054000E-03
		-3.63764000E-04	-3.05756000E-02	-1.52284000E-04
		-3.69189000E-03	-3.06095000E-02	 6.18679000E-03
		-2.90993000E-04	-2.48496000E-02	-1.90371000E-04
		-2.01198000E-03	-3.23274000E-02	 2.64885000E-03
		-2.68970000E-03	-2.49502000E-02	 5.88853000E-03
		 2.96368000E-03	-3.21724000E-02	-6.39988000E-03
		 2.92988000E-03	-3.05139000E-02	-6.50875000E-03
		 2.06546000E-03	-2.48112000E-02	-6.27102000E-03
		 1.29850000E-03	-3.22070000E-02	-3.07945000E-03
		-3.92771000E-04	-3.63530000E-02	-1.17390000E-04
		-5.06797000E-03	-3.61251000E-02	 4.80633000E-03
		-3.73733000E-04	-4.12284000E-02	-1.25512000E-04
		-5.48032000E-03	-4.14715000E-02	 4.81191000E-03
		-4.45826000E-04	-3.13069000E-02	-6.77307000E-05
		-2.72796000E-03	-3.62789000E-02	 2.39530000E-03
		-4.43846000E-03	-3.12769000E-02	 5.67641000E-03
		-3.83905000E-04	-3.87153000E-02	-1.20608000E-04
		-5.26626000E-03	-3.86700000E-02	 4.73174000E-03
		-4.32061000E-04	-3.54262000E-02	-1.63143000E-04
		-2.80274000E-03	-4.13753000E-02	 2.31377000E-03
		-4.66019000E-03	-3.53520000E-02	 5.68818000E-03
		 4.10549000E-03	-3.61668000E-02	-5.03827000E-03
		 4.42483000E-03	-4.08823000E-02	-5.05915000E-03
		 3.51400000E-03	-3.11749000E-02	-5.80809000E-03
		 1.85511000E-03	-3.63056000E-02	-2.62862000E-03
		 4.26746000E-03	-3.84816000E-02	-4.97050000E-03
		 3.71888000E-03	-3.52493000E-02	-5.90823000E-03
		 2.01526000E-03	-4.10748000E-02	-2.56437000E-03
		-4.83831000E-04	-4.64443000E-02	-1.40793000E-04
		-5.75843000E-03	-4.70650000E-02	 4.78322000E-03
		-4.27861000E-04	-4.37590000E-02	-1.32506000E-04
		-5.61903000E-03	-4.47107000E-02	 4.89001000E-03
		-4.35798000E-04	-3.97393000E-02	-2.89433000E-04
		-3.23513000E-03	-4.67655000E-02	 2.19966000E-03
		-4.72669000E-03	-3.95635000E-02	 5.58966000E-03
		 4.77796000E-03	-4.59344000E-02	-5.05965000E-03