<?xml version="1.0"?>
<VTKFile type="UnstructuredGrid" version="0.1" byte_order="LittleEndian">
	<UnstructuredGrid>
		<Piece NumberOfPoints="522" NumberOfCells="64">
			<Points>
				<DataArray type="Float64" NumberOfComponents="3" format="ascii">
					 1.00000000E+00	 1.00000000E+00	-5.96046000E-08
					 1.00000000E+00	 5.00000000E-01	-5.96046000E-08
					 1.00000000E+00	 5.00000000E-01	 1.00000000E+00
					 1.00000000E+00	 1.00000000E+00	 1.00000000E+00
					 5.00000000E-01	 1.00000000E+00	-5.96046000E-08
					 5.00000000E-01	 5.00000000E-01	-5.96046000E-08
					 5.00000000E-01	 5.00000000E-01	 1.00000000E+00
					 5.00000000E-01	 1.00000000E+00	 1.00000000E+00
					 1.00000000E+00	 7.50000000E-01	-5.96046000E-08
					 1.00000000E+00	 5.00000000E-01	 5.00000000E-01
					 1.00000000E+00	 7.50000000E-01	 1.00000000E+00
					 1.00000000E+00	 1.00000000E+00	 5.00000000E-01
					 7.50000000E-01	 1.00000000E+00	-5.96046000E-08
					 7.50000000E-01	 5.00000000E-01	-5.96046000E-08
					 7.50000000E-01	 5.00000000E-01	 1.00000000E+00
					 7.50000000E-01	 1.00000000E+00	 1.00000000E+00
					 5.00000000E-01	 7.50000000E-01	-5.96046000E-08
					 5.00000000E-01	 5.00000000E-01	 5.00000000E-01
					 5.00000000E-01	 7.50000000E-01	 1.00000000E+00
					 5.00000000E-01	 1.00000000E+00	 5.00000000E-01
					 1.00000000E+00	-1.49012000E-08	-5.96046000E-08
					 1.00000000E+00	-1.49012000E-08	 1.00000000E+00
					 5.00000000E-01	-1.49012000E-08	-5.96046000E-08
					 5.00000000E-01	-1.49012000E-08	 1.00000000E+00
					 1.00000000E+00	 2.50000000E-01	-5.96046000E-08
					 1.00000000E+00	-1.49012000E-08	 5.00000000E-01
					 1.00000000E+00	 2.50000000E-01	 1.00000000E+00
					 7.50000000E-01	-1.49012000E-08	-5.96046000E-08
					 7.50000000E-01	-1.49012000E-08	 1.00000000E+00
					 5.00000000E-01	 2.50000000E-01	-5.96046000E-08
					 5.00000000E-01	-1.49012000E-08	 5.00000000E-01
					 5.00000000E-01	 2.50000000E-01	 1.00000000E+00
					-7.45058000E-09	 1.00000000E+00	-5.96046000E-08
					-7.45058000E-09	 5.00000000E-01	-5.96046000E-08
					-7.45058000E-09	 5.00000000E-01	 1.00000000E+00
					-7.45058000E-09	 1.00000000E+00	 1.00000000E+00
					 2.50000000E-01	 1.00000000E+00	-5.96046000E-08
					 2.50000000E-01	 5.00000000E-01	-5.96046000E-08
					 2.50000000E-01	 5.00000000E-01	 1.00000000E+00
					 2.50000000E-01	 1.00000000E+00	 1.00000000E+00
					-7.45058000E-09	 7.50000000E-01	-5.96046000E-08
					-7.45058000E-09	 5.00000000E-01	 5.00000000E-01
					-7.45058000E-09	 7.50000000E-01	 1.00000000E+00
					-7.45058000E-09	 1.00000000E+00	 5.00000000E-01
					-7.45058000E-09	-1.49012000E-08	-5.96046000E-08
					-7.45058000E-09	-1.49012000E-08	 1.00000000E+00
					 2.50000000E-01	-1.49012000E-08	-5.96046000E-08
					 2.50000000E-01	-1.49012000E-08	 1.00000000E+00
					-7.45058000E-09	 2.50000000E-01	-5.96046000E-08
					-7.45058000E-09	-1.49012000E-08	 5.00000000E-01
					-7.45058000E-09	 2.50000000E-01	 1.00000000E+00
					 1.00000000E+00	 5.00000000E-01	 2.00000000E+00
					 1.00000000E+00	 1.00000000E+00	 2.00000000E+00
					 5.00000000E-01	 5.00000000E-01	 2.00000000E+00
					 5.00000000E-01	 1.00000000E+00	 2.00000000E+00
					 1.00000000E+00	 5.00000000E-01	 1.50000000E+00
					 1.00000000E+00	 7.50000000E-01	 2.00000000E+00
					 1.00000000E+00	 1.00000000E+00	 1.50000000E+00
					 7.50000000E-01	 5.00000000E-01	 2.00000000E+00
					 7.50000000E-01	 1.00000000E+00	 2.00000000E+00
					 5.00000000E-01	 5.00000000E-01	 1.50000000E+00
					 5.00000000E-01	 7.50000000E-01	 2.00000000E+00
					 5.00000000E-01	 1.00000000E+00	 1.50000000E+00
					 1.00000000E+00	-1.49012000E-08	 2.00000000E+00
					 5.00000000E-01	-1.49012000E-08	 2.00000000E+00
					 1.00000000E+00	-1.49012000E-08	 1.50000000E+00
					 1.00000000E+00	 2.50000000E-01	 2.00000000E+00
					 7.50000000E-01	-1.49012000E-08	 2.00000000E+00
					 5.00000000E-01	-1.49012000E-08	 1.50000000E+00
					 5.00000000E-01	 2.50000000E-01	 2.00000000E+00
					-7.45058000E-09	 5.00000000E-01	 2.00000000E+00
					-7.45058000E-09	 1.00000000E+00	 2.00000000E+00
					 2.50000000E-01	 5.00000000E-01	 2.00000000E+00
					 2.50000000E-01	 1.00000000E+00	 2.00000000E+00
					-7.45058000E-09	 5.00000000E-01	 1.50000000E+00
					-7.45058000E-09	 7.50000000E-01	 2.00000000E+00
					-7.45058000E-09	 1.00000000E+00	 1.50000000E+00
					-7.45058000E-09	-1.49012000E-08	 2.00000000E+00
					 2.50000000E-01	-1.49012000E-08	 2.00000000E+00
					-7.45058000E-09	-1.49012000E-08	 1.50000000E+00
					-7.45058000E-09	 2.50000000E-01	 2.00000000E+00
					 1.00000000E+00	 5.00000000E-01	 3.00000000E+00
					 1.00000000E+00	 1.00000000E+00	 3.00000000E+00
					 5.00000000E-01	 5.00000000E-01	 3.00000000E+00
					 5.00000000E-01	 1.00000000E+00	 3.00000000E+00
					 1.00000000E+00	 5.00000000E-01	 2.50000000E+00
					 1.00000000E+00	 7.50000000E-01	 3.00000000E+00
					 1.00000000E+00	 1.00000000E+00	 2.50000000E+00
					 7.50000000E-01	 5.00000000E-01	 3.00000000E+00
					 7.50000000E-01	 1.00000000E+00	 3.00000000E+00
					 5.00000000E-01	 5.00000000E-01	 2.50000000E+00
					 5.00000000E-01	 7.50000000E-01	 3.00000000E+00
					 5.00000000E-01	 1.00000000E+00	 2.50000000E+00
					 1.00000000E+00	-1.49012000E-08	 3.00000000E+00
					 5.00000000E-01	-1.49012000E-08	 3.00000000E+00
					 1.00000000E+00	-1.49012000E-08	 2.50000000E+00
					 1.00000000E+00	 2.50000000E-01	 3.00000000E+00
					 7.50000000E-01	-1.49012000E-08	 3.00000000E+00
					 5.00000000E-01	-1.49012000E-08	 2.50000000E+00
					 5.00000000E-01	 2.50000000E-01	 3.00000000E+00
					-7.45058000E-09	 5.00000000E-01	 3.00000000E+00
					-7.45058000E-09	 1.00000000E+00	 3.00000000E+00
					 2.50000000E-01	 5.00000000E-01	 3.00000000E+00
					 2.50000000E-01	 1.00000000E+00	 3.00000000E+00
					-7.45058000E-09	 5.00000000E-01	 2.50000000E+00
					-7.45058000E-09	 7.50000000E-01	 3.00000000E+00
					-7.45058000E-09	 1.00000000E+00	 2.50000000E+00
					-7.45058000E-09	-1.49012000E-08	 3.00000000E+00
					 2.50000000E-01	-1.49012000E-08	 3.00000000E+00
					-7.45058000E-09	-1.49012000E-08	 2.50000000E+00
					-7.45058000E-09	 2.50000000E-01	 3.00000000E+00
					 1.00000000E+00	 5.00000000E-01	 4.00000000E+00
					 1.00000000E+00	 1.00000000E+00	 4.00000000E+00
					 5.00000000E-01	 5.00000000E-01	 4.00000000E+00
					 5.00000000E-01	 1.00000000E+00	 4.00000000E+00
					 1.00000000E+00	 5.00000000E-01	 3.50000000E+00
					 1.00000000E+00	 7.50000000E-01	 4.00000000E+00
					 1.00000000E+00	 1.00000000E+00	 3.50000000E+00
					 7.50000000E-01	 5.00000000E-01	 4.00000000E+00
					 7.50000000E-01	 1.00000000E+00	 4.00000000E+00
					 5.00000000E-01	 5.00000000E-01	 3.50000000E+00
					 5.00000000E-01	 7.50000000E-01	 4.00000000E+00
					 5.00000000E-01	 1.00000000E+00	 3.50000000E+00
					 1.00000000E+00	-1.49012000E-08	 4.00000000E+00
					 5.00000000E-01	-1.49012000E-08	 4.00000000E+00
					 1.00000000E+00	-1.49012000E-08	 3.50000000E+00
					 1.00000000E+00	 2.50000000E-01	 4.00000000E+00
					 7.50000000E-01	-1.49012000E-08	 4.00000000E+00
					 5.00000000E-01	-1.49012000E-08	 3.50000000E+00
					 5.00000000E-01	 2.50000000E-01	 4.00000000E+00
					-7.45058000E-09	 5.00000000E-01	 4.00000000E+00
					-7.45058000E-09	 1.00000000E+00	 4.00000000E+00
					 2.50000000E-01	 5.00000000E-01	 4.00000000E+00
					 2.50000000E-01	 1.00000000E+00	 4.00000000E+00
					-7.45058000E-09	 5.00000000E-01	 3.50000000E+00
					-7.45058000E-09	 7.50000000E-01	 4.00000000E+00
					-7.45058000E-09	 1.00000000E+00	 3.50000000E+00
					-7.45058000E-09	-1.49012000E-08	 4.00000000E+00
					 2.50000000E-01	-1.49012000E-08	 4.00000000E+00
					-7.45058000E-09	-1.49012000E-08	 3.50000000E+00
					-7.45058000E-09	 2.50000000E-01	 4.00000000E+00
					 1.00000000E+00	 5.00000000E-01	 5.00000000E+00
					 1.00000000E+00	 1.00000000E+00	 5.00000000E+00
					 5.00000000E-01	 5.00000000E-01	 5.00000000E+00
					 5.00000000E-01	 1.00000000E+00	 5.00000000E+00
					 1.00000000E+00	 5.00000000E-01	 4.50000000E+00
					 1.00000000E+00	 7.50000000E-01	 5.00000000E+00
					 1.00000000E+00	 1.00000000E+00	 4.50000000E+00
					 7.50000000E-01	 5.00000000E-01	 5.00000000E+00
					 7.50000000E-01	 1.00000000E+00	 5.00000000E+00
					 5.00000000E-01	 5.00000000E-01	 4.50000000E+00
					 5.00000000E-01	 7.50000000E-01	 5.00000000E+00
					 5.00000000E-01	 1.00000000E+00	 4.50000000E+00
					 1.00000000E+00	-1.49012000E-08	 5.00000000E+00
					 5.00000000E-01	-1.49012000E-08	 5.00000000E+00
					 1.00000000E+00	-1.49012000E-08	 4.50000000E+00
					 1.00000000E+00	 2.50000000E-01	 5.00000000E+00
					 7.50000000E-01	-1.49012000E-08	 5.00000000E+00
					 5.00000000E-01	-1.49012000E-08	 4.50000000E+00
					 5.00000000E-01	 2.50000000E-01	 5.00000000E+00
					-7.45058000E-09	 5.00000000E-01	 5.00000000E+00
					-7.45058000E-09	 1.00000000E+00	 5.00000000E+00
					 2.50000000E-01	 5.00000000E-01	 5.00000000E+00
					 2.50000000E-01	 1.00000000E+00	 5.00000000E+00
					-7.45058000E-09	 5.00000000E-01	 4.50000000E+00
					-7.45058000E-09	 7.50000000E-01	 5.00000000E+00
					-7.45058000E-09	 1.00000000E+00	 4.50000000E+00
					-7.45058000E-09	-1.49012000E-08	 5.00000000E+00
					 2.50000000E-01	-1.49012000E-08	 5.00000000E+00
					-7.45058000E-09	-1.49012000E-08	 4.50000000E+00
					-7.45058000E-09	 2.50000000E-01	 5.00000000E+00
					 1.00000000E+00	 5.00000000E-01	 6.00000000E+00
					 1.00000000E+00	 1.00000000E+00	 6.00000000E+00
					 5.00000000E-01	 5.00000000E-01	 6.00000000E+00
					 5.00000000E-01	 1.00000000E+00	 6.00000000E+00
					 1.00000000E+00	 5.00000000E-01	 5.50000000E+00
					 1.00000000E+00	 7.50000000E-01	 6.00000000E+00
					 1.00000000E+00	 1.00000000E+00	 5.50000000E+00
					 7.50000000E-01	 5.00000000E-01	 6.00000000E+00
					 7.50000000E-01	 1.00000000E+00	 6.00000000E+00
					 5.00000000E-01	 5.00000000E-01	 5.50000000E+00
					 5.00000000E-01	 7.50000000E-01	 6.00000000E+00
					 5.00000000E-01	 1.00000000E+00	 5.50000000E+00
					 1.00000000E+00	-1.49012000E-08	 6.00000000E+00
[...]
			<PointData>
				<DataArray type="Float32" Name="U" NumberOfComponents="3" ComponentName0="D1" ComponentName1="D2" ComponentName2="D3" format="ascii">
					 0.00000000E+00	 0.00000000E+00	 0.00000000E+00
					 0.00000000E+00	 0.00000000E+00	 0.00000000E+00
					-1.06104000E-05	-5.07720000E-03	-1.44968000E-05
					 3.04142000E-04	-5.22333000E-03	 3.34159000E-03
					 0.00000000E+00	 0.00000000E+00	 0.00000000E+00
					 0.00000000E+00	 0.00000000E+00	 0.00000000E+00
					-1.05213000E-05	-4.59951000E-03	-1.53010000E-05
					 6.32767000E-04	-4.76020000E-03	 3.39973000E-03
					 0.00000000E+00	 0.00000000E+00	 0.00000000E+00
					-5.47951000E-06	-1.53608000E-03	-2.45935000E-06
					 1.46623000E-04	-5.08291000E-03	 1.50841000E-03
					-2.04453000E-04	-1.80389000E-03	 1.84723000E-03
					 0.00000000E+00	 0.00000000E+00	 0.00000000E+00
					 0.00000000E+00	 0.00000000E+00	 0.00000000E+00
					-1.08199000E-05	-4.90032000E-03	-1.54250000E-05
					 4.71172000E-04	-5.05512000E-03	 3.44094000E-03
					 0.00000000E+00	 0.00000000E+00	 0.00000000E+00
					-6.21427000E-06	-1.43132000E-03	-4.65705000E-06
					 3.10759000E-04	-4.60981000E-03	 1.60208000E-03
					 3.18401000E-04	-1.71831000E-03	 1.81045000E-03
					 0.00000000E+00	 0.00000000E+00	 0.00000000E+00
					-3.24030000E-04	-5.19630000E-03	-3.37386000E-03
					 0.00000000E+00	 0.00000000E+00	 0.00000000E+00
					-6.51049000E-04	-4.73467000E-03	-3.43427000E-03
					 0.00000000E+00	 0.00000000E+00	 0.00000000E+00
					 1.94435000E-04	-1.79300000E-03	-1.85391000E-03
					-1.67621000E-04	-5.07065000E-03	-1.53789000E-03
					 0.00000000E+00	 0.00000000E+00	 0.00000000E+00
					-4.90337000E-04	-5.02799000E-03	-3.47589000E-03
					 0.00000000E+00	 0.00000000E+00	 0.00000000E+00
					-3.29019000E-04	-1.70974000E-03	-1.82222000E-03
					-3.30746000E-04	-4.59796000E-03	-1.63379000E-03
					 0.00000000E+00	 0.00000000E+00	 0.00000000E+00
					 0.00000000E+00	 0.00000000E+00	 0.00000000E+00
					-8.80865000E-06	-3.79430000E-03	-1.29729000E-05
					 9.61152000E-04	-3.93993000E-03	 3.34272000E-03
					 0.00000000E+00	 0.00000000E+00	 0.00000000E+00
					 0.00000000E+00	 0.00000000E+00	 0.00000000E+00
					-9.86178000E-06	-4.26002000E-03	-1.46500000E-05
					 7.93626000E-04	-4.41194000E-03	 3.32817000E-03
					 0.00000000E+00	 0.00000000E+00	 0.00000000E+00
					-6.49571000E-06	-8.88880000E-04	-4.15269000E-06
					 4.77325000E-04	-3.80033000E-03	 1.62277000E-03
					 8.17667000E-04	-1.17887000E-03	 1.84457000E-03
					 0.00000000E+00	 0.00000000E+00	 0.00000000E+00
					-9.75129000E-04	-3.91752000E-03	-3.37202000E-03
					 0.00000000E+00	 0.00000000E+00	 0.00000000E+00
					-8.10161000E-04	-4.38792000E-03	-3.36084000E-03
					 0.00000000E+00	 0.00000000E+00	 0.00000000E+00
					-8.28559000E-04	-1.17135000E-03	-1.85674000E-03
					-4.93746000E-04	-3.79023000E-03	-1.64976000E-03
					-1.91694000E-05	-1.45880000E-02	-6.07825000E-05
					 8.77849000E-04	-1.46987000E-02	 4.82240000E-03
					-1.75361000E-05	-1.36278000E-02	-5.42773000E-05
					 1.02514000E-03	-1.37282000E-02	 4.83292000E-03
					-1.51416000E-05	-9.60288000E-03	-3.48536000E-05
					 4.23840000E-04	-1.46341000E-02	 2.36330000E-03
					 6.75158000E-04	-9.77368000E-03	 4.24525000E-03
					-1.84607000E-05	-1.41218000E-02	-5.75484000E-05
					 9.50966000E-04	-1.42216000E-02	 4.83835000E-03
					-1.42938000E-05	-8.82090000E-03	-3.25491000E-05
					 5.04972000E-04	-1.36707000E-02	 2.38296000E-03
					 8.85103000E-04	-8.97347000E-03	 4.27044000E-03
					-9.17696000E-04	-1.46503000E-02	-4.94460000E-03
					-1.06064000E-03	-1.36772000E-02	-4.94193000E-03
					-7.05715000E-04	-9.73520000E-03	-4.31921000E-03
					-4.62592000E-04	-1.46110000E-02	-2.48496000E-03
					-9.89178000E-04	-1.41715000E-02	-4.95386000E-03
					-9.12449000E-04	-8.93439000E-03	-4.33866000E-03
					-5.40056000E-04	-1.36455000E-02	-2.49154000E-03
					-1.49043000E-05	-1.25018000E-02	-4.73504000E-05
					 1.18699000E-03	-1.26008000E-02	 4.83422000E-03
					-1.62176000E-05	-1.30767000E-02	-5.09333000E-05
					 1.10765000E-03	-1.31765000E-02	 4.82704000E-03
					-1.21629000E-05	-7.80650000E-03	-2.79420000E-05
					 5.87744000E-04	-1.25413000E-02	 2.39262000E-03
					 1.11666000E-03	-7.95650000E-03	 4.25185000E-03
					-1.21609000E-03	-1.25494000E-02	-4.92941000E-03
					-1.13955000E-03	-1.31250000E-02	-4.92942000E-03
					-1.13871000E-03	-7.91867000E-03	-4.30975000E-03
					-6.17409000E-04	-1.25160000E-02	-2.48721000E-03
					-2.84304000E-05	-2.52736000E-02	-1.17720000E-04
					 8.07749000E-04	-2.54216000E-02	 5.91544000E-03
					-3.09050000E-05	-2.43247000E-02	-1.08626000E-04
					 1.02779000E-03	-2.44751000E-02	 5.91661000E-03
					-2.23319000E-05	-1.97310000E-02	-8.70386000E-05
					 3.91092000E-04	-2.53186000E-02	 2.93489000E-03
					 8.88245000E-04	-1.98610000E-02	 5.32191000E-03
					-2.96320000E-05	-2.48286000E-02	-1.14064000E-04
					 9.17499000E-04	-2.49791000E-02	 5.90165000E-03
					-2.23924000E-05	-1.87409000E-02	-7.86338000E-05
					 4.97903000E-04	-2.43702000E-02	 2.92829000E-03
					 1.05793000E-03	-1.88631000E-02	 5.32174000E-03
					-8.66328000E-04	-2.53435000E-02	-6.15195000E-03
					-1.08828000E-03	-2.43944000E-02	-6.13426000E-03
					-9.34157000E-04	-1.97989000E-02	-5.49465000E-03
					-4.48254000E-04	-2.52773000E-02	-3.17036000E-03
					-9.76946000E-04	-2.48997000E-02	-6.13080000E-03
					-1.10179000E-03	-1.87996000E-02	-5.47818000E-03
					-5.58939000E-04	-2.43284000E-02	-3.14556000E-03
					-3.04900000E-05	-2.31561000E-02	-9.88779000E-05
					 1.25104000E-03	-2.33032000E-02	 5.93510000E-03
					-3.15801000E-05	-2.37696000E-02	-1.03125000E-04
					 1.13870000E-03	-2.39190000E-02	 5.92530000E-03
					-2.08214000E-05	-1.75698000E-02	-7.12269000E-05
					 6.09218000E-04	-2.31999000E-02	 2.94206000E-03
					 1.23593000E-03	-1.76926000E-02	 5.33621000E-03
					-1.30870000E-03	-2.32237000E-02	-6.13253000E-03
					-1.19914000E-03	-2.38382000E-02	-6.13146000E-03
					-1.27474000E-03	-1.76311000E-02	-5.47866000E-03
					-6.69047000E-04	-2.31597000E-02	-3.13969000E-03
					-2.12675000E-05	-3.89034000E-02	-2.20116000E-04
					 7.69245000E-04	-3.90855000E-02	 7.49234000E-03
					-2.22450000E-05	-3.79837000E-02	-2.01235000E-04
					 1.01308000E-03	-3.81705000E-02	 7.51960000E-03
					-2.93263000E-05	-3.15843000E-02	-1.62519000E-04
					 3.75351000E-04	-3.89621000E-02	 3.61208000E-03
					 7.46862000E-04	-3.17453000E-02	 6.69082000E-03
					-2.15000000E-05	-3.84751000E-02	-2.10349000E-04
					 8.91856000E-04	-3.86605000E-02	 7.51442000E-03
					-3.19623000E-05	-3.06704000E-02	-1.48343000E-04
					 4.95635000E-04	-3.80443000E-02	 3.64261000E-03
					 1.00413000E-03	-3.08414000E-02	 6.70332000E-03
					-8.16989000E-04	-3.89651000E-02	-7.93932000E-03
					-1.06048000E-03	-3.80437000E-02	-7.92885000E-03
					-8.09841000E-04	-3.16487000E-02	-7.02003000E-03
					-4.19428000E-04	-3.89022000E-02	-4.05433000E-03
					-9.39199000E-04	-3.85361000E-02	-7.94189000E-03
					-1.06930000E-03	-3.07385000E-02	-7.00336000E-03
					-5.41066000E-04	-3.79804000E-02	-4.04683000E-03
					-2.29682000E-05	-3.68287000E-02	-1.77064000E-04
					 1.26275000E-03	-3.70089000E-02	 7.53692000E-03
					-2.30292000E-05	-3.74368000E-02	-1.90713000E-04
					 1.13714000E-03	-3.76224000E-02	 7.52934000E-03
					-3.26156000E-05	-2.95092000E-02	-1.30327000E-04
					 6.18028000E-04	-3.68866000E-02	 3.66204000E-03
					 1.25829000E-03	-2.96783000E-02	 6.72483000E-03
					-1.30875000E-03	-3.68806000E-02	-7.89754000E-03
					-1.18462000E-03	-3.74945000E-02	-7.91715000E-03
					-1.32229000E-03	-2.95738000E-02	-6.98774000E-03
					-6.63865000E-04	-3.68218000E-02	-4.01784000E-03
					-1.59609000E-05	-5.59142000E-02	-3.65562000E-04
					 7.17768000E-04	-5.60676000E-02	 8.61420000E-03
					-1.42896000E-05	-5.51239000E-02	-3.51723000E-04
					 8.40052000E-04	-5.52688000E-02	 8.63761000E-03
					-1.57955000E-05	-4.71412000E-02	-2.87225000E-04
					 3.48010000E-04	-5.59755000E-02	 4.12998000E-03
					 8.05615000E-04	-4.73143000E-02	 8.14634000E-03
					-1.52401000E-05	-5.55357000E-02	-3.59452000E-04
					 7.79881000E-04	-5.56806000E-02	 8.59951000E-03
					-1.56509000E-05	-4.62307000E-02	-2.69693000E-04
					 4.13851000E-04	-5.51803000E-02	 4.12197000E-03
					 9.85204000E-04	-4.63983000E-02	 8.17814000E-03
					-7.49502000E-04	-5.59107000E-02	-9.35189000E-03
					-8.71907000E-04	-5.51112000E-02	-9.34711000E-03
					-8.39237000E-04	-4.71721000E-02	-8.72916000E-03
					-3.79970000E-04	-5.58981000E-02	-4.86321000E-03
					-8.11620000E-04	-5.55248000E-02	-9.32453000E-03
					-1.01940000E-03	-4.62533000E-02	-8.72563000E-03
					-4.43684000E-04	-5.51034000E-02	-4.82723000E-03
					-1.31104000E-05	-5.42022000E-02	-3.31812000E-04
					 9.75719000E-04	-5.43453000E-02	 8.64915000E-03
					-1.32677000E-05	-5.46778000E-02	-3.42184000E-04
					 9.07881000E-04	-5.48235000E-02	 8.67994000E-03
					-1.57417000E-05	-4.51367000E-02	-2.46639000E-04
					 4.81336000E-04	-5.42569000E-02	 4.10222000E-03
					 1.18006000E-03	-4.52970000E-02	 8.18851000E-03
					-1.00752000E-03	-5.41818000E-02	-9.31852000E-03
					-9.39633000E-04	-5.46626000E-02	-9.37006000E-03
					-1.21416000E-03	-4.51493000E-02	-8.68956000E-03
					-5.09192000E-04	-5.41772000E-02	-4.76775000E-03
					-1.69704000E-05	-7.41072000E-02	-5.36262000E-04
					 8.39250000E-05	-7.42505000E-02	 9.15512000E-03
					-1.27327000E-05	-7.39581000E-02	-5.32416000E-04
					 1.86891000E-04	-7.40988000E-02	 9.15985000E-03
					-1.62084000E-05	-6.49166000E-02	-4.50036000E-04
					 3.29542000E-05	-7.41671000E-02	 4.37154000E-03
					 4.62172000E-04	-6.50668000E-02	 8.91101000E-03
					-1.55297000E-05	-7.40457000E-02	-5.34639000E-04
					 1.34586000E-04	-7.41858000E-02	 9.09403000E-03
					-1.25492000E-05	-6.43946000E-02	-4.40630000E-04
					 8.70471000E-05	-7.40155000E-02	 4.31337000E-03
					 5.60811000E-04	-6.45356000E-02	 8.92360000E-03
					-1.15714000E-04	-7.40670000E-02	-1.02286000E-02
					-2.14292000E-04	-7.39174000E-02	-1.02260000E-02
					-4.94377000E-04	-6.48985000E-02	-9.81431000E-03
					-6.63140000E-05	-7.40740000E-02	-5.44484000E-03
					-1.65248000E-04	-7.40064000E-02	-1.01638000E-02
					-5.89183000E-04	-6.43672000E-02	-9.80785000E-03
					-1.13333000E-04	-7.39259000E-02	-5.37873000E-03
					-9.15336000E-06	-7.37053000E-02	-5.27208000E-04
					 2.90947000E-04	-7.38482000E-02	 9.16546000E-03
					-1.00807000E-05	-7.38441000E-02	-5.29880000E-04
					 2.39885000E-04	-7.39871000E-02	 9.22312000E-03
					-9.80184000E-06	-6.37655000E-02	-4.26216000E-04
					 1.40952000E-04	-7.37628000E-02	 4.25822000E-03
					 6.72644000E-04	-6.39050000E-02	 8.93609000E-03
					-3.14742000E-04	-7.36612000E-02	-1.02217000E-02
					-2.64254000E-04	-7.38014000E-02	-1.02850000E-02
					-6.98420000E-04	-6.37301000E-02	-9.79150000E-03
					-1.61029000E-04	-7.36721000E-02	-5.31298000E-03
					-1.68460000E-05	-9.35468000E-02	-7.22542000E-04
					-6.18977000E-04	-9.36868000E-02	 9.61278000E-03
					-1.39447000E-05	-9.41077000E-02	-7.34346000E-04
					-5.33902000E-04	-9.42509000E-02	 9.60755000E-03
					-1.64508000E-05	-8.36069000E-02	-6.26047000E-04
					-3.16965000E-04	-9.36068000E-02	 4.46751000E-03
					-3.10669000E-04	-8.37473000E-02	 9.40581000E-03
					-1.57212000E-05	-9.38366000E-02	-7.29078000E-04
					-5.76826000E-04	-9.39791000E-02	 9.57256000E-03
					-1.36143000E-05	-8.38490000E-02	-6.29410000E-04
					-2.74439000E-04	-9.41680000E-02	 4.42104000E-03
					-2.05153000E-04	-8.39921000E-02	 9.40513000E-03
					 5.93544000E-04	-9.34703000E-02	-1.10605000E-02
					 5.05882000E-04	-9.40414000E-02	-1.10784000E-02
					 2.83913000E-04	-8.35452000E-02	-1.06586000E-02
					 2.85511000E-04	-9.34974000E-02	-5.91331000E-03
					 5.51086000E-04	-9.37696000E-02	-1.10333000E-02
					 1.78131000E-04	-8.37956000E-02	-1.06654000E-02
					 2.46542000E-04	-9.40657000E-02	-5.89022000E-03
					-9.80288000E-06	-9.45871000E-02	-7.40445000E-04
					-4.61236000E-04	-9.47406000E-02	 9.59433000E-03
					-1.18702000E-05	-9.43586000E-02	-7.37438000E-04
					-4.98046000E-04	-9.45052000E-02	 9.64643000E-03
					-1.04537000E-05	-8.39905000E-02	-6.32566000E-04
					-2.33546000E-04	-9.46527000E-02	 4.36652000E-03
					-1.08664000E-04	-8.41393000E-02	 9.40001000E-03
					 4.33001000E-04	-9.45225000E-02	-1.10766000E-02
					 4.68384000E-04	-9.42915000E-02	-1.11222000E-02
					 8.25586000E-05	-8.39380000E-02	-1.06672000E-02
					 2.11513000E-04	-9.45467000E-02	-5.84840000E-03
					-1.72097000E-05	-1.14464000E-01	-9.39823000E-04
					-8.40378000E-04	-1.14573000E-01	 9.62834000E-03
					-1.14883000E-06	-1.15282000E-01	-9.52818000E-04
					-8.17654000E-04	-1.15394000E-01	 9.62109000E-03
					-1.82931000E-05	-1.03907000E-01	-8.28277000E-04
					-4.28698000E-04	-1.14518000E-01	 4.33597000E-03
					-7.96507000E-04	-1.04026000E-01	 9.68254000E-03
					-1.17845000E-05	-1.14873000E-01	-9.47686000E-04
					-8.31945000E-04	-1.14984000E-01	 9.62388000E-03
					-1.09934000E-05	-1.04663000E-01	-8.44020000E-04
					-4.10579000E-04	-1.15338000E-01	 4.32493000E-03
					-7.47810000E-04	-1.04785000E-01	 9.67406000E-03
					 8.14680000E-04	-1.14357000E-01	-1.15118000E-02
					 8.08318000E-04	-1.15188000E-01	-1.15324000E-02
					 7.68734000E-04	-1.03806000E-01	-1.13437000E-02
					 3.95899000E-04	-1.14412000E-01	-6.21608000E-03
					 8.11838000E-04	-1.14776000E-01	-1.15245000E-02
					 7.21513000E-04	-1.04573000E-01	-1.13657000E-02
					 4.05863000E-04	-1.15238000E-01	-6.23187000E-03
					 1.40174000E-05	-1.16080000E-01	-9.51795000E-04
					-8.18664000E-04	-1.16218000E-01	 9.60630000E-03
					 9.24046000E-06	-1.15681000E-01	-9.53848000E-04
					-8.15963000E-04	-1.15803000E-01	 9.62054000E-03
					-3.38225000E-06	-1.05376000E-01	-8.46345000E-04
					-4.00372000E-04	-1.16150000E-01	 4.31009000E-03
					-7.15438000E-04	-1.05515000E-01	 9.65986000E-03
					 8.24935000E-04	-1.15985000E-01	-1.15154000E-02
					 8.16666000E-04	-1.15587000E-01	-1.15331000E-02
					 6.92070000E-04	-1.05284000E-01	-1.13544000E-02
					 4.23121000E-04	-1.16034000E-01	-6.21558000E-03
					 0.00000000E+00	 0.00000000E+00	 0.00000000E+00
					 0.00000000E+00	 0.00000000E+00	 0.00000000E+00
					-3.93436000E-05	-5.13528000E-03	 1.34759000E-04
					-2.41838000E-03	-5.60489000E-03	 6.62567000E-03
					 0.00000000E+00	 0.00000000E+00	 0.00000000E+00
					 0.00000000E+00	 0.00000000E+00	 0.00000000E+00
					-1.43972000E-05	-7.06035000E-03	 1.16126000E-04
					-1.50588000E-03	-7.56053000E-03	 6.67590000E-03
					 0.00000000E+00	 0.00000000E+00	 0.00000000E+00
					-3.20696000E-05	-6.50882000E-04	 7.21888000E-05
					-1.23099000E-03	-5.21846000E-03	 3.45898000E-03
					-1.72636000E-03	-1.27062000E-03	 3.32186000E-03
					 0.00000000E+00	 0.00000000E+00	 0.00000000E+00
					 0.00000000E+00	 0.00000000E+00	 0.00000000E+00
					-2.64073000E-05	-6.24636000E-03	 1.22593000E-04
					-1.95565000E-03	-6.72783000E-03	 6.50991000E-03
					 0.00000000E+00	 0.00000000E+00	 0.00000000E+00
					-1.07380000E-05	-1.82859000E-03	 5.65840000E-05
					-7.60486000E-04	-7.15124000E-03	 3.33288000E-03
					-7.48368000E-04	-2.42409000E-03	 3.21247000E-03
					 0.00000000E+00	 0.00000000E+00	 0.00000000E+00
					 2.33488000E-03	-5.45250000E-03	-6.37237000E-03
					 0.00000000E+00	 0.00000000E+00	 0.00000000E+00
					 1.48085000E-03	-7.40385000E-03	-6.45903000E-03
					 0.00000000E+00	 0.00000000E+00	 0.00000000E+00
					 1.65927000E-03	-1.18425000E-03	-3.17334000E-03
					 1.15092000E-03	-5.13844000E-03	-3.19616000E-03
					 0.00000000E+00	 0.00000000E+00	 0.00000000E+00
					 1.90265000E-03	-6.57379000E-03	-6.27967000E-03
					 0.00000000E+00	 0.00000000E+00	 0.00000000E+00
					 7.30738000E-04	-2.34272000E-03	-3.09159000E-03
					 7.31784000E-04	-7.07198000E-03	-3.10744000E-03
					 0.00000000E+00	 0.00000000E+00	 0.00000000E+00
					 0.00000000E+00	 0.00000000E+00	 0.00000000E+00
					 1.21386000E-05	-8.12035000E-03	 1.10039000E-04
					-5.84496000E-04	-8.58221000E-03	 6.60540000E-03
					 0.00000000E+00	 0.00000000E+00	 0.00000000E+00
					 0.00000000E+00	 0.00000000E+00	 0.00000000E+00
					-1.39335000E-06	-7.73694000E-03	 1.10952000E-04
					-1.05040000E-03	-8.21681000E-03	 6.77001000E-03
					 0.00000000E+00	 0.00000000E+00	 0.00000000E+00
					 9.50084000E-06	-2.12914000E-03	 5.72848000E-05
					-2.87270000E-04	-8.19525000E-03	 3.16564000E-03
					 2.82400000E-04	-2.68966000E-03	 3.30884000E-03
					 0.00000000E+00	 0.00000000E+00	 0.00000000E+00
					 6.15092000E-04	-8.42968000E-03	-6.39564000E-03
					 0.00000000E+00	 0.00000000E+00	 0.00000000E+00
					 1.05188000E-03	-8.06357000E-03	-6.56189000E-03
					 0.00000000E+00	 0.00000000E+00	 0.00000000E+00
					-2.56921000E-04	-2.61151000E-03	-3.18746000E-03
					 3.14266000E-04	-8.12287000E-03	-2.94987000E-03
					 1.23959000E-05	-2.36437000E-02	 1.05150000E-04
					-3.37061000E-03	-2.41034000E-02	 1.19291000E-02
					 4.72881000E-05	-2.66928000E-02	 9.28766000E-05
					-2.70372000E-03	-2.71732000E-02	 1.19631000E-02
					-2.68517000E-05	-1.28660000E-02	 1.49454000E-04
					-1.67361000E-03	-2.38008000E-02	 5.96276000E-03
					-3.03231000E-03	-1.33722000E-02	 9.55529000E-03
					 2.89348000E-05	-2.52368000E-02	 9.57049000E-05
					-3.03814000E-03	-2.57107000E-02	 1.19081000E-02
					 8.35343000E-07	-1.54509000E-02	 1.29130000E-04
					-1.32356000E-03	-2.68591000E-02	 5.93740000E-03
					-2.18818000E-03	-1.59760000E-02	 9.57211000E-03
					 3.39037000E-03	-2.37483000E-02	-1.17369000E-02
					 2.79141000E-03	-2.68158000E-02	-1.17951000E-02
					 2.97110000E-03	-1.31232000E-02	-9.27704000E-03
					 1.69620000E-03	-2.36246000E-02	-5.75663000E-03
					 3.09217000E-03	-2.53602000E-02	-1.17325000E-02
					 2.18989000E-03	-1.57244000E-02	-9.33353000E-03
					 1.42123000E-03	-2.66836000E-02	-5.75246000E-03
					 8.05637000E-05	-2.91410000E-02	 9.59351000E-05
					-2.03118000E-03	-2.96021000E-02	 1.19196000E-02
					 6.33889000E-05	-2.79853000E-02	 9.38005000E-05
					-2.36753000E-03	-2.84902000E-02	 1.20290000E-02
					 3.03187000E-05	-1.72455000E-02	 1.26213000E-04
					-9.82987000E-04	-2.92939000E-02	 5.83295000E-03
					-1.36404000E-03	-1.77719000E-02	 9.53510000E-03
					 2.21822000E-03	-2.92608000E-02	-1.17461000E-02
					 2.50501000E-03	-2.81076000E-02	-1.18627000E-02
					 1.44046000E-03	-1.75292000E-02	-9.29827000E-03
					 1.15179000E-03	-2.91309000E-02	-5.64042000E-03
					 2.08893000E-04	-5.13996000E-02	-1.45078000E-04
					-3.41384000E-03	-5.16391000E-02	 1.41173000E-02
					 2.44072000E-04	-5.49392000E-02	-1.10933000E-04
					-3.26053000E-03	-5.52944000E-02	 1.42046000E-02
					 9.45360000E-05	-3.68216000E-02	 2.81413000E-06
					-1.59812000E-03	-5.15039000E-02	 6.88130000E-03
					-3.45692000E-03	-3.72057000E-02	 1.34598000E-02
					 2.27336000E-04	-5.31848000E-02	-1.24530000E-04
					-3.34009000E-03	-5.34945000E-02	 1.41428000E-02
					 1.28953000E-04	-4.01716000E-02	 8.40252000E-06
					-1.53131000E-03	-5.51062000E-02	 6.90800000E-03
					-3.04167000E-03	-4.05795000E-02	 1.35275000E-02
					 3.78819000E-03	-5.12077000E-02	-1.43956000E-02
					 3.74305000E-03	-5.47553000E-02	-1.44488000E-02
					 3.63274000E-03	-3.67769000E-02	-1.34645000E-02
					 2.00208000E-03	-5.12957000E-02	-7.16117000E-03
					 3.76314000E-03	-5.29881000E-02	-1.44086000E-02
					 3.29903000E-03	-4.01245000E-02	-1.35233000E-02
					 1.99518000E-03	-5.48447000E-02	-7.15070000E-03
					 2.79378000E-04	-5.83947000E-02	-8.02234000E-05
					-3.20668000E-03	-5.88760000E-02	 1.41779000E-02
					 2.61027000E-04	-5.66928000E-02	-9.74836000E-05
					-3.23720000E-03	-5.69821000E-02	 1.42822000E-02
					 1.74075000E-04	-4.31611000E-02	 2.03829000E-05
					-1.43063000E-03	-5.86273000E-02	 6.81988000E-03
					-2.66179000E-03	-4.35977000E-02	 1.34797000E-02
					 3.71997000E-03	-5.82416000E-02	-1.43876000E-02
					 3.73078000E-03	-5.65018000E-02	-1.45007000E-02
					 2.97189000E-03	-4.31122000E-02	-1.34548000E-02
					 1.99022000E-03	-5.83255000E-02	-7.02548000E-03
					 5.87925000E-04	-8.02015000E-02	-4.66963000E-04
					-3.15514000E-03	-8.01221000E-02	 1.26631000E-02