# vtk DataFile Version 3.0

ASCII
DATASET UNSTRUCTURED_GRID

POINTS 522 double
	 1.00000000E+00	 1.00000000E+00	-5.96046000E-08
	 1.00000000E+00	 5.00000000E-01	-5.96046000E-08
	 1.00000000E+00	 5.00000000E-01	 1.00000000E+00
	 1.00000000E+00	 1.00000000E+00	 1.00000000E+00
	 5.00000000E-01	 1.00000000E+00	-5.96046000E-08
	 5.00000000E-01	 5.00000000E-01	-5.96046000E-08
	 5.00000000E-01	 5.00000000E-01	 1.00000000E+00
	 5.00000000E-01	 1.00000000E+00	 1.00000000E+00
	 1.00000000E+00	 7.50000000E-01	-5.96046000E-08
	 1.00000000E+00	 5.00000000E-01	 5.00000000E-01
	 1.00000000E+00	 7.50000000E-01	 1.00000000E+00
	 1.00000000E+00	 1.00000000E+00	 5.00000000E-01
	 7.50000000E-01	 1.00000000E+00	-5.96046000E-08
	 7.50000000E-01	 5.00000000E-01	-5.96046000E-08
	 7.50000000E-01	 5.00000000E-01	 1.00000000E+00
	 7.50000000E-01	 1.00000000E+00	 1.00000000E+00
	 5.00000000E-01	 7.50000000E-01	-5.96046000E-08
	 5.00000000E-01	 5.00000000E-01	 5.00000000E-01
	 5.00000000E-01	 7.50000000E-01	 1.00000000E+00
	 5.00000000E-01	 1.00000000E+00	 5.00000000E-01
	 1.00000000E+00	-1.49012000E-08	-5.96046000E-08
	 1.00000000E+00	-1.49012000E-08	 1.00000000E+00
	 5.00000000E-01	-1.49012000E-08	-5.96046000E-08
	 5.00000000E-01	-1.49012000E-08	 1.00000000E+00
	 1.00000000E+00	 2.50000000E-01	-5.96046000E-08
	 1.00000000E+00	-1.49012000E-08	 5.00000000E-01
	 1.00000000E+00	 2.50000000E-01	 1.00000000E+00
	 7.50000000E-01	-1.49012000E-08	-5.96046000E-08
	 7.50000000E-01	-1.49012000E-08	 1.00000000E+00
	 5.00000000E-01	 2.50000000E-01	-5.96046000E-08
	 5.00000000E-01	-1.49012000E-08	 5.00000000E-01
	 5.00000000E-01	 2.50000000E-01	 1.00000000E+00
	-7.45058000E-09	 1.00000000E+00	-5.96046000E-08
	-7.45058000E-09	 5.00000000E-01	-5.96046000E-08
	-7.45058000E-09	 5.00000000E-01	 1.00000000E+00
	-7.45058000E-09	 1.00000000E+00	 1.00000000E+00
	 2.50000000E-01	 1.00000000E+00	-5.96046000E-08
	 2.50000000E-01	 5.00000000E-01	-5.96046000E-08
	 2.50000000E-01	 5.00000000E-01	 1.00000000E+00
	 2.50000000E-01	 1.00000000E+00	 1.00000000E+00
	-7.45058000E-09	 7.50000000E-01	-5.96046000E-08
	-7.45058000E-09	 5.00000000E-01	 5.00000000E-01
	-7.45058000E-09	 7.50000000E-01	 1.00000000E+00
	-7.45058000E-09	 1.00000000E+00	 5.00000000E-01
	-7.45058000E-09	-1.49012000E-08	-5.96046000E-08
	-7.45058000E-09	-1.49012000E-08	 1.00000000E+00
	 2.50000000E-01	-1.49012000E-08	-5.96046000E-08
	 2.50000000E-01	-1.49012000E-08	 1.00000000E+00
	-7.45058000E-09	 2.50000000E-01	-5.96046000E-08
	-7.45058000E-09	-1.49012000E-08	 5.00000000E-01
	-7.45058000E-09	 2.50000000E-01	 1.00000000E+00
	 1.00000000E+00	 5.00000000E-01	 2.00000000E+00
	 1.00000000E+00	 1.00000000E+00	 2.00000000E+00
	 5.00000000E-01	 5.00000000E-01	 2.00000000E+00
	 5.00000000E-01	 1.00000000E+00	 2.00000000E+00
	 1.00000000E+00	 5.00000000E-01	 1.50000000E+00
	 1.00000000E+00	 7.50000000E-01	 2.00000000E+00
	 1.00000000E+00	 1.00000000E+00	 1.50000000E+00
	 7.50000000E-01	 5.00000000E-01	 2.00000000E+00
	 7.50000000E-01	 1.00000000E+00	 2.00000000E+00
	 5.00000000E-01	 5.00000000E-01	 1.50000000E+00
	 5.00000000E-01	 7.50000000E-01	 2.00000000E+00
	 5.00000000E-01	 1.00000000E+00	 1.50000000E+00
	 1.00000000E+00	-1.49012000E-08	 2.00000000E+00
	 5.00000000E-01	-1.49012000E-08	 2.00000000E+00
	 1.00000000E+00	-1.49012000E-08	 1.50000000E+00
	 1.00000000E+00	 2.50000000E-01	 2.00000000E+00
	 7.50000000E-01	-1.49012000E-08	 2.00000000E+00
	 5.00000000E-01	-1.49012000E-08	 1.50000000E+00
	 5.00000000E-01	 2.50000000E-01	 2.00000000E+00
	-7.45058000E-09	 5.00000000E-01	 2.00000000E+00
	-7.45058000E-09	 1.00000000E+00	 2.00000000E+00
	 2.50000000E-01	 5.00000000E-01	 2.00000000E+00
	 2.50000000E-01	 1.00000000E+00	 2.00000000E+00
	-7.45058000E-09	 5.00000000E-01	 1.50000000E+00
	-7.45058000E-09	 7.50000000E-01	 2.00000000E+00
	-7.45058000E-09	 1.00000000E+00	 1.50000000E+00
	-7.45058000E-09	-1.49012000E-08	 2.00000000E+00
	 2.50000000E-01	-1.49012000E-08	 2.00000000E+00
	-7.45058000E-09	-1.49012000E-08	 1.50000000E+00
	-7.45058000E-09	 2.50000000E-01	 2.00000000E+00
	 1.00000000E+00	 5.00000000E-01	 3.00000000E+00
	 1.00000000E+00	 1.00000000E+00	 3.00000000E+00
	 5.00000000E-01	 5.00000000E-01	 3.00000000E+00
	 5.00000000E-01	 1.00000000E+00	 3.00000000E+00
	 1.00000000E+00	 5.00000000E-01	 2.50000000E+00
	 1.00000000E+00	 7.50000000E-01	 3.00000000E+00
	 1.00000000E+00	 1.00000000E+00	 2.50000000E+00
	 7.50000000E-01	 5.00000000E-01	 3.00000000E+00
	 7.50000000E-01	 1.00000000E+00	 3.00000000E+00
	 5.00000000E-01	 5.00000000E-01	 2.50000000E+00
	 5.00000000E-01	 7.50000000E-01	 3.00000000E+00
	 5.00000000E-01	 1.00000000E+00	 2.50000000E+00
	 1.00000000E+00	-1.49012000E-08	 3.00000000E+00
	 5.00000000E-01	-1.49012000E-08	 3.00000000E+00
	 1.00000000E+00	-1.49012000E-08	 2.50000000E+00
	 1.00000000E+00	 2.50000000E-01	 3.00000000E+00
	 7.50000000E-01	-1.49012000E-08	 3.00000000E+00
	 5.00000000E-01	-1.49012000E-08	 2.50000000E+00
	 5.00000000E-01	 2.50000000E-01	 3.00000000E+00
	-7.45058000E-09	 5.00000000E-01	 3.00000000E+00
	-7.45058000E-09	 1.00000000E+00	 3.00000000E+00
	 2.50000000E-01	 5.00000000E-01	 3.00000000E+00
	 2.50000000E-01	 1.00000000E+00	 3.00000000E+00
	-7.45058000E-09	 5.00000000E-01	 2.50000000E+00
	-7.45058000E-09	 7.50000000E-01	 3.00000000E+00
	-7.45058000E-09	 1.00000000E+00	 2.50000000E+00
	-7.45058000E-09	-1.49012000E-08	 3.00000000E+00
	 2.50000000E-01	-1.49012000E-08	 3.00000000E+00
	-7.45058000E-09	-1.49012000E-08	 2.50000000E+00
	-7.45058000E-09	 2.50000000E-01	 3.00000000E+00
	 1.00000000E+00	 5.00000000E-01	 4.00000000E+00
	 1.00000000E+00	 1.00000000E+00	 4.00000000E+00
	 5.00000000E-01	 5.00000000E-01	 4.00000000E+00
	 5.00000000E-01	 1.00000000E+00	 4.00000000E+00
	 1.00000000E+00	 5.00000000E-01	 3.50000000E+00
	 1.00000000E+00	 7.50000000E-01	 4.00000000E+00
	 1.00000000E+00	 1.00000000E+00	 3.50000000E+00
	 7.50000000E-01	 5.00000000E-01	 4.00000000E+00
	 7.50000000E-01	 1.00000000E+00	 4.00000000E+00
	 5.00000000E-01	 5.00000000E-01	 3.50000000E+00
	 5.00000000E-01	 7.50000000E-01	 4.00000000E+00
	 5.00000000E-01	 1.00000000E+00	 3.50000000E+00
	 1.00000000E+00	-1.49012000E-08	 4.00000000E+00
	 5.00000000E-01	-1.49012000E-08	 4.00000000E+00
	 1.00000000E+00	-1.49012000E-08	 3.50000000E+00
	 1.00000000E+00	 2.50000000E-01	 4.00000000E+00
	 7.50000000E-01	-1.49012000E-08	 4.00000000E+00
	 5.00000000E-01	-1.49012000E-08	 3.50000000E+00
	 5.00000000E-01	 2.50000000E-01	 4.00000000E+00
	-7.45058000E-09	 5.00000000E-01	 4.00000000E+00
	-7.45058000E-09	 1.00000000E+00	 4.00000000E+00
	 2.50000000E-01	 5.00000000E-01	 4.00000000E+00
	 2.50000000E-01	 1.00000000E+00	 4.00000000E+00
	-7.45058000E-09	 5.00000000E-01	 3.50000000E+00
	-7.45058000E-09	 7.50000000E-01	 4.00000000E+00
	-7.45058000E-09	 1.00000000E+00	 3.50000000E+00
	-7.45058000E-09	-1.49012000E-08	 4.00000000E+00
	 2.50000000E-01	-1.49012000E-08	 4.00000000E+00
	-7.45058000E-09	-1.49012000E-08	 3.50000000E+00
	-7.45058000E-09	 2.50000000E-01	 4.00000000E+00
	 1.00000000E+00	 5.00000000E-01	 5.00000000E+00
	 1.00000000E+00	 1.00000000E+00	 5.00000000E+00
	 5.00000000E-01	 5.00000000E-01	 5.00000000E+00
	 5.00000000E-01	 1.00000000E+00	 5.00000000E+00
	 1.00000000E+00	 5.00000000E-01	 4.50000000E+00
	 1.00000000E+00	 7.50000000E-01	 5.00000000E+00
	 1.00000000E+00	 1.00000000E+00	 4.50000000E+00
	 7.50000000E-01	 5.00000000E-01	 5.00000000E+00
	 7.50000000E-01	 1.00000000E+00	 5.00000000E+00
	 5.00000000E-01	 5.00000000E-01	 4.50000000E+00
	 5.00000000E-01	 7.50000000E-01	 5.00000000E+00
	 5.00000000E-01	 1.00000000E+00	 4.50000000E+00
	 1.00000000E+00	-1.49012000E-08	 5.00000000E+00
	 5.00000000E-01	-1.49012000E-08	 5.00000000E+00
	 1.00000000E+00	-1.49012000E-08	 4.50000000E+00
	 1.00000000E+00	 2.50000000E-01	 5.00000000E+00
	 7.50000000E-01	-1.49012000E-08	 5.00000000E+00
	 5.00000000E-01	-1.49012000E-08	 4.50000000E+00
	 5.00000000E-01	 2.50000000E-01	 5.00000000E+00
	-7.45058000E-09	 5.00000000E-01	 5.00000000E+00
	-7.45058000E-09	 1.00000000E+00	 5.00000000E+00
	 2.50000000E-01	 5.00000000E-01	 5.00000000E+00
	 2.50000000E-01	 1.00000000E+00	 5.00000000E+00
	-7.45058000E-09	 5.00000000E-01	 4.50000000E+00
	-7.45058000E-09	 7.50000000E-01	 5.00000000E+00
	-7.45058000E-09	 1.00000000E+00	 4.50000000E+00
	-7.45058000E-09	-1.49012000E-08	 5.00000000E+00
	 2.50000000E-01	-1.49012000E-08	 5.00000000E+00
	-7.45058000E-09	-1.49012000E-08	 4.50000000E+00
	-7.45058000E-09	 2.50000000E-01	 5.00000000E+00
	 1.00000000E+00	 5.00000000E-01	 6.00000000E+00
	 1.00000000E+00	 1.00000000E+00	 6.00000000E+00
	 5.00000000E-01	 5.00000000E-01	 6.00000000E+00
	 5.00000000E-01	 1.00000000E+00	 6.00000000E+00
	 1.00000000E+00	 5.00000000E-01	 5.50000000E+00
	 1.00000000E+00	 7.50000000E-01	 6.00000000E+00
	 1.00000000E+00	 1.00000000E+00	 5.50000000E+00
	 7.50000000E-01	 5.00000000E-01	 6.00000000E+00
	 7.50000000E-01	 1.00000000E+00	 6.00000000E+00
	 5.00000000E-01	 5.00000000E-01	 5.50000000E+00
	 5.00000000E-01	 7.50000000E-01	 6.00000000E+00
	 5.00000000E-01	 1.00000000E+00	 5.50000000E+00
	 1.00000000E+00	-1.49012000E-08	 6.00000000E+00
	 5.00000000E-01	-1.49012000E-08	 6.00000000E+00
	 1.00000000E+00	-1.49012000E-08	 5.50000000E+00
	 1.00000000E+00	 2.50000000E-01	 6.00000000E+00
	 7.50000000E-01	-1.49012000E-08	 6.00000000E+00
	 5.00000000E-01	-1.49012000E-08	 5.50000000E+00
	 5.00000000E-01	 2.50000000E-01	 6.00000000E+00
	-7.45058000E-09	 5.00000000E-01	 6.00000000E+00
	-7.45058000E-09	 1.00000000E+00	 6.00000000E+00
	 2.50000000E-01	 5.00000000E-01	 6.00000000E+00
	 2.50000000E-01	 1.00000000E+00	 6.00000000E+00
	-7.45058000E-09	 5.00000000E-01	 5.50000000E+00
	-7.45058000E-09	 7.50000000E-01	 6.00000000E+00
	-7.45058000E-09	 1.00000000E+00	 5.50000000E+00
	-7.45058000E-09	-1.49012000E-08	 6.00000000E+00
	 2.50000000E-01	-1.49012000E-08	 6.00000000E+00
	-7.45058000E-09	-1.49012000E-08	 5.50000000E+00
	-7.45058000E-09	 2.50000000E-01	 6.00000000E+00
	 1.00000000E+00	 5.00000000E-01	 7.00000000E+00
[...]
POINT_DATA 522
FIELD U 1
	U 3 522 double
		 0.00000000E+00	 0.00000000E+00	 0.00000000E+00
		 0.00000000E+00	 0.00000000E+00	 0.00000000E+00
		 5.90106000E-06	-3.34680000E-03	 7.06735000E-06
		-1.15654000E-03	-3.54231000E-03	 3.51890000E-03
		 0.00000000E+00	 0.00000000E+00	 0.00000000E+00
		 0.00000000E+00	 0.00000000E+00	 0.00000000E+00
		 1.01557000E-05	-4.30214000E-03	 3.93217000E-06
		-7.46959000E-04	-4.51081000E-03	 3.56783000E-03
		 0.00000000E+00	 0.00000000E+00	 0.00000000E+00
		 9.44802000E-07	-6.24304000E-04	 4.59784000E-06
		-5.76749000E-04	-3.36778000E-03	 1.75983000E-03
		-8.79495000E-04	-9.37217000E-04	 1.84644000E-03
		 0.00000000E+00	 0.00000000E+00	 0.00000000E+00
		 0.00000000E+00	 0.00000000E+00	 0.00000000E+00
		 8.10825000E-06	-3.89790000E-03	 5.16116000E-06
		-9.47529000E-04	-4.09794000E-03	 3.47952000E-03
		 0.00000000E+00	 0.00000000E+00	 0.00000000E+00
		 3.05413000E-06	-1.21923000E-03	 4.19546000E-06
		-3.67835000E-04	-4.32507000E-03	 1.71558000E-03
		-3.60418000E-04	-1.52357000E-03	 1.80282000E-03
		 0.00000000E+00	 0.00000000E+00	 0.00000000E+00
		 1.16869000E-03	-3.50623000E-03	-3.50869000E-03
		 0.00000000E+00	 0.00000000E+00	 0.00000000E+00
		 7.68793000E-04	-4.47700000E-03	-3.56491000E-03
		 0.00000000E+00	 0.00000000E+00	 0.00000000E+00
		 8.81123000E-04	-9.21155000E-04	-1.83906000E-03
		 5.88653000E-04	-3.34963000E-03	-1.74737000E-03
		 0.00000000E+00	 0.00000000E+00	 0.00000000E+00
		 9.65163000E-04	-4.06350000E-03	-3.47283000E-03
		 0.00000000E+00	 0.00000000E+00	 0.00000000E+00
		 3.66925000E-04	-1.50862000E-03	-1.79546000E-03
		 3.88716000E-04	-4.30891000E-03	-1.70928000E-03
		 0.00000000E+00	 0.00000000E+00	 0.00000000E+00
		 0.00000000E+00	 0.00000000E+00	 0.00000000E+00
		 1.29325000E-05	-4.86166000E-03	 4.34368000E-06
		-3.30115000E-04	-5.04504000E-03	 3.51634000E-03
		 0.00000000E+00	 0.00000000E+00	 0.00000000E+00
		 0.00000000E+00	 0.00000000E+00	 0.00000000E+00
		 1.17290000E-05	-4.65319000E-03	 3.18223000E-06
		-5.41581000E-04	-4.85294000E-03	 3.62062000E-03
		 0.00000000E+00	 0.00000000E+00	 0.00000000E+00
		 5.11868000E-06	-1.35139000E-03	 7.33655000E-06
		-1.60585000E-04	-4.87471000E-03	 1.61466000E-03
		 1.88851000E-04	-1.63365000E-03	 1.84968000E-03
		 0.00000000E+00	 0.00000000E+00	 0.00000000E+00
		 3.58282000E-04	-5.01449000E-03	-3.51215000E-03
		 0.00000000E+00	 0.00000000E+00	 0.00000000E+00
		 5.66525000E-04	-4.81963000E-03	-3.61987000E-03
		 0.00000000E+00	 0.00000000E+00	 0.00000000E+00
		-1.77978000E-04	-1.61799000E-03	-1.83624000E-03
		 1.87474000E-04	-4.86111000E-03	-1.60680000E-03
		 1.04199000E-05	-1.28181000E-02	-8.69600000E-06
		-1.67745000E-03	-1.29394000E-02	 5.52798000E-03
		 1.72488000E-05	-1.44206000E-02	-2.60404000E-05
		-1.49548000E-03	-1.45416000E-02	 5.53369000E-03
		 9.19949000E-06	-7.54846000E-03	 2.73022000E-06
		-8.34845000E-04	-1.28648000E-02	 2.74208000E-03
		-1.45119000E-03	-7.73449000E-03	 4.73799000E-03
		 1.38891000E-05	-1.36349000E-02	-1.73462000E-05
		-1.58737000E-03	-1.37562000E-02	 5.49913000E-03
		 1.45401000E-05	-8.85518000E-03	-7.26022000E-06
		-7.40803000E-04	-1.44682000E-02	 2.70288000E-03
		-1.14200000E-03	-9.04223000E-03	 4.75845000E-03
		 1.70391000E-03	-1.28561000E-02	-5.54635000E-03
		 1.53637000E-03	-1.44659000E-02	-5.58722000E-03
		 1.47215000E-03	-7.67406000E-03	-4.73502000E-03
		 8.57214000E-04	-1.28228000E-02	-2.75957000E-03
		 1.62130000E-03	-1.36778000E-02	-5.53485000E-03
		 1.17487000E-03	-8.98680000E-03	-4.77662000E-03
		 7.77422000E-04	-1.44316000E-02	-2.75525000E-03
		 2.35832000E-05	-1.58481000E-02	-4.18101000E-05
		-1.32453000E-03	-1.59703000E-02	 5.49687000E-03
		 2.05757000E-05	-1.51507000E-02	-3.44161000E-05
		-1.40953000E-03	-1.52700000E-02	 5.57477000E-03
		 1.88042000E-05	-9.86300000E-03	-1.39249000E-05
		-6.48274000E-04	-1.58940000E-02	 2.61907000E-03
		-8.44741000E-04	-1.00536000E-02	 4.72168000E-03
		 1.37792000E-03	-1.59036000E-02	-5.58242000E-03
		 1.45736000E-03	-1.51967000E-02	-5.64574000E-03
		 8.86692000E-04	-1.00040000E-02	-4.75410000E-03
		 6.97096000E-04	-1.58643000E-02	-2.70276000E-03
		 4.08902000E-06	-2.45268000E-02	-4.05851000E-05
		-2.08876000E-03	-2.46025000E-02	 6.09888000E-03
		 1.00545000E-05	-2.65945000E-02	-7.31734000E-05
		-2.02135000E-03	-2.66699000E-02	 6.06934000E-03
		 1.08629000E-05	-1.85781000E-02	-2.26517000E-05
		-1.04314000E-03	-2.45592000E-02	 3.05494000E-03
		-1.88995000E-03	-1.86792000E-02	 5.90432000E-03
		 7.54831000E-06	-2.55674000E-02	-5.71045000E-05
		-2.05578000E-03	-2.56426000E-02	 6.05624000E-03
		 1.76149000E-05	-2.04378000E-02	-4.82698000E-05
		-1.00607000E-03	-2.66276000E-02	 2.99657000E-03
		-1.78869000E-03	-2.05337000E-02	 5.89289000E-03
		 2.09585000E-03	-2.45075000E-02	-6.18074000E-03
		 2.04476000E-03	-2.65749000E-02	-6.21533000E-03
		 1.91479000E-03	-1.85872000E-02	-5.95088000E-03
		 1.05108000E-03	-2.45105000E-02	-3.13613000E-03
		 2.07136000E-03	-2.55476000E-02	-6.17111000E-03
		 1.82991000E-03	-2.04466000E-02	-5.98978000E-03
		 1.02739000E-03	-2.65790000E-02	-3.14285000E-03
		 1.57698000E-05	-2.85935000E-02	-1.07379000E-04
		-1.96411000E-03	-2.86751000E-02	 6.03463000E-03
		 1.24126000E-05	-2.76021000E-02	-8.96453000E-05
		-1.99218000E-03	-2.76785000E-02	 6.07925000E-03
		 2.39893000E-05	-2.21964000E-02	-7.45941000E-05
		-9.72081000E-04	-2.86283000E-02	 2.93558000E-03
		-1.69742000E-03	-2.22986000E-02	 5.85575000E-03
		 2.00273000E-03	-2.85881000E-02	-6.24827000E-03
		 2.02320000E-03	-2.75855000E-02	-6.25725000E-03
		 1.75390000E-03	-2.22222000E-02	-6.00465000E-03
		 1.00556000E-03	-2.85857000E-02	-3.15026000E-03
		-1.38216000E-05	-3.69257000E-02	-9.38353000E-05
		-2.33834000E-03	-3.70328000E-02	 6.56556000E-03
		-7.73259000E-06	-3.91875000E-02	-1.33092000E-04
		-2.21253000E-03	-3.92990000E-02	 6.52024000E-03
		-5.83349000E-06	-3.05831000E-02	-6.46985000E-05
		-1.17492000E-03	-3.69647000E-02	 3.25838000E-03
		-2.25609000E-03	-3.06720000E-02	 6.28935000E-03
		-1.01606000E-05	-3.80704000E-02	-1.13645000E-04
		-2.27475000E-03	-3.81811000E-02	 6.53799000E-03
		-5.12954000E-07	-3.27911000E-02	-1.00496000E-04
		-1.11015000E-03	-3.92289000E-02	 3.21294000E-03
		-2.16578000E-03	-3.28839000E-02	 6.24782000E-03
		 2.31026000E-03	-3.69258000E-02	-6.75862000E-03
		 2.19692000E-03	-3.91931000E-02	-6.79147000E-03
		 2.24321000E-03	-3.05715000E-02	-6.42091000E-03
		 1.14713000E-03	-3.69103000E-02	-3.44768000E-03
		 2.25415000E-03	-3.80745000E-02	-6.77073000E-03
		 2.16615000E-03	-3.27828000E-02	-6.45062000E-03
		 1.09444000E-03	-3.91749000E-02	-3.48059000E-03
		-3.39008000E-06	-4.13361000E-02	-1.68602000E-04
		-2.09495000E-03	-4.14495000E-02	 6.49174000E-03
		-5.72602000E-06	-4.02769000E-02	-1.51338000E-04
		-2.15436000E-03	-4.03886000E-02	 6.49958000E-03
		 4.16369000E-06	-3.49160000E-02	-1.36313000E-04
		-1.04881000E-03	-4.13789000E-02	 3.18567000E-03
		-2.08782000E-03	-3.50154000E-02	 6.21882000E-03
		 2.08864000E-03	-4.13451000E-02	-6.83348000E-03
		 2.14280000E-03	-4.02838000E-02	-6.80633000E-03
		 2.09985000E-03	-3.49184000E-02	-6.49302000E-03
		 1.04221000E-03	-4.13252000E-02	-3.52464000E-03
		-3.55266000E-05	-5.11278000E-02	-1.80639000E-04
		-2.34416000E-03	-5.12509000E-02	 7.42071000E-03
		-2.48800000E-05	-5.33577000E-02	-2.20932000E-04
		-2.19004000E-03	-5.34890000E-02	 7.38623000E-03
		-2.43969000E-05	-4.37314000E-02	-1.30567000E-04
		-1.18784000E-03	-5.11685000E-02	 3.60180000E-03
		-2.36321000E-03	-4.38497000E-02	 6.98157000E-03
		-3.09244000E-05	-5.22608000E-02	-2.01747000E-04
		-2.26769000E-03	-5.23899000E-02	 7.41153000E-03
		-1.62407000E-05	-4.59947000E-02	-1.73262000E-04
		-1.10732000E-03	-5.34021000E-02	 3.57271000E-03
		-2.21178000E-03	-4.61171000E-02	 6.93611000E-03
		 2.27446000E-03	-5.11277000E-02	-7.78687000E-03
		 2.13679000E-03	-5.33663000E-02	-7.83336000E-03
		 2.31409000E-03	-4.37361000E-02	-7.24996000E-03
		 1.11704000E-03	-5.11089000E-02	-3.96456000E-03
		 2.20543000E-03	-5.22676000E-02	-7.81968000E-03
		 2.17664000E-03	-4.60042000E-02	-7.28895000E-03
		 1.05632000E-03	-5.33426000E-02	-4.01591000E-03
		-1.44964000E-05	-5.54549000E-02	-2.54295000E-04
		-2.04385000E-03	-5.55906000E-02	 7.34643000E-03
		-1.88585000E-05	-5.44253000E-02	-2.38341000E-04
		-2.11669000E-03	-5.45585000E-02	 7.36468000E-03
		-9.63664000E-06	-4.81208000E-02	-2.08882000E-04
		-1.02911000E-03	-5.55031000E-02	 3.53792000E-03
		-2.06303000E-03	-4.82429000E-02	 6.90443000E-03
		 2.00684000E-03	-5.54589000E-02	-7.86058000E-03
		 2.07224000E-03	-5.44328000E-02	-7.84678000E-03
		 2.03909000E-03	-4.81258000E-02	-7.32737000E-03
		 9.97973000E-04	-5.54375000E-02	-4.04816000E-03
		-2.95171000E-05	-6.77056000E-02	-3.09543000E-04
		-1.90877000E-03	-6.77804000E-02	 7.85279000E-03
		-1.89377000E-05	-6.95793000E-02	-3.35575000E-04
		-1.88450000E-03	-6.96530000E-02	 7.83955000E-03
		-3.68988000E-05	-5.91888000E-02	-2.43019000E-04
		-9.69205000E-04	-6.77406000E-02	 3.69863000E-03
		-2.19935000E-03	-5.92863000E-02	 7.73828000E-03
		-2.52652000E-05	-6.86427000E-02	-3.21654000E-04
		-1.89752000E-03	-6.87189000E-02	 7.89543000E-03
		-2.44904000E-05	-6.13012000E-02	-2.75612000E-04
		-9.53054000E-04	-6.96148000E-02	 3.72585000E-03
		-2.09641000E-03	-6.14062000E-02	 7.71999000E-03
		 1.85795000E-03	-6.76348000E-02	-8.46680000E-03
		 1.84945000E-03	-6.95167000E-02	-8.50662000E-03
		 2.13064000E-03	-5.91505000E-02	-8.22393000E-03
		 9.12708000E-04	-6.76710000E-02	-4.31608000E-03
		 1.85342000E-03	-6.85774000E-02	-8.53406000E-03
		 2.04701000E-03	-6.12748000E-02	-8.27289000E-03
		 9.16078000E-04	-6.95496000E-02	-4.39575000E-03
		-8.85263000E-06	-7.14372000E-02	-3.67227000E-04
		-1.87233000E-03	-7.15196000E-02	 7.79511000E-03
		-1.27572000E-05	-7.05098000E-02	-3.51050000E-04
		-1.87825000E-03	-7.05839000E-02	 7.78560000E-03
		-1.22025000E-05	-6.33312000E-02	-3.06194000E-04
		-9.38228000E-04	-7.14777000E-02	 3.72195000E-03
		-2.00929000E-03	-6.34452000E-02	 7.67290000E-03
		 1.85193000E-03	-7.13822000E-02	-8.52651000E-03
		 1.85213000E-03	-7.04487000E-02	-8.48491000E-03
		 1.97893000E-03	-6.33082000E-02	-8.28894000E-03
		 9.19399000E-04	-7.14106000E-02	-4.45486000E-03
		-2.65930000E-05	-8.47416000E-02	-4.33430000E-04
		-1.13814000E-03	-8.48088000E-02	 7.55863000E-03
		-2.69182000E-05	-8.58758000E-02	-4.57965000E-04
		-1.17224000E-03	-8.59324000E-02	 7.53623000E-03
		-2.37876000E-05	-7.62992000E-02	-3.73666000E-04
		-5.85693000E-04	-8.47811000E-02	 3.51123000E-03
		-1.53677000E-03	-7.63655000E-02	 7.73589000E-03
		-2.62094000E-05	-8.53064000E-02	-4.46139000E-04
		-1.15379000E-03	-8.53658000E-02	 7.60488000E-03
		-2.02198000E-05	-7.78269000E-02	-3.97439000E-04
		-6.00120000E-04	-8.59096000E-02	 3.54848000E-03
		-1.55899000E-03	-7.78901000E-02	 7.71733000E-03
		 1.09375000E-03	-8.46624000E-02	-8.43016000E-03
		 1.11924000E-03	-8.57944000E-02	-8.45556000E-03
		 1.49597000E-03	-7.62182000E-02	-8.47732000E-03
		 5.34741000E-04	-8.47059000E-02	-4.38121000E-03
		 1.10847000E-03	-8.52238000E-02	-8.50069000E-03
		 1.52141000E-03	-7.77507000E-02	-8.50582000E-03
		 5.46619000E-04	-8.58391000E-02	-4.46640000E-03
		-2.61755000E-05	-8.70297000E-02	-4.78360000E-04
		-1.19593000E-03	-8.70885000E-02	 7.52439000E-03
		-2.73120000E-05	-8.64478000E-02	-4.67513000E-04
		-1.18567000E-03	-8.65043000E-02	 7.46778000E-03
		-1.62967000E-05	-7.93757000E-02	-4.28665000E-04
		-6.10525000E-04	-8.70656000E-02	 3.59681000E-03
		-1.59067000E-03	-7.94483000E-02	 7.68423000E-03
		 1.13598000E-03	-8.69424000E-02	-8.48347000E-03
		 1.12559000E-03	-8.63663000E-02	-8.40399000E-03
		 1.55690000E-03	-7.93084000E-02	-8.53502000E-03
		 5.56248000E-04	-8.69873000E-02	-4.55660000E-03
		-6.02475000E-05	-1.01064000E-01	-5.49750000E-04
		-6.79093000E-04	-1.01128000E-01	 7.36917000E-03
		-2.99336000E-05	-1.01734000E-01	-5.77266000E-04
		-6.81922000E-04	-1.01768000E-01	 7.36015000E-03
		-3.80374000E-05	-9.30010000E-02	-4.89504000E-04
		-3.70718000E-04	-1.01093000E-01	 3.40051000E-03
		-8.13770000E-04	-9.30716000E-02	 7.44302000E-03
		-4.92211000E-05	-1.01398000E-01	-5.67247000E-04
		-6.82749000E-04	-1.01443000E-01	 7.37288000E-03
		-3.03870000E-05	-9.38001000E-02	-5.16772000E-04
		-3.51065000E-04	-1.01746000E-01	 3.39693000E-03
		-8.31821000E-04	-9.38537000E-02	 7.42545000E-03
		 5.89464000E-04	-1.01029000E-01	-8.50706000E-03
		 6.17677000E-04	-1.01698000E-01	-8.55220000E-03
		 7.59416000E-04	-9.29324000E-02	-8.44920000E-03
		 2.57929000E-04	-1.01047000E-01	-4.51151000E-03
		 6.02465000E-04	-1.01366000E-01	-8.54478000E-03
		 7.68557000E-04	-9.37351000E-02	-8.48452000E-03
		 2.89727000E-04	-1.01718000E-01	-4.56166000E-03
		-4.38353000E-07	-1.02397000E-01	-5.69132000E-04
		-6.38826000E-04	-1.02432000E-01	 7.38650000E-03
		-1.09082000E-05	-1.02070000E-01	-5.77552000E-04
		-6.57810000E-04	-1.02102000E-01	 7.35771000E-03
		-2.28227000E-05	-9.45998000E-02	-5.18373000E-04
		-3.15088000E-04	-1.02412000E-01	 3.42858000E-03
		-8.26574000E-04	-9.46597000E-02	 7.44034000E-03
		 5.99149000E-04	-1.02320000E-01	-8.56061000E-03
		 6.08891000E-04	-1.02020000E-01	-8.54819000E-03
		 7.54743000E-04	-9.45135000E-02	-8.50067000E-03
		 3.04421000E-04	-1.02357000E-01	-4.57748000E-03
		 0.00000000E+00	 0.00000000E+00	 0.00000000E+00
		 0.00000000E+00	 0.00000000E+00	 0.00000000E+00
		-1.69066000E-05	-6.64391000E-03	-1.32052000E-05
		-1.22349000E-03	-7.03589000E-03	 6.34454000E-03
		 0.00000000E+00	 0.00000000E+00	 0.00000000E+00
		 0.00000000E+00	 0.00000000E+00	 0.00000000E+00
		-1.62731000E-05	-7.44462000E-03	-2.59610000E-05
		-4.23587000E-04	-7.86757000E-03	 6.41126000E-03
		 0.00000000E+00	 0.00000000E+00	 0.00000000E+00
		-7.13164000E-06	-1.43321000E-03	 5.73650000E-06
		-6.21155000E-04	-6.69667000E-03	 3.11248000E-03
		-1.17043000E-03	-1.99354000E-03	 3.28137000E-03
		 0.00000000E+00	 0.00000000E+00	 0.00000000E+00
		 0.00000000E+00	 0.00000000E+00	 0.00000000E+00
		-1.63655000E-05	-7.18124000E-03	-2.21999000E-05
		-8.18116000E-04	-7.58827000E-03	 6.34460000E-03
		 0.00000000E+00	 0.00000000E+00	 0.00000000E+00
		-7.78311000E-06	-2.06418000E-03	-3.44802000E-06
		-2.20451000E-04	-7.50758000E-03	 3.10253000E-03
		-2.11211000E-04	-2.62431000E-03	 3.18780000E-03
		 0.00000000E+00	 0.00000000E+00	 0.00000000E+00
		 1.18311000E-03	-6.94274000E-03	-6.38679000E-03
		 0.00000000E+00	 0.00000000E+00	 0.00000000E+00
		 3.91063000E-04	-7.76862000E-03	-6.48005000E-03
		 0.00000000E+00	 0.00000000E+00	 0.00000000E+00
		 1.15358000E-03	-1.95311000E-03	-3.27558000E-03
		 5.84959000E-04	-6.65036000E-03	-3.14339000E-03
		 0.00000000E+00	 0.00000000E+00	 0.00000000E+00
		 7.82571000E-04	-7.49079000E-03	-6.40573000E-03
		 0.00000000E+00	 0.00000000E+00	 0.00000000E+00
		 1.97038000E-04	-2.58725000E-03	-3.19816000E-03
		 1.86586000E-04	-7.45852000E-03	-3.16048000E-03
		 0.00000000E+00	 0.00000000E+00	 0.00000000E+00
		 0.00000000E+00	 0.00000000E+00	 0.00000000E+00
		-1.47608000E-05	-7.45874000E-03	-2.85202000E-05
		 3.80571000E-04	-7.85226000E-03	 6.33105000E-03
		 0.00000000E+00	 0.00000000E+00	 0.00000000E+00
		 0.00000000E+00	 0.00000000E+00	 0.00000000E+00
		-1.54251000E-05	-7.58923000E-03	-2.80223000E-05
		-2.65584000E-05	-7.99219000E-03	 6.41089000E-03
		 0.00000000E+00	 0.00000000E+00	 0.00000000E+00
		-8.99953000E-06	-1.84111000E-03	-4.76121000E-06
		 1.84392000E-04	-7.51202000E-03	 3.02500000E-03
		 7.60146000E-04	-2.38712000E-03	 3.27178000E-03
		 0.00000000E+00	 0.00000000E+00	 0.00000000E+00
		-4.07812000E-04	-7.75139000E-03	-6.40168000E-03
		 0.00000000E+00	 0.00000000E+00	 0.00000000E+00
		-4.46894000E-06	-7.89625000E-03	-6.48192000E-03
		 0.00000000E+00	 0.00000000E+00	 0.00000000E+00
		-7.75554000E-04	-2.34917000E-03	-3.28595000E-03
		-2.12369000E-04	-7.46331000E-03	-3.08696000E-03
		-9.83597000E-06	-2.49046000E-02	-2.05895000E-04
		-1.41215000E-03	-2.52790000E-02	 1.07512000E-02
		-1.32630000E-05	-2.60351000E-02	-2.01787000E-04
		-8.84794000E-04	-2.64148000E-02	 1.07911000E-02
		-2.02727000E-05	-1.46083000E-02	-8.15750000E-05
		-7.10304000E-04	-2.50336000E-02	 5.22581000E-03
		-1.32696000E-03	-1.50470000E-02	 8.82397000E-03
		-1.29193000E-05	-2.55280000E-02	-2.07326000E-04
		-1.14907000E-03	-2.59029000E-02	 1.07523000E-02
		-2.34496000E-05	-1.55751000E-02	-9.04150000E-05
		-4.42076000E-04	-2.61653000E-02	 5.23198000E-03
		-6.44675000E-04	-1.60126000E-02	 8.85022000E-03
		 1.39080000E-03	-2.50377000E-02	-1.11801000E-02
		 8.52320000E-04	-2.61716000E-02	-1.12100000E-02
		 1.28015000E-03	-1.48841000E-02	-9.00642000E-03
		 6.89991000E-04	-2.49134000E-02	-5.64175000E-03
		 1.12190000E-03	-2.56657000E-02	-1.11812000E-02
		 5.96334000E-04	-1.58451000E-02	-9.05002000E-03
		 4.19465000E-04	-2.60460000E-02	-5.63628000E-03
		-1.39912000E-05	-2.66444000E-02	-1.87035000E-04
		-3.23100000E-04	-2.69988000E-02	 1.07666000E-02
		-1.48433000E-05	-2.63950000E-02	-1.93463000E-04
		-6.03445000E-04	-2.67983000E-02	 1.08342000E-02
		-2.32060000E-05	-1.58541000E-02	-8.80664000E-05
		-1.77268000E-04	-2.67574000E-02	 5.17415000E-03
		 5.03517000E-05	-1.62856000E-02	 8.81643000E-03
		 3.18974000E-04	-2.67673000E-02	-1.11558000E-02
		 5.83910000E-04	-2.65302000E-02	-1.12395000E-02
		-8.50585000E-05	-1.61228000E-02	-9.00922000E-03
		 1.56374000E-04	-2.66469000E-02	-5.54741000E-03
		 1.17962000E-04	-5.03657000E-02	-6.10053000E-04
		-1.54771000E-03	-5.05390000E-02	 1.25981000E-02
		 1.11801000E-04	-5.19332000E-02	-5.40559000E-04
		-1.42242000E-03	-5.22277000E-02	 1.27164000E-02
		 3.54940000E-05	-3.70285000E-02	-3.85212000E-04
		-7.08334000E-04	-5.04324000E-02	 5.91847000E-03
		-1.48193000E-03	-3.73342000E-02	 1.20307000E-02
		 1.15349000E-04	-5.11690000E-02	-5.71967000E-04
		-1.48785000E-03	-5.14159000E-02	 1.26221000E-02
		 2.91438000E-05	-3.83638000E-02	-3.55632000E-04
		-6.78001000E-04	-5.20642000E-02	 5.96225000E-03
		-1.14398000E-03	-3.86888000E-02	 1.21107000E-02
		 1.73273000E-03	-5.02584000E-02	-1.38053000E-02
		 1.63508000E-03	-5.18275000E-02	-1.38181000E-02
		 1.53799000E-03	-3.70442000E-02	-1.28127000E-02
		 9.28365000E-04	-5.02986000E-02	-7.12767000E-03
		 1.68004000E-03	-5.10549000E-02	-1.37818000E-02
		 1.20000000E-03	-3.83667000E-02	-1.28330000E-02
		 8.75975000E-04	-5.18710000E-02	-7.06348000E-03
		 1.09731000E-04	-5.34116000E-02	-4.72922000E-04
		-1.38133000E-03	-5.38242000E-02	 1.27302000E-02
		 1.09330000E-04	-5.27004000E-02	-5.09020000E-04
		-1.40629000E-03	-5.29285000E-02	 1.28242000E-02
		 3.80462000E-05	-3.93689000E-02	-3.20008000E-04
		-6.05534000E-04	-5.36049000E-02	 5.90151000E-03
		-8.18404000E-04	-3.97148000E-02	 1.20973000E-02
		 1.55171000E-03	-5.33206000E-02	-1.37224000E-02
		 1.59287000E-03	-5.25825000E-02	-1.38633000E-02
		 8.54018000E-04	-3.93558000E-02	-1.27491000E-02
		 8.25076000E-04	-5.33675000E-02	-6.89145000E-03
		 4.66109000E-04	-7.70282000E-02	-1.07180000E-03
		-1.57364000E-03	-7.68723000E-02	 1.10586000E-02
		 4.56646000E-04	-7.93227000E-02	-9.07773000E-04
		-2.09808000E-03	-7.96286000E-02	 1.12535000E-02
		 2.29855000E-04	-6.40272000E-02	-8.49220000E-04
		-5.54717000E-04	-7.70024000E-02	 4.95737000E-03
		-1.58312000E-03	-6.41361000E-02	 1.21890000E-02
		 4.61859000E-04	-7.80899000E-02	-9.87556000E-04
		-1.82763000E-03	-7.81086000E-02	 1.11323000E-02
		 2.16645000E-04	-6.59624000E-02	-7.77126000E-04
		-6.96830000E-04	-7.95150000E-02	 5.10502000E-03
		-1.81536000E-03	-6.60241000E-02	 1.23923000E-02
		 2.32507000E-03	-7.67152000E-02	-1.31932000E-02
		 2.70485000E-03	-7.88355000E-02	-1.30562000E-02
		 2.00357000E-03	-6.38041000E-02	-1.38793000E-02
		 1.39879000E-03	-7.69318000E-02	-7.09813000E-03
		 2.51801000E-03	-7.77178000E-02	-1.30981000E-02
		 2.16951000E-03	-6.56799000E-02	-1.38353000E-02
		 1.57058000E-03	-7.91127000E-02	-6.91925000E-03
		 3.17396000E-04	-8.20240000E-02	-7.51557000E-04
		-2.47882000E-03	-8.27060000E-02	 1.13822000E-02
		 3.87128000E-04	-8.05836000E-02	-8.30040000E-04
		-2.28922000E-03	-8.15991000E-02	 1.13789000E-02
		 1.88774000E-04	-6.80672000E-02	-7.36526000E-04
		-1.19583000E-03	-8.23865000E-02	 5.18742000E-03
		-1.87184000E-03	-6.80211000E-02	 1.24397000E-02
		 3.10941000E-03	-8.13777000E-02	-1.28682000E-02