<?xml version="1.0"?>
<VTKFile type="UnstructuredGrid" version="0.1" byte_order="LittleEndian">
	<UnstructuredGrid>
		<Piece NumberOfPoints="522" NumberOfCells="64">
			<Points>
				<DataArray type="Float64" NumberOfComponents="3" format="ascii">
					 1.00000000E+00	 1.00000000E+00	-5.96046000E-08
					 1.00000000E+00	 5.00000000E-01	-5.96046000E-08
					 1.00000000E+00	 5.00000000E-01	 1.00000000E+00
					 1.00000000E+00	 1.00000000E+00	 1.00000000E+00
					 5.00000000E-01	 1.00000000E+00	-5.96046000E-08
					 5.00000000E-01	 5.00000000E-01	-5.96046000E-08
					 5.00000000E-01	 5.00000000E-01	 1.00000000E+00
					 5.00000000E-01	 1.00000000E+00	 1.00000000E+00
					 1.00000000E+00	 7.50000000E-01	-5.96046000E-08
					 1.00000000E+00	 5.00000000E-01	 5.00000000E-01
					 1.00000000E+00	 7.50000000E-01	 1.00000000E+00
					 1.00000000E+00	 1.00000000E+00	 5.00000000E-01
					 7.50000000E-01	 1.00000000E+00	-5.96046000E-08
					 7.50000000E-01	 5.00000000E-01	-5.96046000E-08
					 7.50000000E-01	 5.00000000E-01	 1.00000000E+00
					 7.50000000E-01	 1.00000000E+00	 1.00000000E+00
					 5.00000000E-01	 7.50000000E-01	-5.96046000E-08
					 5.00000000E-01	 5.00000000E-01	 5.00000000E-01
					 5.00000000E-01	 7.50000000E-01	 1.00000000E+00
					 5.00000000E-01	 1.00000000E+00	 5.00000000E-01
					 1.00000000E+00	-1.49012000E-08	-5.96046000E-08
					 1.00000000E+00	-1.49012000E-08	 1.00000000E+00
					 5.00000000E-01	-1.49012000E-08	-5.96046000E-08
					 5.00000000E-01	-1.49012000E-08	 1.00000000E+00
					 1.00000000E+00	 2.50000000E-01	-5.96046000E-08
					 1.00000000E+00	-1.49012000E-08	 5.00000000E-01
					 1.00000000E+00	 2.50000000E-01	 1.00000000E+00
					 7.50000000E-01	-1.49012000E-08	-5.96046000E-08
					 7.50000000E-01	-1.49012000E-08	 1.00000000E+00
					 5.00000000E-01	 2.50000000E-01	-5.96046000E-08
					 5.00000000E-01	-1.49012000E-08	 5.00000000E-01
					 5.00000000E-01	 2.50000000E-01	 1.00000000E+00
					-7.45058000E-09	 1.00000000E+00	-5.96046000E-08
					-7.45058000E-09	 5.00000000E-01	-5.96046000E-08
					-7.45058000E-09	 5.00000000E-01	 1.00000000E+00
					-7.45058000E-09	 1.00000000E+00	 1.00000000E+00
					 2.50000000E-01	 1.00000000E+00	-5.96046000E-08
					 2.50000000E-01	 5.00000000E-01	-5.96046000E-08
					 2.50000000E-01	 5.00000000E-01	 1.00000000E+00
					 2.50000000E-01	 1.00000000E+00	 1.00000000E+00
					-7.45058000E-09	 7.50000000E-01	-5.96046000E-08
					-7.45058000E-09	 5.00000000E-01	 5.00000000E-01
					-7.45058000E-09	 7.50000000E-01	 1.00000000E+00
					-7.45058000E-09	 1.00000000E+00	 5.00000000E-01
					-7.45058000E-09	-1.49012000E-08	-5.96046000E-08
					-7.45058000E-09	-1.49012000E-08	 1.00000000E+00
					 2.50000000E-01	-1.49012000E-08	-5.96046000E-08
					 2.50000000E-01	-1.49012000E-08	 1.00000000E+00
					-7.45058000E-09	 2.50000000E-01	-5.96046000E-08
					-7.45058000E-09	-1.49012000E-08	 5.00000000E-01
					-7.45058000E-09	 2.50000000E-01	 1.00000000E+00
					 1.00000000E+00	 5.00000000E-01	 2.00000000E+00
					 1.00000000E+00	 1.00000000E+00	 2.00000000E+00
					 5.00000000E-01	 5.00000000E-01	 2.00000000E+00
					 5.00000000E-01	 1.00000000E+00	 2.00000000E+00
					 1.00000000E+00	 5.00000000E-01	 1.50000000E+00
					 1.00000000E+00	 7.50000000E-01	 2.00000000E+00
					 1.00000000E+00	 1.00000000E+00	 1.50000000E+00
					 7.50000000E-01	 5.00000000E-01	 2.00000000E+00
					 7.50000000E-01	 1.00000000E+00	 2.00000000E+00
					 5.00000000E-01	 5.00000000E-01	 1.50000000E+00
					 5.00000000E-01	 7.50000000E-01	 2.00000000E+00
					 5.00000000E-01	 1.00000000E+00	 1.50000000E+00
					 1.00000000E+00	-1.49012000E-08	 2.00000000E+00
					 5.00000000E-01	-1.49012000E-08	 2.00000000E+00
					 1.00000000E+00	-1.49012000E-08	 1.50000000E+00
					 1.00000000E+00	 2.50000000E-01	 2.00000000E+00
					 7.50000000E-01	-1.49012000E-08	 2.00000000E+00
					 5.00000000E-01	-1.49012000E-08	 1.50000000E+00
					 5.00000000E-01	 2.50000000E-01	 2.00000000E+00
					-7.45058000E-09	 5.00000000E-01	 2.00000000E+00
					-7.45058000E-09	 1.00000000E+00	 2.00000000E+00
					 2.50000000E-01	 5.00000000E-01	 2.00000000E+00
					 2.50000000E-01	 1.00000000E+00	 2.00000000E+00
					-7.45058000E-09	 5.00000000E-01	 1.50000000E+00
					-7.45058000E-09	 7.50000000E-01	 2.00000000E+00
					-7.45058000E-09	 1.00000000E+00	 1.50000000E+00
					-7.45058000E-09	-1.49012000E-08	 2.00000000E+00
					 2.50000000E-01	-1.49012000E-08	 2.00000000E+00
					-7.45058000E-09	-1.49012000E-08	 1.50000000E+00
					-7.45058000E-09	 2.50000000E-01	 2.00000000E+00
					 1.00000000E+00	 5.00000000E-01	 3.00000000E+00
					 1.00000000E+00	 1.00000000E+00	 3.00000000E+00
					 5.00000000E-01	 5.00000000E-01	 3.00000000E+00
					 5.00000000E-01	 1.00000000E+00	 3.00000000E+00
					 1.00000000E+00	 5.00000000E-01	 2.50000000E+00
					 1.00000000E+00	 7.50000000E-01	 3.00000000E+00
					 1.00000000E+00	 1.00000000E+00	 2.50000000E+00
					 7.50000000E-01	 5.00000000E-01	 3.00000000E+00
					 7.50000000E-01	 1.00000000E+00	 3.00000000E+00
					 5.00000000E-01	 5.00000000E-01	 2.50000000E+00
					 5.00000000E-01	 7.50000000E-01	 3.00000000E+00
					 5.00000000E-01	 1.00000000E+00	 2.50000000E+00
					 1.00000000E+00	-1.49012000E-08	 3.00000000E+00
					 5.00000000E-01	-1.49012000E-08	 3.00000000E+00
					 1.00000000E+00	-1.49012000E-08	 2.50000000E+00
					 1.00000000E+00	 2.50000000E-01	 3.00000000E+00
					 7.50000000E-01	-1.49012000E-08	 3.00000000E+00
					 5.00000000E-01	-1.49012000E-08	 2.50000000E+00
					 5.00000000E-01	 2.50000000E-01	 3.00000000E+00
					-7.45058000E-09	 5.00000000E-01	 3.00000000E+00
					-7.45058000E-09	 1.00000000E+00	 3.00000000E+00
					 2.50000000E-01	 5.00000000E-01	 3.00000000E+00
					 2.50000000E-01	 1.00000000E+00	 3.00000000E+00
					-7.45058000E-09	 5.00000000E-01	 2.50000000E+00
					-7.45058000E-09	 7.50000000E-01	 3.00000000E+00
					-7.45058000E-09	 1.00000000E+00	 2.50000000E+00
					-7.45058000E-09	-1.49012000E-08	 3.00000000E+00
					 2.50000000E-01	-1.49012000E-08	 3.00000000E+00
					-7.45058000E-09	-1.49012000E-08	 2.50000000E+00
					-7.45058000E-09	 2.50000000E-01	 3.00000000E+00
					 1.00000000E+00	 5.00000000E-01	 4.00000000E+00
					 1.00000000E+00	 1.00000000E+00	 4.00000000E+00
					 5.00000000E-01	 5.00000000E-01	 4.00000000E+00
					 5.00000000E-01	 1.00000000E+00	 4.00000000E+00
					 1.00000000E+00	 5.00000000E-01	 3.50000000E+00
					 1.00000000E+00	 7.50000000E-01	 4.00000000E+00
					 1.00000000E+00	 1.00000000E+00	 3.50000000E+00
					 7.50000000E-01	 5.00000000E-01	 4.00000000E+00
					 7.50000000E-01	 1.00000000E+00	 4.00000000E+00
					 5.00000000E-01	 5.00000000E-01	 3.50000000E+00
					 5.00000000E-01	 7.50000000E-01	 4.00000000E+00
					 5.00000000E-01	 1.00000000E+00	 3.50000000E+00
					 1.00000000E+00	-1.49012000E-08	 4.00000000E+00
					 5.00000000E-01	-1.49012000E-08	 4.00000000E+00
					 1.00000000E+00	-1.49012000E-08	 3.50000000E+00
					 1.00000000E+00	 2.50000000E-01	 4.00000000E+00
					 7.50000000E-01	-1.49012000E-08	 4.00000000E+00
					 5.00000000E-01	-1.49012000E-08	 3.50000000E+00
					 5.00000000E-01	 2.50000000E-01	 4.00000000E+00
					-7.45058000E-09	 5.00000000E-01	 4.00000000E+00
					-7.45058000E-09	 1.00000000E+00	 4.00000000E+00
					 2.50000000E-01	 5.00000000E-01	 4.00000000E+00
					 2.50000000E-01	 1.00000000E+00	 4.00000000E+00
					-7.45058000E-09	 5.00000000E-01	 3.50000000E+00
					-7.45058000E-09	 7.50000000E-01	 4.00000000E+00
					-7.45058000E-09	 1.00000000E+00	 3.50000000E+00
					-7.45058000E-09	-1.49012000E-08	 4.00000000E+00
					 2.50000000E-01	-1.49012000E-08	 4.00000000E+00
					-7.45058000E-09	-1.49012000E-08	 3.50000000E+00
					-7.45058000E-09	 2.50000000E-01	 4.00000000E+00
					 1.00000000E+00	 5.00000000E-01	 5.00000000E+00
					 1.00000000E+00	 1.00000000E+00	 5.00000000E+00
					 5.00000000E-01	 5.00000000E-01	 5.00000000E+00
					 5.00000000E-01	 1.00000000E+00	 5.00000000E+00
					 1.00000000E+00	 5.00000000E-01	 4.50000000E+00
					 1.00000000E+00	 7.50000000E-01	 5.00000000E+00
					 1.00000000E+00	 1.00000000E+00	 4.50000000E+00
					 7.50000000E-01	 5.00000000E-01	 5.00000000E+00
					 7.50000000E-01	 1.00000000E+00	 5.00000000E+00
					 5.00000000E-01	 5.00000000E-01	 4.50000000E+00
					 5.00000000E-01	 7.50000000E-01	 5.00000000E+00
					 5.00000000E-01	 1.00000000E+00	 4.50000000E+00
					 1.00000000E+00	-1.49012000E-08	 5.00000000E+00
					 5.00000000E-01	-1.49012000E-08	 5.00000000E+00
					 1.00000000E+00	-1.49012000E-08	 4.50000000E+00
					 1.00000000E+00	 2.50000000E-01	 5.00000000E+00
					 7.50000000E-01	-1.49012000E-08	 5.00000000E+00
					 5.00000000E-01	-1.49012000E-08	 4.50000000E+00
					 5.00000000E-01	 2.50000000E-01	 5.00000000E+00
					-7.45058000E-09	 5.00000000E-01	 5.00000000E+00
					-7.45058000E-09	 1.00000000E+00	 5.00000000E+00
					 2.50000000E-01	 5.00000000E-01	 5.00000000E+00
					 2.50000000E-01	 1.00000000E+00	 5.00000000E+00
					-7.45058000E-09	 5.00000000E-01	 4.50000000E+00
					-7.45058000E-09	 7.50000000E-01	 5.00000000E+00
					-7.45058000E-09	 1.00000000E+00	 4.50000000E+00
					-7.45058000E-09	-1.49012000E-08	 5.00000000E+00
					 2.50000000E-01	-1.49012000E-08	 5.00000000E+00
					-7.45058000E-09	-1.49012000E-08	 4.50000000E+00
					-7.45058000E-09	 2.50000000E-01	 5.00000000E+00
					 1.00000000E+00	 5.00000000E-01	 6.00000000E+00
					 1.00000000E+00	 1.00000000E+00	 6.00000000E+00
					 5.00000000E-01	 5.00000000E-01	 6.00000000E+00
					 5.00000000E-01	 1.00000000E+00	 6.00000000E+00
					 1.00000000E+00	 5.00000000E-01	 5.50000000E+00
					 1.00000000E+00	 7.50000000E-01	 6.00000000E+00
					 1.00000000E+00	 1.00000000E+00	 5.50000000E+00
					 7.50000000E-01	 5.00000000E-01	 6.00000000E+00
					 7.50000000E-01	 1.00000000E+00	 6.00000000E+00
					 5.00000000E-01	 5.00000000E-01	 5.50000000E+00
					 5.00000000E-01	 7.50000000E-01	 6.00000000E+00
					 5.00000000E-01	 1.00000000E+00	 5.50000000E+00
					 1.00000000E+00	-1.49012000E-08	 6.00000000E+00
[...]
			<PointData>
				<DataArray type="Float32" Name="U" NumberOfComponents="3" ComponentName0="D1" ComponentName1="D2" ComponentName2="D3" format="ascii">
					 0.00000000E+00	 0.00000000E+00	 0.00000000E+00
					 0.00000000E+00	 0.00000000E+00	 0.00000000E+00
					-1.12224000E-05	-1.47401000E-03	-4.24723000E-06
					 2.66790000E-04	-1.65648000E-03	 1.84771000E-03
					 0.00000000E+00	 0.00000000E+00	 0.00000000E+00
					 0.00000000E+00	 0.00000000E+00	 0.00000000E+00
					-1.17916000E-05	-9.90904000E-04	-6.99473000E-06
					 6.53748000E-04	-1.18802000E-03	 1.83822000E-03
					 0.00000000E+00	 0.00000000E+00	 0.00000000E+00
					-7.50556000E-07	-1.72636000E-04	-1.31688000E-06
					 1.28522000E-04	-1.50889000E-03	 9.09477000E-04
					 3.04500000E-05	-3.25390000E-04	 7.43438000E-04
					 0.00000000E+00	 0.00000000E+00	 0.00000000E+00
					 0.00000000E+00	 0.00000000E+00	 0.00000000E+00
					-1.20374000E-05	-1.28700000E-03	-6.85433000E-06
					 4.60658000E-04	-1.47883000E-03	 1.88895000E-03
					 0.00000000E+00	 0.00000000E+00	 0.00000000E+00
					-2.09556000E-06	 1.46249000E-05	-4.33583000E-06
					 3.19894000E-04	-1.03187000E-03	 9.53132000E-04
					 3.18616000E-04	-1.46411000E-04	 6.97308000E-04
					 0.00000000E+00	 0.00000000E+00	 0.00000000E+00
					-2.90015000E-04	-1.64705000E-03	-1.85860000E-03
					 0.00000000E+00	 0.00000000E+00	 0.00000000E+00
					-6.76531000E-04	-1.17772000E-03	-1.85419000E-03
					 0.00000000E+00	 0.00000000E+00	 0.00000000E+00
					-3.17265000E-05	-3.22413000E-04	-7.44541000E-04
					-1.51337000E-04	-1.50310000E-03	-9.18467000E-04
					 0.00000000E+00	 0.00000000E+00	 0.00000000E+00
					-4.84313000E-04	-1.46868000E-03	-1.90519000E-03
					 0.00000000E+00	 0.00000000E+00	 0.00000000E+00
					-3.21479000E-04	-1.45530000E-04	-7.04621000E-04
					-3.42958000E-04	-1.02567000E-03	-9.67791000E-04
					 0.00000000E+00	 0.00000000E+00	 0.00000000E+00
					 0.00000000E+00	 0.00000000E+00	 0.00000000E+00
					-1.01767000E-05	-1.41498000E-04	-8.37516000E-06
					 1.03324000E-03	-3.33464000E-04	 1.84367000E-03
					 0.00000000E+00	 0.00000000E+00	 0.00000000E+00
					 0.00000000E+00	 0.00000000E+00	 0.00000000E+00
					-1.11071000E-05	-6.21467000E-04	-6.61958000E-06
					 8.41748000E-04	-8.14000000E-04	 1.76474000E-03
					 0.00000000E+00	 0.00000000E+00	 0.00000000E+00
					-2.78129000E-06	 4.67663000E-04	-5.92395000E-06
					 5.12949000E-04	-1.81759000E-04	 1.03020000E-03
					 5.80558000E-04	 2.90451000E-04	 7.37721000E-04
					 0.00000000E+00	 0.00000000E+00	 0.00000000E+00
					-1.05196000E-03	-3.22295000E-04	-1.86222000E-03
					 0.00000000E+00	 0.00000000E+00	 0.00000000E+00
					-8.62774000E-04	-8.03376000E-04	-1.77934000E-03
					 0.00000000E+00	 0.00000000E+00	 0.00000000E+00
					-5.83993000E-04	 2.90108000E-04	-7.48941000E-04
					-5.32471000E-04	-1.75262000E-04	-1.04797000E-03
					-1.14929000E-05	-8.55555000E-03	-5.31842000E-05
					 9.27645000E-04	-8.77423000E-03	 4.59135000E-03
					-1.37947000E-05	-7.41137000E-03	-4.12721000E-05
					 1.33420000E-03	-7.63222000E-03	 4.60817000E-03
					-1.54665000E-05	-4.24383000E-03	-2.15272000E-05
					 4.58641000E-04	-8.61531000E-03	 2.20406000E-03
					 5.79413000E-04	-4.45162000E-03	 3.21389000E-03
					-1.26617000E-05	-8.03322000E-03	-4.65966000E-05
					 1.13023000E-03	-8.25342000E-03	 4.65023000E-03
					-1.74516000E-05	-3.43481000E-03	-1.60695000E-05
					 6.60641000E-04	-7.47304000E-03	 2.26692000E-03
					 9.99764000E-04	-3.64489000E-03	 3.21900000E-03
					-9.53409000E-04	-8.73474000E-03	-4.70079000E-03
					-1.36179000E-03	-7.59003000E-03	-4.69423000E-03
					-6.12374000E-04	-4.43358000E-03	-3.26215000E-03
					-4.82351000E-04	-8.59737000E-03	-2.31078000E-03
					-1.15720000E-03	-8.21106000E-03	-4.74723000E-03
					-1.03469000E-03	-3.62361000E-03	-3.25656000E-03
					-6.88058000E-04	-7.45248000E-03	-2.35021000E-03
					-1.43923000E-05	-5.85999000E-03	-2.68981000E-05
					 1.74396000E-03	-6.07798000E-03	 4.61913000E-03
					-1.44841000E-05	-6.68435000E-03	-3.54565000E-05
					 1.53989000E-03	-6.90585000E-03	 4.57622000E-03
					-1.71964000E-05	-2.20723000E-03	-1.00186000E-05
					 8.62737000E-04	-5.91952000E-03	 2.31750000E-03
					 1.42937000E-03	-2.41003000E-03	 3.22670000E-03
					-1.77031000E-03	-6.03581000E-03	-4.67671000E-03
					-1.56727000E-03	-6.86379000E-03	-4.65075000E-03
					-1.46274000E-03	-2.38610000E-03	-3.25202000E-03
					-8.90670000E-04	-5.89899000E-03	-2.37192000E-03
					-2.24358000E-05	-2.10739000E-02	-1.47247000E-04
					 1.59390000E-03	-2.13302000E-02	 7.07726000E-03
					-2.44975000E-05	-1.92495000E-02	-1.28768000E-04
					 2.00271000E-03	-1.95126000E-02	 7.08831000E-03
					-1.15296000E-05	-1.42198000E-02	-9.28640000E-05
					 7.86439000E-04	-2.11513000E-02	 3.44097000E-03
					 1.27459000E-03	-1.44573000E-02	 5.83794000E-03
					-2.34780000E-05	-2.02115000E-02	-1.39726000E-04
					 1.79883000E-03	-2.04727000E-02	 7.12722000E-03
					-1.34450000E-05	-1.27421000E-02	-7.96454000E-05
					 9.89489000E-04	-1.93314000E-02	 3.50393000E-03
					 1.65867000E-03	-1.29805000E-02	 5.85318000E-03
					-1.64501000E-03	-2.12218000E-02	-7.37559000E-03
					-2.05455000E-03	-1.93957000E-02	-7.34928000E-03
					-1.30250000E-03	-1.43873000E-02	-6.02500000E-03
					-8.33276000E-04	-2.10966000E-02	-3.73620000E-03
					-1.85028000E-03	-2.03584000E-02	-7.41047000E-03
					-1.68655000E-03	-1.29056000E-02	-6.01319000E-03
					-1.03913000E-03	-1.92709000E-02	-3.76230000E-03
					-2.30357000E-05	-1.70188000E-02	-1.06980000E-04
					 2.40875000E-03	-1.72892000E-02	 7.11927000E-03
					-2.45588000E-05	-1.81861000E-02	-1.17077000E-04
					 2.20399000E-03	-1.84497000E-02	 7.04392000E-03
					-1.31541000E-05	-1.08758000E-02	-6.33796000E-05
					 1.19534000E-03	-1.71053000E-02	 3.58903000E-03
					 2.04115000E-03	-1.11197000E-02	 5.86948000E-03
					-2.45430000E-03	-1.71681000E-02	-7.33633000E-03
					-2.25418000E-03	-1.83316000E-02	-7.28073000E-03
					-2.06457000E-03	-1.10459000E-02	-5.99668000E-03
					-1.24107000E-03	-1.70413000E-02	-3.80437000E-03
					-4.41237000E-05	-3.92396000E-02	-3.51535000E-04
					 2.40096000E-03	-3.95708000E-02	 9.90543000E-03
					-4.36148000E-05	-3.65493000E-02	-2.97936000E-04
					 2.87100000E-03	-3.68959000E-02	 9.96755000E-03
					-3.56465000E-05	-2.92878000E-02	-2.31133000E-04
					 1.18278000E-03	-3.93424000E-02	 4.68432000E-03
					 1.93869000E-03	-2.95781000E-02	 8.46782000E-03
					-4.46917000E-05	-3.79529000E-02	-3.26173000E-04
					 2.63555000E-03	-3.82970000E-02	 1.00148000E-02
					-3.88386000E-05	-2.70735000E-02	-1.98056000E-04
					 1.41458000E-03	-3.66601000E-02	 4.82150000E-03
					 2.39933000E-03	-2.73790000E-02	 8.49314000E-03
					-2.49627000E-03	-3.93543000E-02	-1.06201000E-02
					-2.96191000E-03	-3.66675000E-02	-1.05754000E-02
					-2.01558000E-03	-2.94215000E-02	-8.93816000E-03
					-1.27279000E-03	-3.92368000E-02	-5.38938000E-03
					-2.72993000E-03	-3.80707000E-02	-1.06803000E-02
					-2.48007000E-03	-2.72128000E-02	-8.89832000E-03
					-1.50226000E-03	-3.65459000E-02	-5.42028000E-03
					-3.56394000E-05	-3.34098000E-02	-2.31534000E-04
					 3.34573000E-03	-3.37552000E-02	 1.00251000E-02
					-4.08361000E-05	-3.50395000E-02	-2.66658000E-04
					 3.10666000E-03	-3.53856000E-02	 9.92237000E-03
					-3.59315000E-05	-2.44121000E-02	-1.56920000E-04
					 1.65380000E-03	-3.35225000E-02	 4.95672000E-03
					 2.85585000E-03	-2.47230000E-02	 8.54159000E-03
					-3.41843000E-03	-3.35178000E-02	-1.05001000E-02
					-3.19099000E-03	-3.51552000E-02	-1.04667000E-02
					-2.92874000E-03	-2.45478000E-02	-8.86523000E-03
					-1.72466000E-03	-3.34016000E-02	-5.42322000E-03
					-4.94158000E-05	-6.42057000E-02	-7.02791000E-04
					 3.63691000E-03	-6.45133000E-02	 1.20969000E-02
					-3.85908000E-05	-6.03892000E-02	-5.96535000E-04
					 3.91061000E-03	-6.07003000E-02	 1.22297000E-02
					-4.73063000E-05	-5.10319000E-02	-5.10015000E-04
					 1.79451000E-03	-6.43222000E-02	 5.55963000E-03
					 3.01050000E-03	-5.13521000E-02	 1.11732000E-02
					-4.46897000E-05	-6.23316000E-02	-6.50562000E-04
					 3.77310000E-03	-6.26420000E-02	 1.22478000E-02
					-4.05259000E-05	-4.77763000E-02	-4.31651000E-04
					 1.93802000E-03	-6.05097000E-02	 5.76171000E-03
					 3.40176000E-03	-4.81086000E-02	 1.12746000E-02
					-3.74400000E-03	-6.41698000E-02	-1.35114000E-02
					-3.99586000E-03	-6.03410000E-02	-1.34324000E-02
					-3.11534000E-03	-5.10716000E-02	-1.22047000E-02
					-1.89546000E-03	-6.41580000E-02	-6.96811000E-03
					-3.87068000E-03	-6.22859000E-02	-1.35575000E-02
					-3.49002000E-03	-4.78114000E-02	-1.21482000E-02
					-2.01738000E-03	-6.03323000E-02	-6.95743000E-03
					-2.23162000E-05	-5.63045000E-02	-4.85070000E-04
					 4.20277000E-03	-5.66154000E-02	 1.23156000E-02
					-3.10796000E-05	-5.83802000E-02	-5.40926000E-04
					 4.05670000E-03	-5.86927000E-02	 1.22193000E-02
					-2.76089000E-05	-4.41434000E-02	-3.42985000E-04
					 2.08901000E-03	-5.64263000E-02	 5.91686000E-03
					 3.80294000E-03	-4.44750000E-02	 1.13420000E-02
					-4.25490000E-03	-5.62424000E-02	-1.32953000E-02
					-4.12681000E-03	-5.83291000E-02	-1.33111000E-02
					-3.86299000E-03	-4.41669000E-02	-1.20366000E-02
					-2.13567000E-03	-5.62386000E-02	-6.88957000E-03
					-3.74266000E-05	-9.23953000E-02	-1.13253000E-03
					 4.50210000E-03	-9.26244000E-02	 1.25858000E-02
					-1.72728000E-05	-8.78682000E-02	-9.95226000E-04
					 4.53119000E-03	-8.80818000E-02	 1.27452000E-02
					-4.56561000E-05	-7.81749000E-02	-9.16721000E-04
					 2.22834000E-03	-9.25083000E-02	 5.65946000E-03
					 4.16003000E-03	-7.84547000E-02	 1.25314000E-02
					-2.80379000E-05	-9.01332000E-02	-1.06518000E-03
					 4.51720000E-03	-9.03509000E-02	 1.26942000E-02
					-3.25921000E-05	-7.39182000E-02	-7.88277000E-04
					 2.25846000E-03	-8.79733000E-02	 5.83634000E-03
					 4.29779000E-03	-7.41866000E-02	 1.26883000E-02
					-4.56659000E-03	-9.22111000E-02	-1.48609000E-02
					-4.56292000E-03	-8.76779000E-02	-1.47450000E-02
					-4.24917000E-03	-7.80631000E-02	-1.43728000E-02
					-2.30079000E-03	-9.23045000E-02	-7.92879000E-03
					-4.56491000E-03	-8.99432000E-02	-1.48333000E-02
					-4.36454000E-03	-7.37925000E-02	-1.42751000E-02
					-2.29192000E-03	-8.77751000E-02	-7.82980000E-03
					 5.29828000E-06	-8.33112000E-02	-8.44934000E-04
					 4.57585000E-03	-8.35263000E-02	 1.28766000E-02
					-6.02183000E-06	-8.55917000E-02	-9.21431000E-04
					 4.55330000E-03	-8.58048000E-02	 1.28027000E-02
					-1.48586000E-05	-6.95188000E-02	-6.53577000E-04
					 2.29263000E-03	-8.34165000E-02	 5.98671000E-03
					 4.46382000E-03	-6.97829000E-02	 1.27950000E-02
					-4.57095000E-03	-8.31173000E-02	-1.45759000E-02
					-4.56801000E-03	-8.54008000E-02	-1.46541000E-02
					-4.49896000E-03	-6.93798000E-02	-1.41148000E-02
					-2.28312000E-03	-8.32150000E-02	-7.68019000E-03
					-1.36265000E-05	-1.20164000E-01	-1.53687000E-03
					 4.78230000E-03	-1.20338000E-01	 1.19698000E-02
					 2.58095000E-05	-1.15411000E-01	-1.38326000E-03
					 4.75976000E-03	-1.15575000E-01	 1.21130000E-02
					-3.00292000E-05	-1.06440000E-01	-1.33807000E-03
					 2.38393000E-03	-1.20255000E-01	 5.21545000E-03
					 4.68181000E-03	-1.06639000E-01	 1.23258000E-02
					 2.60223000E-06	-1.17777000E-01	-1.45948000E-03
					 4.76906000E-03	-1.17946000E-01	 1.20489000E-02
					 3.16237000E-06	-1.01770000E-01	-1.19625000E-03
					 2.39588000E-03	-1.15498000E-01	 5.36807000E-03
					 4.66495000E-03	-1.01955000E-01	 1.24765000E-02
					-4.80179000E-03	-1.19951000E-01	-1.50386000E-02
					-4.71436000E-03	-1.15197000E-01	-1.48732000E-02
					-4.72935000E-03	-1.06235000E-01	-1.50113000E-02
					-2.40915000E-03	-1.20067000E-01	-8.28568000E-03
					-4.76181000E-03	-1.17565000E-01	-1.49641000E-02
					-4.66025000E-03	-1.01564000E-01	-1.48755000E-02
					-2.34690000E-03	-1.15315000E-01	-8.13197000E-03
					 6.22888000E-05	-1.10706000E-01	-1.23816000E-03
					 4.73816000E-03	-1.10879000E-01	 1.22497000E-02
					 4.84259000E-05	-1.13054000E-01	-1.31091000E-03
					 4.75295000E-03	-1.13219000E-01	 1.21687000E-02
					 3.54848000E-05	-9.71328000E-02	-1.04308000E-03
					 2.40473000E-03	-1.10800000E-01	 5.51712000E-03
					 4.65181000E-03	-9.73280000E-02	 1.26215000E-02
					-4.63215000E-03	-1.10483000E-01	-1.47185000E-02
					-4.67060000E-03	-1.12836000E-01	-1.47838000E-02
					-4.59655000E-03	-9.69225000E-02	-1.47119000E-02
					-2.28578000E-03	-1.10604000E-01	-7.98974000E-03
					 7.60091000E-05	-1.46916000E-01	-1.91957000E-03
					 4.84078000E-03	-1.47129000E-01	 1.14700000E-02
					 7.28020000E-05	-1.42098000E-01	-1.74355000E-03
					 4.84506000E-03	-1.42317000E-01	 1.16014000E-02
					 2.17127000E-05	-1.33582000E-01	-1.73226000E-03
					 2.45501000E-03	-1.47022000E-01	 4.78157000E-03
					 4.82121000E-03	-1.33769000E-01	 1.16839000E-02
					 7.76125000E-05	-1.44516000E-01	-1.82620000E-03
					 4.84600000E-03	-1.44731000E-01	 1.15416000E-02
					 4.95775000E-05	-1.28791000E-01	-1.56314000E-03
					 2.45090000E-03	-1.42208000E-01	 4.93007000E-03
					 4.82724000E-03	-1.28977000E-01	 1.18206000E-02
					-4.71394000E-03	-1.46707000E-01	-1.52648000E-02
					-4.70609000E-03	-1.41870000E-01	-1.50436000E-02
					-4.78927000E-03	-1.33387000E-01	-1.51187000E-02
					-2.30900000E-03	-1.46810000E-01	-8.60694000E-03
					-4.70898000E-03	-1.44291000E-01	-1.51502000E-02
					-4.73491000E-03	-1.28585000E-01	-1.49164000E-02
					-2.30786000E-03	-1.41980000E-01	-8.40454000E-03
					 6.79408000E-05	-1.37294000E-01	-1.61696000E-03
					 4.84176000E-03	-1.37495000E-01	 1.16942000E-02
					 6.76576000E-05	-1.39687000E-01	-1.67481000E-03
					 4.84057000E-03	-1.39903000E-01	 1.16459000E-02
					 7.48219000E-05	-1.24028000E-01	-1.43215000E-03
					 2.44724000E-03	-1.37395000E-01	 5.04023000E-03
					 4.82508000E-03	-1.24207000E-01	 1.19301000E-02
					-4.69176000E-03	-1.37065000E-01	-1.48840000E-02
					-4.70015000E-03	-1.39460000E-01	-1.49530000E-02
					-4.67587000E-03	-1.23816000E-01	-1.47636000E-02
					-2.30868000E-03	-1.37177000E-01	-8.26007000E-03
					 0.00000000E+00	 0.00000000E+00	 0.00000000E+00
					 0.00000000E+00	 0.00000000E+00	 0.00000000E+00
					 1.16618000E-04	-7.74921000E-03	-2.41689000E-04
					-1.93756000E-03	-8.17801000E-03	 7.34352000E-03
					 0.00000000E+00	 0.00000000E+00	 0.00000000E+00
					 0.00000000E+00	 0.00000000E+00	 0.00000000E+00
					 9.61884000E-05	-9.35754000E-03	-1.88881000E-04
					-1.07337000E-03	-9.82233000E-03	 7.49851000E-03
					 0.00000000E+00	 0.00000000E+00	 0.00000000E+00
					 5.97425000E-05	-1.65862000E-03	-1.06722000E-04
					-9.12723000E-04	-7.80126000E-03	 3.52694000E-03
					-1.63906000E-03	-2.31126000E-03	 3.88328000E-03
					 0.00000000E+00	 0.00000000E+00	 0.00000000E+00
					 0.00000000E+00	 0.00000000E+00	 0.00000000E+00
					 1.05084000E-04	-8.71017000E-03	-2.15939000E-04
					-1.49901000E-03	-9.15280000E-03	 7.32444000E-03
					 0.00000000E+00	 0.00000000E+00	 0.00000000E+00
					 2.93808000E-05	-2.72629000E-03	-7.56005000E-05
					-4.86865000E-04	-9.41980000E-03	 3.52594000E-03
					-5.37435000E-04	-3.37724000E-03	 3.82310000E-03
					 0.00000000E+00	 0.00000000E+00	 0.00000000E+00
					 2.15363000E-03	-8.09229000E-03	-7.84458000E-03
					 0.00000000E+00	 0.00000000E+00	 0.00000000E+00
					 1.26136000E-03	-9.71802000E-03	-7.89727000E-03
					 0.00000000E+00	 0.00000000E+00	 0.00000000E+00
					 1.74463000E-03	-2.31827000E-03	-4.11420000E-03
					 1.14143000E-03	-7.75691000E-03	-4.01546000E-03
					 0.00000000E+00	 0.00000000E+00	 0.00000000E+00
					 1.69950000E-03	-9.05711000E-03	-7.77457000E-03
					 0.00000000E+00	 0.00000000E+00	 0.00000000E+00
					 5.89555000E-04	-3.36751000E-03	-3.98686000E-03
					 6.78261000E-04	-9.36832000E-03	-3.91025000E-03
					 0.00000000E+00	 0.00000000E+00	 0.00000000E+00
					 0.00000000E+00	 0.00000000E+00	 0.00000000E+00
					 8.26020000E-05	-1.00877000E-02	-1.17858000E-04
					-1.91677000E-04	-1.05206000E-02	 7.46683000E-03
					 0.00000000E+00	 0.00000000E+00	 0.00000000E+00
					 0.00000000E+00	 0.00000000E+00	 0.00000000E+00
					 8.78805000E-05	-9.87858000E-03	-1.57199000E-04
					-6.40510000E-04	-1.03249000E-02	 7.59969000E-03
					 0.00000000E+00	 0.00000000E+00	 0.00000000E+00
					 1.05594000E-05	-2.78619000E-03	-3.86818000E-05
					-5.17989000E-05	-1.01378000E-02	 3.43175000E-03
					 6.18809000E-04	-3.41415000E-03	 3.95431000E-03
					 0.00000000E+00	 0.00000000E+00	 0.00000000E+00
					 3.57983000E-04	-1.04047000E-02	-7.72126000E-03
					 0.00000000E+00	 0.00000000E+00	 0.00000000E+00
					 8.13298000E-04	-1.02155000E-02	-7.93559000E-03
					 0.00000000E+00	 0.00000000E+00	 0.00000000E+00
					-6.01859000E-04	-3.38241000E-03	-4.04360000E-03
					 2.20237000E-04	-1.00855000E-02	-3.67182000E-03
					 3.56367000E-04	-2.82385000E-02	-6.21369000E-04
					-2.66762000E-03	-2.86958000E-02	 1.20963000E-02
					 3.42924000E-04	-3.09386000E-02	-5.50546000E-04
					-2.04437000E-03	-3.13997000E-02	 1.21887000E-02
					 2.21575000E-04	-1.67566000E-02	-4.09314000E-04
					-1.15581000E-03	-2.83999000E-02	 5.76625000E-03
					-2.32825000E-03	-1.72614000E-02	 9.98837000E-03
					 3.49564000E-04	-2.96567000E-02	-5.87073000E-04
					-2.35555000E-03	-3.01133000E-02	 1.20742000E-02
					 2.01528000E-04	-1.89297000E-02	-3.40735000E-04
					-8.45627000E-04	-3.11007000E-02	 5.78257000E-03
					-1.58855000E-03	-1.94354000E-02	 1.00906000E-02
					 3.37876000E-03	-2.83903000E-02	-1.33575000E-02
					 2.72636000E-03	-3.11002000E-02	-1.33084000E-02
					 2.76049000E-03	-1.70752000E-02	-1.08324000E-02
					 1.86720000E-03	-2.82458000E-02	-7.01441000E-03
					 3.05356000E-03	-2.98181000E-02	-1.32637000E-02
					 1.98893000E-03	-1.92401000E-02	-1.07984000E-02
					 1.53497000E-03	-3.09529000E-02	-6.88538000E-03
					 3.24661000E-04	-3.30144000E-02	-4.63867000E-04
					-1.40264000E-03	-3.34512000E-02	 1.22488000E-02
					 3.33571000E-04	-3.20425000E-02	-5.09985000E-04
					-1.72296000E-03	-3.25254000E-02	 1.23036000E-02
					 1.85618000E-04	-2.03423000E-02	-2.56851000E-04
					-5.45642000E-04	-3.31586000E-02	 5.76807000E-03
					-8.47703000E-04	-2.08541000E-02	 1.01374000E-02
					 2.08082000E-03	-3.31729000E-02	-1.31967000E-02
					 2.40404000E-03	-3.22033000E-02	-1.33465000E-02
					 1.23330000E-03	-2.06644000E-02	-1.06766000E-02
					 1.20286000E-03	-3.30264000E-02	-6.69589000E-03
					 6.87820000E-04	-5.73338000E-02	-1.18385000E-03
					-3.26663000E-03	-5.77154000E-02	 1.49531000E-02
					 6.82238000E-04	-6.10801000E-02	-1.12496000E-03
					-2.90347000E-03	-6.15705000E-02	 1.50512000E-02
					 5.15981000E-04	-4.18468000E-02	-8.76417000E-04
					-1.28390000E-03	-5.74767000E-02	 6.85716000E-03
					-2.98464000E-03	-4.22952000E-02	 1.37886000E-02
					 6.87323000E-04	-5.92570000E-02	-1.15141000E-03
					-3.08740000E-03	-5.97049000E-02	 1.49307000E-02
					 5.05330000E-04	-4.50767000E-02	-8.12944000E-04
					-1.13509000E-03	-6.12799000E-02	 6.84974000E-03
					-2.46689000E-03	-4.55382000E-02	 1.38852000E-02
					 4.60368000E-03	-5.72437000E-02	-1.73152000E-02
					 4.26778000E-03	-6.10056000E-02	-1.73316000E-02
					 4.00698000E-03	-4.18833000E-02	-1.55542000E-02
					 2.64636000E-03	-5.72442000E-02	-9.21665000E-03
					 4.43570000E-03	-5.91692000E-02	-1.72562000E-02
					 3.48082000E-03	-4.51113000E-02	-1.55248000E-02
					 2.47631000E-03	-6.10040000E-02	-9.12201000E-03
					 6.66752000E-04	-6.44967000E-02	-1.06010000E-03
					-2.64088000E-03	-6.50940000E-02	 1.50697000E-02
					 6.74976000E-04	-6.28463000E-02	-1.09652000E-03
					-2.77375000E-03	-6.32670000E-02	 1.51893000E-02
					 4.98634000E-04	-4.77944000E-02	-7.36359000E-04
					-9.59378000E-04	-6.47518000E-02	 6.76036000E-03
					-1.97763000E-03	-4.82705000E-02	 1.39294000E-02
					 3.93553000E-03	-6.44484000E-02	-1.72476000E-02
					 4.10082000E-03	-6.27649000E-02	-1.74157000E-02
					 2.94127000E-03	-4.78231000E-02	-1.54184000E-02
					 2.29525000E-03	-6.44454000E-02	-8.92640000E-03
					 1.09768000E-03	-9.08059000E-02	-1.87194000E-03
					-3.73385000E-03	-9.09559000E-02	 1.49201000E-02