# vtk DataFile Version 3.0

ASCII
DATASET UNSTRUCTURED_GRID

POINTS 522 double
	 1.00000000E+00	 1.00000000E+00	-5.96046000E-08
	 1.00000000E+00	 5.00000000E-01	-5.96046000E-08
	 1.00000000E+00	 5.00000000E-01	 1.00000000E+00
	 1.00000000E+00	 1.00000000E+00	 1.00000000E+00
	 5.00000000E-01	 1.00000000E+00	-5.96046000E-08
	 5.00000000E-01	 5.00000000E-01	-5.96046000E-08
	 5.00000000E-01	 5.00000000E-01	 1.00000000E+00
	 5.00000000E-01	 1.00000000E+00	 1.00000000E+00
	 1.00000000E+00	 7.50000000E-01	-5.96046000E-08
	 1.00000000E+00	 5.00000000E-01	 5.00000000E-01
	 1.00000000E+00	 7.50000000E-01	 1.00000000E+00
	 1.00000000E+00	 1.00000000E+00	 5.00000000E-01
	 7.50000000E-01	 1.00000000E+00	-5.96046000E-08
	 7.50000000E-01	 5.00000000E-01	-5.96046000E-08
	 7.50000000E-01	 5.00000000E-01	 1.00000000E+00
	 7.50000000E-01	 1.00000000E+00	 1.00000000E+00
	 5.00000000E-01	 7.50000000E-01	-5.96046000E-08
	 5.00000000E-01	 5.00000000E-01	 5.00000000E-01
	 5.00000000E-01	 7.50000000E-01	 1.00000000E+00
	 5.00000000E-01	 1.00000000E+00	 5.00000000E-01
	 1.00000000E+00	-1.49012000E-08	-5.96046000E-08
	 1.00000000E+00	-1.49012000E-08	 1.00000000E+00
	 5.00000000E-01	-1.49012000E-08	-5.96046000E-08
	 5.00000000E-01	-1.49012000E-08	 1.00000000E+00
	 1.00000000E+00	 2.50000000E-01	-5.96046000E-08
	 1.00000000E+00	-1.49012000E-08	 5.00000000E-01
	 1.00000000E+00	 2.50000000E-01	 1.00000000E+00
	 7.50000000E-01	-1.49012000E-08	-5.96046000E-08
	 7.50000000E-01	-1.49012000E-08	 1.00000000E+00
	 5.00000000E-01	 2.50000000E-01	-5.96046000E-08
	 5.00000000E-01	-1.49012000E-08	 5.00000000E-01
	 5.00000000E-01	 2.50000000E-01	 1.00000000E+00
	-7.45058000E-09	 1.00000000E+00	-5.96046000E-08
	-7.45058000E-09	 5.00000000E-01	-5.96046000E-08
	-7.45058000E-09	 5.00000000E-01	 1.00000000E+00
	-7.45058000E-09	 1.00000000E+00	 1.00000000E+00
	 2.50000000E-01	 1.00000000E+00	-5.96046000E-08
	 2.50000000E-01	 5.00000000E-01	-5.96046000E-08
	 2.50000000E-01	 5.00000000E-01	 1.00000000E+00
	 2.50000000E-01	 1.00000000E+00	 1.00000000E+00
	-7.45058000E-09	 7.50000000E-01	-5.96046000E-08
	-7.45058000E-09	 5.00000000E-01	 5.00000000E-01
	-7.45058000E-09	 7.50000000E-01	 1.00000000E+00
	-7.45058000E-09	 1.00000000E+00	 5.00000000E-01
	-7.45058000E-09	-1.49012000E-08	-5.96046000E-08
	-7.45058000E-09	-1.49012000E-08	 1.00000000E+00
	 2.50000000E-01	-1.49012000E-08	-5.96046000E-08
	 2.50000000E-01	-1.49012000E-08	 1.00000000E+00
	-7.45058000E-09	 2.50000000E-01	-5.96046000E-08
	-7.45058000E-09	-1.49012000E-08	 5.00000000E-01
	-7.45058000E-09	 2.50000000E-01	 1.00000000E+00
	 1.00000000E+00	 5.00000000E-01	 2.00000000E+00
	 1.00000000E+00	 1.00000000E+00	 2.00000000E+00
	 5.00000000E-01	 5.00000000E-01	 2.00000000E+00
	 5.00000000E-01	 1.00000000E+00	 2.00000000E+00
	 1.00000000E+00	 5.00000000E-01	 1.50000000E+00
	 1.00000000E+00	 7.50000000E-01	 2.00000000E+00
	 1.00000000E+00	 1.00000000E+00	 1.50000000E+00
	 7.50000000E-01	 5.00000000E-01	 2.00000000E+00
	 7.50000000E-01	 1.00000000E+00	 2.00000000E+00
	 5.00000000E-01	 5.00000000E-01	 1.50000000E+00
	 5.00000000E-01	 7.50000000E-01	 2.00000000E+00
	 5.00000000E-01	 1.00000000E+00	 1.50000000E+00
	 1.00000000E+00	-1.49012000E-08	 2.00000000E+00
	 5.00000000E-01	-1.49012000E-08	 2.00000000E+00
	 1.00000000E+00	-1.49012000E-08	 1.50000000E+00
	 1.00000000E+00	 2.50000000E-01	 2.00000000E+00
	 7.50000000E-01	-1.49012000E-08	 2.00000000E+00
	 5.00000000E-01	-1.49012000E-08	 1.50000000E+00
	 5.00000000E-01	 2.50000000E-01	 2.00000000E+00
	-7.45058000E-09	 5.00000000E-01	 2.00000000E+00
	-7.45058000E-09	 1.00000000E+00	 2.00000000E+00
	 2.50000000E-01	 5.00000000E-01	 2.00000000E+00
	 2.50000000E-01	 1.00000000E+00	 2.00000000E+00
	-7.45058000E-09	 5.00000000E-01	 1.50000000E+00
	-7.45058000E-09	 7.50000000E-01	 2.00000000E+00
	-7.45058000E-09	 1.00000000E+00	 1.50000000E+00
	-7.45058000E-09	-1.49012000E-08	 2.00000000E+00
	 2.50000000E-01	-1.49012000E-08	 2.00000000E+00
	-7.45058000E-09	-1.49012000E-08	 1.50000000E+00
	-7.45058000E-09	 2.50000000E-01	 2.00000000E+00
	 1.00000000E+00	 5.00000000E-01	 3.00000000E+00
	 1.00000000E+00	 1.00000000E+00	 3.00000000E+00
	 5.00000000E-01	 5.00000000E-01	 3.00000000E+00
	 5.00000000E-01	 1.00000000E+00	 3.00000000E+00
	 1.00000000E+00	 5.00000000E-01	 2.50000000E+00
	 1.00000000E+00	 7.50000000E-01	 3.00000000E+00
	 1.00000000E+00	 1.00000000E+00	 2.50000000E+00
	 7.50000000E-01	 5.00000000E-01	 3.00000000E+00
	 7.50000000E-01	 1.00000000E+00	 3.00000000E+00
	 5.00000000E-01	 5.00000000E-01	 2.50000000E+00
	 5.00000000E-01	 7.50000000E-01	 3.00000000E+00
	 5.00000000E-01	 1.00000000E+00	 2.50000000E+00
	 1.00000000E+00	-1.49012000E-08	 3.00000000E+00
	 5.00000000E-01	-1.49012000E-08	 3.00000000E+00
	 1.00000000E+00	-1.49012000E-08	 2.50000000E+00
	 1.00000000E+00	 2.50000000E-01	 3.00000000E+00
	 7.50000000E-01	-1.49012000E-08	 3.00000000E+00
	 5.00000000E-01	-1.49012000E-08	 2.50000000E+00
	 5.00000000E-01	 2.50000000E-01	 3.00000000E+00
	-7.45058000E-09	 5.00000000E-01	 3.00000000E+00
	-7.45058000E-09	 1.00000000E+00	 3.00000000E+00
	 2.50000000E-01	 5.00000000E-01	 3.00000000E+00
	 2.50000000E-01	 1.00000000E+00	 3.00000000E+00
	-7.45058000E-09	 5.00000000E-01	 2.50000000E+00
	-7.45058000E-09	 7.50000000E-01	 3.00000000E+00
	-7.45058000E-09	 1.00000000E+00	 2.50000000E+00
	-7.45058000E-09	-1.49012000E-08	 3.00000000E+00
	 2.50000000E-01	-1.49012000E-08	 3.00000000E+00
	-7.45058000E-09	-1.49012000E-08	 2.50000000E+00
	-7.45058000E-09	 2.50000000E-01	 3.00000000E+00
	 1.00000000E+00	 5.00000000E-01	 4.00000000E+00
	 1.00000000E+00	 1.00000000E+00	 4.00000000E+00
	 5.00000000E-01	 5.00000000E-01	 4.00000000E+00
	 5.00000000E-01	 1.00000000E+00	 4.00000000E+00
	 1.00000000E+00	 5.00000000E-01	 3.50000000E+00
	 1.00000000E+00	 7.50000000E-01	 4.00000000E+00
	 1.00000000E+00	 1.00000000E+00	 3.50000000E+00
	 7.50000000E-01	 5.00000000E-01	 4.00000000E+00
	 7.50000000E-01	 1.00000000E+00	 4.00000000E+00
	 5.00000000E-01	 5.00000000E-01	 3.50000000E+00
	 5.00000000E-01	 7.50000000E-01	 4.00000000E+00
	 5.00000000E-01	 1.00000000E+00	 3.50000000E+00
	 1.00000000E+00	-1.49012000E-08	 4.00000000E+00
	 5.00000000E-01	-1.49012000E-08	 4.00000000E+00
	 1.00000000E+00	-1.49012000E-08	 3.50000000E+00
	 1.00000000E+00	 2.50000000E-01	 4.00000000E+00
	 7.50000000E-01	-1.49012000E-08	 4.00000000E+00
	 5.00000000E-01	-1.49012000E-08	 3.50000000E+00
	 5.00000000E-01	 2.50000000E-01	 4.00000000E+00
	-7.45058000E-09	 5.00000000E-01	 4.00000000E+00
	-7.45058000E-09	 1.00000000E+00	 4.00000000E+00
	 2.50000000E-01	 5.00000000E-01	 4.00000000E+00
	 2.50000000E-01	 1.00000000E+00	 4.00000000E+00
	-7.45058000E-09	 5.00000000E-01	 3.50000000E+00
	-7.45058000E-09	 7.50000000E-01	 4.00000000E+00
	-7.45058000E-09	 1.00000000E+00	 3.50000000E+00
	-7.45058000E-09	-1.49012000E-08	 4.00000000E+00
	 2.50000000E-01	-1.49012000E-08	 4.00000000E+00
	-7.45058000E-09	-1.49012000E-08	 3.50000000E+00
	-7.45058000E-09	 2.50000000E-01	 4.00000000E+00
	 1.00000000E+00	 5.00000000E-01	 5.00000000E+00
	 1.00000000E+00	 1.00000000E+00	 5.00000000E+00
	 5.00000000E-01	 5.00000000E-01	 5.00000000E+00
	 5.00000000E-01	 1.00000000E+00	 5.00000000E+00
	 1.00000000E+00	 5.00000000E-01	 4.50000000E+00
	 1.00000000E+00	 7.50000000E-01	 5.00000000E+00
	 1.00000000E+00	 1.00000000E+00	 4.50000000E+00
	 7.50000000E-01	 5.00000000E-01	 5.00000000E+00
	 7.50000000E-01	 1.00000000E+00	 5.00000000E+00
	 5.00000000E-01	 5.00000000E-01	 4.50000000E+00
	 5.00000000E-01	 7.50000000E-01	 5.00000000E+00
	 5.00000000E-01	 1.00000000E+00	 4.50000000E+00
	 1.00000000E+00	-1.49012000E-08	 5.00000000E+00
	 5.00000000E-01	-1.49012000E-08	 5.00000000E+00
	 1.00000000E+00	-1.49012000E-08	 4.50000000E+00
	 1.00000000E+00	 2.50000000E-01	 5.00000000E+00
	 7.50000000E-01	-1.49012000E-08	 5.00000000E+00
	 5.00000000E-01	-1.49012000E-08	 4.50000000E+00
	 5.00000000E-01	 2.50000000E-01	 5.00000000E+00
	-7.45058000E-09	 5.00000000E-01	 5.00000000E+00
	-7.45058000E-09	 1.00000000E+00	 5.00000000E+00
	 2.50000000E-01	 5.00000000E-01	 5.00000000E+00
	 2.50000000E-01	 1.00000000E+00	 5.00000000E+00
	-7.45058000E-09	 5.00000000E-01	 4.50000000E+00
	-7.45058000E-09	 7.50000000E-01	 5.00000000E+00
	-7.45058000E-09	 1.00000000E+00	 4.50000000E+00
	-7.45058000E-09	-1.49012000E-08	 5.00000000E+00
	 2.50000000E-01	-1.49012000E-08	 5.00000000E+00
	-7.45058000E-09	-1.49012000E-08	 4.50000000E+00
	-7.45058000E-09	 2.50000000E-01	 5.00000000E+00
	 1.00000000E+00	 5.00000000E-01	 6.00000000E+00
	 1.00000000E+00	 1.00000000E+00	 6.00000000E+00
	 5.00000000E-01	 5.00000000E-01	 6.00000000E+00
	 5.00000000E-01	 1.00000000E+00	 6.00000000E+00
	 1.00000000E+00	 5.00000000E-01	 5.50000000E+00
	 1.00000000E+00	 7.50000000E-01	 6.00000000E+00
	 1.00000000E+00	 1.00000000E+00	 5.50000000E+00
	 7.50000000E-01	 5.00000000E-01	 6.00000000E+00
	 7.50000000E-01	 1.00000000E+00	 6.00000000E+00
	 5.00000000E-01	 5.00000000E-01	 5.50000000E+00
	 5.00000000E-01	 7.50000000E-01	 6.00000000E+00
	 5.00000000E-01	 1.00000000E+00	 5.50000000E+00
	 1.00000000E+00	-1.49012000E-08	 6.00000000E+00
	 5.00000000E-01	-1.49012000E-08	 6.00000000E+00
	 1.00000000E+00	-1.49012000E-08	 5.50000000E+00
	 1.00000000E+00	 2.50000000E-01	 6.00000000E+00
	 7.50000000E-01	-1.49012000E-08	 6.00000000E+00
	 5.00000000E-01	-1.49012000E-08	 5.50000000E+00
	 5.00000000E-01	 2.50000000E-01	 6.00000000E+00
	-7.45058000E-09	 5.00000000E-01	 6.00000000E+00
	-7.45058000E-09	 1.00000000E+00	 6.00000000E+00
	 2.50000000E-01	 5.00000000E-01	 6.00000000E+00
	 2.50000000E-01	 1.00000000E+00	 6.00000000E+00
	-7.45058000E-09	 5.00000000E-01	 5.50000000E+00
	-7.45058000E-09	 7.50000000E-01	 6.00000000E+00
	-7.45058000E-09	 1.00000000E+00	 5.50000000E+00
	-7.45058000E-09	-1.49012000E-08	 6.00000000E+00
	 2.50000000E-01	-1.49012000E-08	 6.00000000E+00
	-7.45058000E-09	-1.49012000E-08	 5.50000000E+00
	-7.45058000E-09	 2.50000000E-01	 6.00000000E+00
	 1.00000000E+00	 5.00000000E-01	 7.00000000E+00
[...]
POINT_DATA 522
FIELD U 1
	U 3 522 double
		 0.00000000E+00	 0.00000000E+00	 0.00000000E+00
		 0.00000000E+00	 0.00000000E+00	 0.00000000E+00
		 5.89066000E-06	-9.15822000E-05	-1.48487000E-05
		-1.89446000E-04	-3.01658000E-04	 1.60733000E-03
		 0.00000000E+00	 0.00000000E+00	 0.00000000E+00
		 0.00000000E+00	 0.00000000E+00	 0.00000000E+00
		 3.57129000E-06	-6.31987000E-05	-1.97751000E-06
		 2.20825000E-04	-2.85324000E-04	 1.60429000E-03
		 0.00000000E+00	 0.00000000E+00	 0.00000000E+00
		-3.22701000E-06	 4.57898000E-04	-3.96243000E-06
		-9.26661000E-05	-1.38909000E-04	 8.69172000E-04
		-7.56057000E-05	 3.12730000E-04	 5.08285000E-04
		 0.00000000E+00	 0.00000000E+00	 0.00000000E+00
		 0.00000000E+00	 0.00000000E+00	 0.00000000E+00
		 4.76612000E-06	-1.34593000E-04	-8.57101000E-06
		 1.71203000E-05	-3.48310000E-04	 1.59019000E-03
		 0.00000000E+00	 0.00000000E+00	 0.00000000E+00
		-5.35962000E-06	 5.05693000E-04	-6.88898000E-07
		 1.13948000E-04	-1.14881000E-04	 8.61464000E-04
		 1.63270000E-04	 3.63891000E-04	 4.63563000E-04
		 0.00000000E+00	 0.00000000E+00	 0.00000000E+00
		 1.89916000E-04	-3.07977000E-04	-1.63579000E-03
		 0.00000000E+00	 0.00000000E+00	 0.00000000E+00
		-2.23892000E-04	-2.76551000E-04	-1.60789000E-03
		 0.00000000E+00	 0.00000000E+00	 0.00000000E+00
		 6.75213000E-05	 3.11384000E-04	-5.17700000E-04
		 1.00579000E-04	-1.42688000E-04	-8.98765000E-04
		 0.00000000E+00	 0.00000000E+00	 0.00000000E+00
		-1.84044000E-05	-3.46874000E-04	-1.60634000E-03
		 0.00000000E+00	 0.00000000E+00	 0.00000000E+00
		-1.75560000E-04	 3.66842000E-04	-4.63232000E-04
		-1.10266000E-04	-1.09703000E-04	-8.65457000E-04
		 0.00000000E+00	 0.00000000E+00	 0.00000000E+00
		 0.00000000E+00	 0.00000000E+00	 0.00000000E+00
		 3.08863000E-06	 3.55066000E-04	 1.36710000E-05
		 6.50602000E-04	 1.46566000E-04	 1.63343000E-03
		 0.00000000E+00	 0.00000000E+00	 0.00000000E+00
		 0.00000000E+00	 0.00000000E+00	 0.00000000E+00
		 2.89202000E-06	 9.07927000E-05	 5.49197000E-06
		 4.34601000E-04	-1.27760000E-04	 1.59629000E-03
		 0.00000000E+00	 0.00000000E+00	 0.00000000E+00
		-5.50256000E-06	 7.97095000E-04	 2.28075000E-06
		 3.25550000E-04	 3.08080000E-04	 9.01112000E-04
		 4.04543000E-04	 6.48700000E-04	 5.15019000E-04
		 0.00000000E+00	 0.00000000E+00	 0.00000000E+00
		-6.52829000E-04	 1.70337000E-04	-1.60687000E-03
		 0.00000000E+00	 0.00000000E+00	 0.00000000E+00
		-4.38641000E-04	-1.11423000E-04	-1.58536000E-03
		 0.00000000E+00	 0.00000000E+00	 0.00000000E+00
		-4.14752000E-04	 6.54784000E-04	-5.06035000E-04
		-3.22151000E-04	 3.22250000E-04	-8.74259000E-04
		 3.11837000E-05	-5.77829000E-03	-2.08447000E-05
		-7.23468000E-04	-5.99182000E-03	 4.47117000E-03
		 3.48235000E-05	-6.35375000E-03	-1.67205000E-05
		-3.56378000E-04	-6.55882000E-03	 4.49075000E-03
		 2.23908000E-05	-2.20084000E-03	-2.18742000E-05
		-3.44905000E-04	-5.83872000E-03	 2.24988000E-03
		-3.59914000E-04	-2.41690000E-03	 3.07927000E-03
		 3.28737000E-05	-6.11267000E-03	-1.99012000E-05
		-5.39054000E-04	-6.32184000E-03	 4.41310000E-03
		 2.32504000E-05	-2.37572000E-03	-6.60776000E-06
		-1.60303000E-04	-6.40781000E-03	 2.19164000E-03
		 5.95891000E-05	-2.58333000E-03	 3.10000000E-03
		 7.94808000E-04	-5.93058000E-03	-4.51676000E-03
		 4.35971000E-04	-6.51180000E-03	-4.52811000E-03
		 4.02923000E-04	-2.39217000E-03	-3.11931000E-03
		 4.10183000E-04	-5.80581000E-03	-2.29318000E-03
		 6.14892000E-04	-6.26880000E-03	-4.45563000E-03
		-1.41081000E-05	-2.55869000E-03	-3.11465000E-03
		 2.33409000E-04	-6.38477000E-03	-2.22588000E-03
		 3.75469000E-05	-6.57003000E-03	-7.99297000E-06
		 2.57347000E-05	-6.75569000E-03	 4.48376000E-03
		 3.64950000E-05	-6.50738000E-03	-1.24781000E-05
		-1.64762000E-04	-6.70900000E-03	 4.58374000E-03
		 2.34230000E-05	-2.12986000E-03	 1.44405000E-05
		 2.60573000E-05	-6.61260000E-03	 2.09895000E-03
		 5.16056000E-04	-2.30919000E-03	 3.10922000E-03
		 5.84740000E-05	-6.72149000E-03	-4.50289000E-03
		 2.47323000E-04	-6.66671000E-03	-4.61381000E-03
		-4.69786000E-04	-2.28436000E-03	-3.08632000E-03
		 5.21941000E-05	-6.59905000E-03	-2.11460000E-03
		 5.38259000E-05	-1.62543000E-02	-5.43863000E-05
		-1.58466000E-03	-1.64078000E-02	 6.27105000E-03
		 5.90119000E-05	-1.78000000E-02	-6.78176000E-05
		-1.38311000E-03	-1.79466000E-02	 6.27044000E-03
		 3.87933000E-05	-1.05659000E-02	-3.16717000E-05
		-7.67776000E-04	-1.63088000E-02	 3.15613000E-03
		-1.17082000E-03	-1.07452000E-02	 5.50216000E-03
		 5.66479000E-05	-1.70510000E-02	-5.98788000E-05
		-1.48376000E-03	-1.71985000E-02	 6.20479000E-03
		 4.21995000E-05	-1.16393000E-02	-3.68849000E-05
		-6.62318000E-04	-1.78510000E-02	 3.08212000E-03
		-8.91104000E-04	-1.18172000E-02	 5.51770000E-03
		 1.69338000E-03	-1.63145000E-02	-6.38570000E-03
		 1.50092000E-03	-1.78567000E-02	-6.40969000E-03
		 1.25098000E-03	-1.06711000E-02	-5.57223000E-03
		 8.75334000E-04	-1.62611000E-02	-3.26674000E-03
		 1.59756000E-03	-1.71090000E-02	-6.33022000E-03
		 9.79419000E-04	-1.17479000E-02	-5.59561000E-03
		 7.79984000E-04	-1.78066000E-02	-3.21916000E-03
		 6.11480000E-05	-1.91395000E-02	-7.97817000E-05
		-1.18300000E-03	-1.92899000E-02	 6.24969000E-03
		 6.04996000E-05	-1.84943000E-02	-7.50735000E-05
		-1.28301000E-03	-1.86408000E-02	 6.33560000E-03
		 4.42682000E-05	-1.24360000E-02	-3.99377000E-05
		-5.57970000E-04	-1.91912000E-02	 2.99119000E-03
		-6.16867000E-04	-1.26154000E-02	 5.49881000E-03
		 1.30552000E-03	-1.92016000E-02	-6.41180000E-03
		 1.40365000E-03	-1.85493000E-02	-6.48775000E-03
		 7.10568000E-04	-1.25522000E-02	-5.58024000E-03
		 6.79851000E-04	-1.91491000E-02	-3.15181000E-03
		 4.54213000E-05	-2.90859000E-02	-1.20696000E-04
		-2.69157000E-03	-2.92485000E-02	 7.42148000E-03
		 4.96772000E-05	-3.17287000E-02	-1.57559000E-04
		-2.49560000E-03	-3.18898000E-02	 7.38236000E-03
		 5.54166000E-05	-2.24630000E-02	-8.01869000E-05
		-1.32330000E-03	-2.91439000E-02	 3.74854000E-03
		-2.08165000E-03	-2.26189000E-02	 6.86053000E-03
		 4.89450000E-05	-3.04316000E-02	-1.41295000E-04
		-2.59307000E-03	-3.05915000E-02	 7.31139000E-03
		 6.06579000E-05	-2.45165000E-02	-1.07183000E-04
		-1.22231000E-03	-3.17863000E-02	 3.62267000E-03
		-1.89914000E-03	-2.46660000E-02	 6.83678000E-03
		 2.78010000E-03	-2.91223000E-02	-7.66612000E-03
		 2.59357000E-03	-3.17589000E-02	-7.70377000E-03
		 2.19124000E-03	-2.25120000E-02	-7.02678000E-03
		 1.41525000E-03	-2.90805000E-02	-3.98972000E-03
		 2.68767000E-03	-3.04640000E-02	-7.59775000E-03
		 2.02020000E-03	-2.45574000E-02	-7.05478000E-03
		 1.32163000E-03	-3.17204000E-02	-3.93870000E-03
		 5.35403000E-05	-3.41719000E-02	-1.92645000E-04
		-2.29453000E-03	-3.43318000E-02	 7.35225000E-03
		 5.08974000E-05	-3.29739000E-02	-1.74546000E-04
		-2.39457000E-03	-3.31368000E-02	 7.44955000E-03
		 6.41275000E-05	-2.63824000E-02	-1.34186000E-04
		-1.12069000E-03	-3.42276000E-02	 3.50725000E-03
		-1.71181000E-03	-2.65309000E-02	 6.81130000E-03
		 2.40171000E-03	-3.42014000E-02	-7.74368000E-03
		 2.49666000E-03	-3.30036000E-02	-7.80579000E-03
		 1.84175000E-03	-2.64266000E-02	-7.08178000E-03
		 1.22829000E-03	-3.41636000E-02	-3.89368000E-03
		 4.09541000E-05	-4.42558000E-02	-2.34563000E-04
		-3.90733000E-03	-4.44501000E-02	 8.65137000E-03
		 6.67979000E-05	-4.81096000E-02	-2.96145000E-04
		-3.67219000E-03	-4.82980000E-02	 8.59700000E-03
		 4.92442000E-05	-3.63317000E-02	-1.76745000E-04
		-1.93380000E-03	-4.43314000E-02	 4.29860000E-03
		-3.29276000E-03	-3.65074000E-02	 8.03807000E-03
		 5.12962000E-05	-4.62083000E-02	-2.63624000E-04
		-3.79170000E-03	-4.63984000E-02	 8.53530000E-03
		 6.17537000E-05	-3.95731000E-02	-2.25646000E-04
		-1.80369000E-03	-4.81769000E-02	 4.15207000E-03
		-3.07464000E-03	-3.97456000E-02	 7.98299000E-03
		 4.00774000E-03	-4.42426000E-02	-9.11928000E-03
		 3.82058000E-03	-4.81157000E-02	-9.18265000E-03
		 3.39021000E-03	-3.63563000E-02	-8.38861000E-03
		 2.01835000E-03	-4.42189000E-02	-4.77001000E-03
		 3.91544000E-03	-4.62102000E-02	-9.05800000E-03
		 3.19780000E-03	-3.95990000E-02	-8.43763000E-03
		 1.94161000E-03	-4.80873000E-02	-4.74283000E-03
		 9.14492000E-05	-5.17520000E-02	-3.60749000E-04
		-3.44052000E-03	-5.19298000E-02	 8.52501000E-03
		 8.14491000E-05	-4.99575000E-02	-3.28808000E-04
		-3.55435000E-03	-5.01422000E-02	 8.65780000E-03
		 7.02761000E-05	-4.26079000E-02	-2.62714000E-04
		-1.67623000E-03	-5.18116000E-02	 3.98973000E-03
		-2.85827000E-03	-4.27788000E-02	 7.94592000E-03
		 3.63286000E-03	-5.17671000E-02	-9.24143000E-03
		 3.72635000E-03	-4.99676000E-02	-9.31008000E-03
		 2.99617000E-03	-4.26300000E-02	-8.48283000E-03
		 1.86214000E-03	-5.17367000E-02	-4.70893000E-03
		 8.46289000E-05	-6.23046000E-02	-3.68188000E-04
		-4.98028000E-03	-6.24608000E-02	 9.62493000E-03
		 1.02055000E-04	-6.72705000E-02	-4.76879000E-04
		-4.83278000E-03	-6.74576000E-02	 9.52295000E-03
		 5.52789000E-05	-5.29091000E-02	-2.91260000E-04
		-2.44539000E-03	-6.23627000E-02	 4.67398000E-03
		-4.48234000E-03	-5.31069000E-02	 9.19649000E-03
		 9.97012000E-05	-6.48037000E-02	-4.24100000E-04
		-4.90252000E-03	-6.49754000E-02	 9.50563000E-03
		 7.10421000E-05	-5.73583000E-02	-3.68697000E-04
		-2.36746000E-03	-6.73494000E-02	 4.50215000E-03
		-4.30324000E-03	-5.75543000E-02	 9.14409000E-03
		 5.09184000E-03	-6.22701000E-02	-1.03827000E-02
		 5.00244000E-03	-6.72077000E-02	-1.04957000E-02
		 4.61177000E-03	-5.28555000E-02	-9.80006000E-03
		 2.59312000E-03	-6.22753000E-02	-5.41243000E-03
		 5.04661000E-03	-6.47555000E-02	-1.03762000E-02
		 4.45329000E-03	-5.73201000E-02	-9.89302000E-03
		 2.55834000E-03	-6.72219000E-02	-5.46001000E-03
		 1.05398000E-04	-7.21314000E-02	-5.52759000E-04
		-4.70972000E-03	-7.23215000E-02	 9.44609000E-03
		 1.00257000E-04	-6.97124000E-02	-5.19014000E-04
		-4.77485000E-03	-6.99040000E-02	 9.55787000E-03
		 8.41655000E-05	-6.16485000E-02	-4.58470000E-04
		-2.30316000E-03	-7.22127000E-02	 4.34958000E-03
		-4.13397000E-03	-6.18437000E-02	 9.05276000E-03
		 4.92851000E-03	-7.20699000E-02	-1.05718000E-02
		 4.96727000E-03	-6.96470000E-02	-1.06132000E-02
		 4.30782000E-03	-6.16172000E-02	-9.96077000E-03
		 2.51933000E-03	-7.20846000E-02	-5.46366000E-03
		 4.66121000E-05	-8.25103000E-02	-5.95876000E-04
		-5.60442000E-03	-8.26867000E-02	 9.93235000E-03
		 9.19192000E-05	-8.81204000E-02	-6.72922000E-04
		-5.49708000E-03	-8.82864000E-02	 9.88653000E-03
		 4.82647000E-05	-7.22096000E-02	-4.69692000E-04
		-2.78294000E-03	-8.25973000E-02	 4.67824000E-03
		-5.37766000E-03	-7.23602000E-02	 9.85174000E-03
		 5.80425000E-05	-8.53269000E-02	-6.33807000E-04
		-5.56098000E-03	-8.55008000E-02	 9.87557000E-03
		 9.98829000E-05	-7.75620000E-02	-5.85279000E-04
		-2.71310000E-03	-8.81958000E-02	 4.59092000E-03
		-5.23538000E-03	-7.77287000E-02	 9.74207000E-03
		 5.72201000E-03	-8.23831000E-02	-1.11289000E-02
		 5.73670000E-03	-8.80250000E-02	-1.12621000E-02
		 5.46678000E-03	-7.21310000E-02	-1.08110000E-02
		 2.88583000E-03	-8.24390000E-02	-5.88310000E-03
		 5.72171000E-03	-8.52139000E-02	-1.11607000E-02
		 5.42990000E-03	-7.74879000E-02	-1.09315000E-02
		 2.91886000E-03	-8.80660000E-02	-5.95566000E-03
		 1.57738000E-04	-9.37044000E-02	-8.01649000E-04
		-5.40754000E-03	-9.38561000E-02	 9.76774000E-03
		 1.32146000E-04	-9.09115000E-02	-7.35385000E-04
		-5.44678000E-03	-9.10693000E-02	 9.86565000E-03
		 1.53146000E-04	-8.28500000E-02	-6.63437000E-04
		-2.62910000E-03	-9.37640000E-02	 4.44192000E-03
		-5.11568000E-03	-8.30223000E-02	 9.64768000E-03
		 5.76380000E-03	-9.36375000E-02	-1.13720000E-02
		 5.76132000E-03	-9.08283000E-02	-1.13576000E-02
		 5.40852000E-03	-8.27693000E-02	-1.10119000E-02
		 2.95829000E-03	-9.36733000E-02	-6.03666000E-03
		 2.03637000E-04	-1.03659000E-01	-8.62413000E-04
		-5.70508000E-03	-1.03786000E-01	 9.75991000E-03
		 1.30492000E-04	-1.09596000E-01	-9.16757000E-04
		-5.70579000E-03	-1.09814000E-01	 9.81693000E-03
		 1.10168000E-04	-9.30213000E-02	-7.32833000E-04
		-2.71627000E-03	-1.03729000E-01	 4.45214000E-03
		-5.74398000E-03	-9.31715000E-02	 9.88859000E-03
		 1.85264000E-04	-1.06613000E-01	-8.71661000E-04
		-5.69655000E-03	-1.06804000E-01	 9.78287000E-03
		 1.16519000E-04	-9.88458000E-02	-7.77602000E-04
		-2.76968000E-03	-1.09718000E-01	 4.44146000E-03
		-5.67536000E-03	-9.90303000E-02	 9.91027000E-03
		 6.04459000E-03	-1.03437000E-01	-1.14420000E-02
		 5.99662000E-03	-1.09384000E-01	-1.16023000E-02
		 5.94084000E-03	-9.28377000E-02	-1.13263000E-02
		 3.10357000E-03	-1.03547000E-01	-6.15715000E-03
		 6.02356000E-03	-1.06395000E-01	-1.14957000E-02
		 5.95220000E-03	-9.86912000E-02	-1.14676000E-02
		 3.03536000E-03	-1.09480000E-01	-6.26499000E-03
		 4.88510000E-05	-1.15509000E-01	-1.13001000E-03
		-5.71952000E-03	-1.15681000E-01	 9.70732000E-03
		 6.83657000E-05	-1.12564000E-01	-1.01193000E-03
		-5.71864000E-03	-1.12790000E-01	 9.80278000E-03
		 1.30807000E-04	-1.04632000E-01	-9.68976000E-04
		-2.85833000E-03	-1.15592000E-01	 4.27233000E-03
		-5.59115000E-03	-1.04754000E-01	 9.79372000E-03
		 5.98286000E-03	-1.15373000E-01	-1.18258000E-02
		 5.98353000E-03	-1.12382000E-01	-1.17141000E-02
		 5.98179000E-03	-1.04562000E-01	-1.16551000E-02
		 2.99896000E-03	-1.15445000E-01	-6.48866000E-03
		 0.00000000E+00	 0.00000000E+00	 0.00000000E+00
		 0.00000000E+00	 0.00000000E+00	 0.00000000E+00
		 1.16141000E-04	-1.38955000E-02	-1.21386000E-04
		-3.67332000E-03	-1.48820000E-02	 1.38690000E-02
		 0.00000000E+00	 0.00000000E+00	 0.00000000E+00
		 0.00000000E+00	 0.00000000E+00	 0.00000000E+00
		 1.28494000E-04	-1.68088000E-02	-1.35350000E-04
		-1.92874000E-03	-1.78585000E-02	 1.40180000E-02
		 0.00000000E+00	 0.00000000E+00	 0.00000000E+00
		 5.62346000E-05	-2.87824000E-03	-2.60107000E-05
		-1.78180000E-03	-1.40802000E-02	 6.85720000E-03
		-3.09599000E-03	-4.18556000E-03	 7.25070000E-03
		 0.00000000E+00	 0.00000000E+00	 0.00000000E+00
		 0.00000000E+00	 0.00000000E+00	 0.00000000E+00
		 1.23884000E-04	-1.56503000E-02	-1.32042000E-04
		-2.78494000E-03	-1.66639000E-02	 1.37777000E-02
		 0.00000000E+00	 0.00000000E+00	 0.00000000E+00
		 4.81051000E-05	-4.87114000E-03	-2.69702000E-05
		-8.99918000E-04	-1.70108000E-02	 6.75085000E-03
		-1.00891000E-03	-6.16001000E-03	 7.07576000E-03
		 0.00000000E+00	 0.00000000E+00	 0.00000000E+00
		 3.87117000E-03	-1.44054000E-02	-1.41772000E-02
		 0.00000000E+00	 0.00000000E+00	 0.00000000E+00
		 2.18492000E-03	-1.73655000E-02	-1.43627000E-02
		 0.00000000E+00	 0.00000000E+00	 0.00000000E+00
		 3.18895000E-03	-4.00043000E-03	-7.33305000E-03
		 2.00275000E-03	-1.38379000E-02	-7.12358000E-03
		 0.00000000E+00	 0.00000000E+00	 0.00000000E+00
		 3.01938000E-03	-1.61781000E-02	-1.41070000E-02
		 0.00000000E+00	 0.00000000E+00	 0.00000000E+00
		 1.10721000E-03	-5.97669000E-03	-7.14484000E-03
		 1.15552000E-03	-1.67657000E-02	-7.04662000E-03
		 0.00000000E+00	 0.00000000E+00	 0.00000000E+00
		 0.00000000E+00	 0.00000000E+00	 0.00000000E+00
		 1.33024000E-04	-1.80139000E-02	-9.54377000E-05
		-1.89012000E-04	-1.89972000E-02	 1.38974000E-02
		 0.00000000E+00	 0.00000000E+00	 0.00000000E+00
		 0.00000000E+00	 0.00000000E+00	 0.00000000E+00
		 1.30714000E-04	-1.77083000E-02	-1.28011000E-04
		-1.07275000E-03	-1.87260000E-02	 1.41255000E-02
		 0.00000000E+00	 0.00000000E+00	 0.00000000E+00
		 4.25119000E-05	-4.99537000E-03	 1.10099000E-05
		-2.55062000E-05	-1.81888000E-02	 6.54177000E-03
		 1.15074000E-03	-6.23664000E-03	 7.29675000E-03
		 0.00000000E+00	 0.00000000E+00	 0.00000000E+00
		 4.80087000E-04	-1.85176000E-02	-1.41517000E-02
		 0.00000000E+00	 0.00000000E+00	 0.00000000E+00
		 1.34094000E-03	-1.82301000E-02	-1.44563000E-02
		 0.00000000E+00	 0.00000000E+00	 0.00000000E+00
		-1.04629000E-03	-6.04433000E-03	-7.29007000E-03
		 3.01857000E-04	-1.79609000E-02	-6.74868000E-03
		 3.05318000E-04	-5.31259000E-02	-8.17481000E-04
		-4.48895000E-03	-5.44753000E-02	 2.38227000E-02
		 3.29601000E-04	-5.71979000E-02	-9.17241000E-04
		-3.02341000E-03	-5.85417000E-02	 2.37550000E-02
		 2.14484000E-04	-3.07693000E-02	-3.68372000E-04
		-2.09403000E-03	-5.36461000E-02	 1.14849000E-02
		-4.24222000E-03	-3.20285000E-02	 1.92771000E-02
		 3.19342000E-04	-5.53184000E-02	-8.77937000E-04
		-3.75555000E-03	-5.66653000E-02	 2.37505000E-02
		 2.25733000E-04	-3.44125000E-02	-4.19055000E-04
		-1.34613000E-03	-5.77163000E-02	 1.13749000E-02
		-2.61354000E-03	-3.56761000E-02	 1.92684000E-02
		 5.11528000E-03	-5.31337000E-02	-2.55382000E-02
		 3.70387000E-03	-5.72492000E-02	-2.56720000E-02
		 4.65326000E-03	-3.11611000E-02	-2.00932000E-02
		 2.70681000E-03	-5.29751000E-02	-1.31391000E-02
		 4.41621000E-03	-5.53552000E-02	-2.55841000E-02
		 3.07632000E-03	-3.48234000E-02	-2.01939000E-02
		 2.01618000E-03	-5.70746000E-02	-1.32260000E-02
		 3.34970000E-04	-5.98560000E-02	-9.44929000E-04
		-1.57573000E-03	-6.11603000E-02	 2.36942000E-02
		 3.33688000E-04	-5.86834000E-02	-9.37893000E-04
		-2.29661000E-03	-6.00386000E-02	 2.37788000E-02
		 2.26854000E-04	-3.64617000E-02	-4.05446000E-04
		-6.26068000E-04	-6.03455000E-02	 1.12683000E-02
		-1.03982000E-03	-3.77372000E-02	 1.92344000E-02
		 2.30572000E-03	-5.99314000E-02	-2.56684000E-02
		 3.00482000E-03	-5.87409000E-02	-2.57407000E-02
		 1.54373000E-03	-3.69277000E-02	-2.01379000E-02
		 1.31395000E-03	-5.97449000E-02	-1.31743000E-02
		 5.58329000E-04	-1.11767000E-01	-2.46299000E-03
		-4.72041000E-03	-1.13395000E-01	 3.05795000E-02
		 5.91455000E-04	-1.16459000E-01	-2.62362000E-03
		-3.57314000E-03	-1.18194000E-01	 3.04608000E-02
		 4.20687000E-04	-8.03050000E-02	-1.51039000E-03
		-2.07520000E-03	-1.12434000E-01	 1.40111000E-02
		-4.60548000E-03	-8.18230000E-02	 2.76023000E-02
		 5.77839000E-04	-1.14258000E-01	-2.54874000E-03
		-4.14647000E-03	-1.15952000E-01	 3.04673000E-02
		 4.43655000E-04	-8.46901000E-02	-1.64796000E-03
		-1.51611000E-03	-1.17180000E-01	 1.38147000E-02
		-3.30299000E-03	-8.62049000E-02	 2.75080000E-02
		 5.80216000E-03	-1.11154000E-01	-3.55653000E-02
		 4.76537000E-03	-1.15875000E-01	-3.58025000E-02
		 5.44395000E-03	-8.00316000E-02	-3.07069000E-02
		 3.17891000E-03	-1.11322000E-01	-1.89456000E-02
		 5.28392000E-03	-1.13654000E-01	-3.56538000E-02
		 4.20858000E-03	-8.44228000E-02	-3.08838000E-02
		 2.67869000E-03	-1.16034000E-01	-1.91003000E-02
		 6.06160000E-04	-1.20093000E-01	-2.71035000E-03
		-2.54349000E-03	-1.21925000E-01	 3.03235000E-02
		 6.00459000E-04	-1.18428000E-01	-2.67993000E-03
		-3.06065000E-03	-1.20093000E-01	 3.04820000E-02
		 4.59442000E-04	-8.78131000E-02	-1.70962000E-03
		-9.43704000E-04	-1.20863000E-01	 1.36017000E-02
		-2.04080000E-03	-8.93323000E-02	 2.74080000E-02
		 3.73048000E-03	-1.19543000E-01	-3.58641000E-02
		 4.24895000E-03	-1.17840000E-01	-3.59390000E-02
		 2.94755000E-03	-8.75563000E-02	-3.09049000E-02
		 2.16175000E-03	-1.19700000E-01	-1.90821000E-02
		 9.45991000E-04	-1.85146000E-01	-5.06824000E-03
		-4.36539000E-03	-1.86833000E-01	 3.33644000E-02
		 9.82476000E-04	-1.90240000E-01	-5.23037000E-03
		-3.90714000E-03	-1.92386000E-01	 3.32482000E-02
		 7.02378000E-04	-1.46986000E-01	-3.65863000E-03
		-1.70825000E-03	-1.85915000E-01	 1.40435000E-02
		-4.67580000E-03	-1.48754000E-01	 3.24783000E-02
		 9.67535000E-04	-1.87723000E-01	-5.15359000E-03
		-4.12539000E-03	-1.89590000E-01	 3.33249000E-02
		 7.34303000E-04	-1.51983000E-01	-3.87304000E-03
		-1.34133000E-03	-1.91226000E-01	 1.39147000E-02
		-3.87696000E-03	-1.53708000E-01	 3.24037000E-02
		 6.09733000E-03	-1.83891000E-01	-4.35420000E-02
		 5.58716000E-03	-1.88843000E-01	-4.37452000E-02
		 6.05620000E-03	-1.46028000E-01	-3.98545000E-02
		 3.51941000E-03	-1.84470000E-01	-2.41838000E-02
		 5.84737000E-03	-1.86425000E-01	-4.36752000E-02
		 5.28364000E-03	-1.51001000E-01	-4.01050000E-02
		 3.27271000E-03	-1.89463000E-01	-2.43872000E-02
		 8.72058000E-04	-1.94834000E-01	-5.35517000E-03
		-3.33849000E-03	-1.97332000E-01	 3.30831000E-02
		 9.29782000E-04	-1.92564000E-01	-5.30174000E-03
		-3.62096000E-03	-1.95407000E-01	 3.31881000E-02
		 7.30417000E-04	-1.56185000E-01	-4.05325000E-03
		-1.34949000E-03	-1.95980000E-01	 1.37365000E-02
		-2.93149000E-03	-1.57783000E-01	 3.22317000E-02
		 5.09809000E-03	-1.93303000E-01	-4.38172000E-02