# vtk DataFile Version 3.0

ASCII
DATASET UNSTRUCTURED_GRID

POINTS 522 double
	 1.00000000E+00	 1.00000000E+00	-5.96046000E-08
	 1.00000000E+00	 5.00000000E-01	-5.96046000E-08
	 1.00000000E+00	 5.00000000E-01	 1.00000000E+00
	 1.00000000E+00	 1.00000000E+00	 1.00000000E+00
	 5.00000000E-01	 1.00000000E+00	-5.96046000E-08
	 5.00000000E-01	 5.00000000E-01	-5.96046000E-08
	 5.00000000E-01	 5.00000000E-01	 1.00000000E+00
	 5.00000000E-01	 1.00000000E+00	 1.00000000E+00
	 1.00000000E+00	 7.50000000E-01	-5.96046000E-08
	 1.00000000E+00	 5.00000000E-01	 5.00000000E-01
	 1.00000000E+00	 7.50000000E-01	 1.00000000E+00
	 1.00000000E+00	 1.00000000E+00	 5.00000000E-01
	 7.50000000E-01	 1.00000000E+00	-5.96046000E-08
	 7.50000000E-01	 5.00000000E-01	-5.96046000E-08
	 7.50000000E-01	 5.00000000E-01	 1.00000000E+00
	 7.50000000E-01	 1.00000000E+00	 1.00000000E+00
	 5.00000000E-01	 7.50000000E-01	-5.96046000E-08
	 5.00000000E-01	 5.00000000E-01	 5.00000000E-01
	 5.00000000E-01	 7.50000000E-01	 1.00000000E+00
	 5.00000000E-01	 1.00000000E+00	 5.00000000E-01
	 1.00000000E+00	-1.49012000E-08	-5.96046000E-08
	 1.00000000E+00	-1.49012000E-08	 1.00000000E+00
	 5.00000000E-01	-1.49012000E-08	-5.96046000E-08
	 5.00000000E-01	-1.49012000E-08	 1.00000000E+00
	 1.00000000E+00	 2.50000000E-01	-5.96046000E-08
	 1.00000000E+00	-1.49012000E-08	 5.00000000E-01
	 1.00000000E+00	 2.50000000E-01	 1.00000000E+00
	 7.50000000E-01	-1.49012000E-08	-5.96046000E-08
	 7.50000000E-01	-1.49012000E-08	 1.00000000E+00
	 5.00000000E-01	 2.50000000E-01	-5.96046000E-08
	 5.00000000E-01	-1.49012000E-08	 5.00000000E-01
	 5.00000000E-01	 2.50000000E-01	 1.00000000E+00
	-7.45058000E-09	 1.00000000E+00	-5.96046000E-08
	-7.45058000E-09	 5.00000000E-01	-5.96046000E-08
	-7.45058000E-09	 5.00000000E-01	 1.00000000E+00
	-7.45058000E-09	 1.00000000E+00	 1.00000000E+00
	 2.50000000E-01	 1.00000000E+00	-5.96046000E-08
	 2.50000000E-01	 5.00000000E-01	-5.96046000E-08
	 2.50000000E-01	 5.00000000E-01	 1.00000000E+00
	 2.50000000E-01	 1.00000000E+00	 1.00000000E+00
	-7.45058000E-09	 7.50000000E-01	-5.96046000E-08
	-7.45058000E-09	 5.00000000E-01	 5.00000000E-01
	-7.45058000E-09	 7.50000000E-01	 1.00000000E+00
	-7.45058000E-09	 1.00000000E+00	 5.00000000E-01
	-7.45058000E-09	-1.49012000E-08	-5.96046000E-08
	-7.45058000E-09	-1.49012000E-08	 1.00000000E+00
	 2.50000000E-01	-1.49012000E-08	-5.96046000E-08
	 2.50000000E-01	-1.49012000E-08	 1.00000000E+00
	-7.45058000E-09	 2.50000000E-01	-5.96046000E-08
	-7.45058000E-09	-1.49012000E-08	 5.00000000E-01
	-7.45058000E-09	 2.50000000E-01	 1.00000000E+00
	 1.00000000E+00	 5.00000000E-01	 2.00000000E+00
	 1.00000000E+00	 1.00000000E+00	 2.00000000E+00
	 5.00000000E-01	 5.00000000E-01	 2.00000000E+00
	 5.00000000E-01	 1.00000000E+00	 2.00000000E+00
	 1.00000000E+00	 5.00000000E-01	 1.50000000E+00
	 1.00000000E+00	 7.50000000E-01	 2.00000000E+00
	 1.00000000E+00	 1.00000000E+00	 1.50000000E+00
	 7.50000000E-01	 5.00000000E-01	 2.00000000E+00
	 7.50000000E-01	 1.00000000E+00	 2.00000000E+00
	 5.00000000E-01	 5.00000000E-01	 1.50000000E+00
	 5.00000000E-01	 7.50000000E-01	 2.00000000E+00
	 5.00000000E-01	 1.00000000E+00	 1.50000000E+00
	 1.00000000E+00	-1.49012000E-08	 2.00000000E+00
	 5.00000000E-01	-1.49012000E-08	 2.00000000E+00
	 1.00000000E+00	-1.49012000E-08	 1.50000000E+00
	 1.00000000E+00	 2.50000000E-01	 2.00000000E+00
	 7.50000000E-01	-1.49012000E-08	 2.00000000E+00
	 5.00000000E-01	-1.49012000E-08	 1.50000000E+00
	 5.00000000E-01	 2.50000000E-01	 2.00000000E+00
	-7.45058000E-09	 5.00000000E-01	 2.00000000E+00
	-7.45058000E-09	 1.00000000E+00	 2.00000000E+00
	 2.50000000E-01	 5.00000000E-01	 2.00000000E+00
	 2.50000000E-01	 1.00000000E+00	 2.00000000E+00
	-7.45058000E-09	 5.00000000E-01	 1.50000000E+00
	-7.45058000E-09	 7.50000000E-01	 2.00000000E+00
	-7.45058000E-09	 1.00000000E+00	 1.50000000E+00
	-7.45058000E-09	-1.49012000E-08	 2.00000000E+00
	 2.50000000E-01	-1.49012000E-08	 2.00000000E+00
	-7.45058000E-09	-1.49012000E-08	 1.50000000E+00
	-7.45058000E-09	 2.50000000E-01	 2.00000000E+00
	 1.00000000E+00	 5.00000000E-01	 3.00000000E+00
	 1.00000000E+00	 1.00000000E+00	 3.00000000E+00
	 5.00000000E-01	 5.00000000E-01	 3.00000000E+00
	 5.00000000E-01	 1.00000000E+00	 3.00000000E+00
	 1.00000000E+00	 5.00000000E-01	 2.50000000E+00
	 1.00000000E+00	 7.50000000E-01	 3.00000000E+00
	 1.00000000E+00	 1.00000000E+00	 2.50000000E+00
	 7.50000000E-01	 5.00000000E-01	 3.00000000E+00
	 7.50000000E-01	 1.00000000E+00	 3.00000000E+00
	 5.00000000E-01	 5.00000000E-01	 2.50000000E+00
	 5.00000000E-01	 7.50000000E-01	 3.00000000E+00
	 5.00000000E-01	 1.00000000E+00	 2.50000000E+00
	 1.00000000E+00	-1.49012000E-08	 3.00000000E+00
	 5.00000000E-01	-1.49012000E-08	 3.00000000E+00
	 1.00000000E+00	-1.49012000E-08	 2.50000000E+00
	 1.00000000E+00	 2.50000000E-01	 3.00000000E+00
	 7.50000000E-01	-1.49012000E-08	 3.00000000E+00
	 5.00000000E-01	-1.49012000E-08	 2.50000000E+00
	 5.00000000E-01	 2.50000000E-01	 3.00000000E+00
	-7.45058000E-09	 5.00000000E-01	 3.00000000E+00
	-7.45058000E-09	 1.00000000E+00	 3.00000000E+00
	 2.50000000E-01	 5.00000000E-01	 3.00000000E+00
	 2.50000000E-01	 1.00000000E+00	 3.00000000E+00
	-7.45058000E-09	 5.00000000E-01	 2.50000000E+00
	-7.45058000E-09	 7.50000000E-01	 3.00000000E+00
	-7.45058000E-09	 1.00000000E+00	 2.50000000E+00
	-7.45058000E-09	-1.49012000E-08	 3.00000000E+00
	 2.50000000E-01	-1.49012000E-08	 3.00000000E+00
	-7.45058000E-09	-1.49012000E-08	 2.50000000E+00
	-7.45058000E-09	 2.50000000E-01	 3.00000000E+00
	 1.00000000E+00	 5.00000000E-01	 4.00000000E+00
	 1.00000000E+00	 1.00000000E+00	 4.00000000E+00
	 5.00000000E-01	 5.00000000E-01	 4.00000000E+00
	 5.00000000E-01	 1.00000000E+00	 4.00000000E+00
	 1.00000000E+00	 5.00000000E-01	 3.50000000E+00
	 1.00000000E+00	 7.50000000E-01	 4.00000000E+00
	 1.00000000E+00	 1.00000000E+00	 3.50000000E+00
	 7.50000000E-01	 5.00000000E-01	 4.00000000E+00
	 7.50000000E-01	 1.00000000E+00	 4.00000000E+00
	 5.00000000E-01	 5.00000000E-01	 3.50000000E+00
	 5.00000000E-01	 7.50000000E-01	 4.00000000E+00
	 5.00000000E-01	 1.00000000E+00	 3.50000000E+00
	 1.00000000E+00	-1.49012000E-08	 4.00000000E+00
	 5.00000000E-01	-1.49012000E-08	 4.00000000E+00
	 1.00000000E+00	-1.49012000E-08	 3.50000000E+00
	 1.00000000E+00	 2.50000000E-01	 4.00000000E+00
	 7.50000000E-01	-1.49012000E-08	 4.00000000E+00
	 5.00000000E-01	-1.49012000E-08	 3.50000000E+00
	 5.00000000E-01	 2.50000000E-01	 4.00000000E+00
	-7.45058000E-09	 5.00000000E-01	 4.00000000E+00
	-7.45058000E-09	 1.00000000E+00	 4.00000000E+00
	 2.50000000E-01	 5.00000000E-01	 4.00000000E+00
	 2.50000000E-01	 1.00000000E+00	 4.00000000E+00
	-7.45058000E-09	 5.00000000E-01	 3.50000000E+00
	-7.45058000E-09	 7.50000000E-01	 4.00000000E+00
	-7.45058000E-09	 1.00000000E+00	 3.50000000E+00
	-7.45058000E-09	-1.49012000E-08	 4.00000000E+00
	 2.50000000E-01	-1.49012000E-08	 4.00000000E+00
	-7.45058000E-09	-1.49012000E-08	 3.50000000E+00
	-7.45058000E-09	 2.50000000E-01	 4.00000000E+00
	 1.00000000E+00	 5.00000000E-01	 5.00000000E+00
	 1.00000000E+00	 1.00000000E+00	 5.00000000E+00
	 5.00000000E-01	 5.00000000E-01	 5.00000000E+00
	 5.00000000E-01	 1.00000000E+00	 5.00000000E+00
	 1.00000000E+00	 5.00000000E-01	 4.50000000E+00
	 1.00000000E+00	 7.50000000E-01	 5.00000000E+00
	 1.00000000E+00	 1.00000000E+00	 4.50000000E+00
	 7.50000000E-01	 5.00000000E-01	 5.00000000E+00
	 7.50000000E-01	 1.00000000E+00	 5.00000000E+00
	 5.00000000E-01	 5.00000000E-01	 4.50000000E+00
	 5.00000000E-01	 7.50000000E-01	 5.00000000E+00
	 5.00000000E-01	 1.00000000E+00	 4.50000000E+00
	 1.00000000E+00	-1.49012000E-08	 5.00000000E+00
	 5.00000000E-01	-1.49012000E-08	 5.00000000E+00
	 1.00000000E+00	-1.49012000E-08	 4.50000000E+00
	 1.00000000E+00	 2.50000000E-01	 5.00000000E+00
	 7.50000000E-01	-1.49012000E-08	 5.00000000E+00
	 5.00000000E-01	-1.49012000E-08	 4.50000000E+00
	 5.00000000E-01	 2.50000000E-01	 5.00000000E+00
	-7.45058000E-09	 5.00000000E-01	 5.00000000E+00
	-7.45058000E-09	 1.00000000E+00	 5.00000000E+00
	 2.50000000E-01	 5.00000000E-01	 5.00000000E+00
	 2.50000000E-01	 1.00000000E+00	 5.00000000E+00
	-7.45058000E-09	 5.00000000E-01	 4.50000000E+00
	-7.45058000E-09	 7.50000000E-01	 5.00000000E+00
	-7.45058000E-09	 1.00000000E+00	 4.50000000E+00
	-7.45058000E-09	-1.49012000E-08	 5.00000000E+00
	 2.50000000E-01	-1.49012000E-08	 5.00000000E+00
	-7.45058000E-09	-1.49012000E-08	 4.50000000E+00
	-7.45058000E-09	 2.50000000E-01	 5.00000000E+00
	 1.00000000E+00	 5.00000000E-01	 6.00000000E+00
	 1.00000000E+00	 1.00000000E+00	 6.00000000E+00
	 5.00000000E-01	 5.00000000E-01	 6.00000000E+00
	 5.00000000E-01	 1.00000000E+00	 6.00000000E+00
	 1.00000000E+00	 5.00000000E-01	 5.50000000E+00
	 1.00000000E+00	 7.50000000E-01	 6.00000000E+00
	 1.00000000E+00	 1.00000000E+00	 5.50000000E+00
	 7.50000000E-01	 5.00000000E-01	 6.00000000E+00
	 7.50000000E-01	 1.00000000E+00	 6.00000000E+00
	 5.00000000E-01	 5.00000000E-01	 5.50000000E+00
	 5.00000000E-01	 7.50000000E-01	 6.00000000E+00
	 5.00000000E-01	 1.00000000E+00	 5.50000000E+00
	 1.00000000E+00	-1.49012000E-08	 6.00000000E+00
	 5.00000000E-01	-1.49012000E-08	 6.00000000E+00
	 1.00000000E+00	-1.49012000E-08	 5.50000000E+00
	 1.00000000E+00	 2.50000000E-01	 6.00000000E+00
	 7.50000000E-01	-1.49012000E-08	 6.00000000E+00
	 5.00000000E-01	-1.49012000E-08	 5.50000000E+00
	 5.00000000E-01	 2.50000000E-01	 6.00000000E+00
	-7.45058000E-09	 5.00000000E-01	 6.00000000E+00
	-7.45058000E-09	 1.00000000E+00	 6.00000000E+00
	 2.50000000E-01	 5.00000000E-01	 6.00000000E+00
	 2.50000000E-01	 1.00000000E+00	 6.00000000E+00
	-7.45058000E-09	 5.00000000E-01	 5.50000000E+00
	-7.45058000E-09	 7.50000000E-01	 6.00000000E+00
	-7.45058000E-09	 1.00000000E+00	 5.50000000E+00
	-7.45058000E-09	-1.49012000E-08	 6.00000000E+00
	 2.50000000E-01	-1.49012000E-08	 6.00000000E+00
	-7.45058000E-09	-1.49012000E-08	 5.50000000E+00
	-7.45058000E-09	 2.50000000E-01	 6.00000000E+00
	 1.00000000E+00	 5.00000000E-01	 7.00000000E+00
[...]
POINT_DATA 522
FIELD U 1
	U 3 522 double
		 0.00000000E+00	 0.00000000E+00	 0.00000000E+00
		 0.00000000E+00	 0.00000000E+00	 0.00000000E+00
		-1.08017000E-05	-4.29132000E-03	 9.60070000E-06
		 5.17837000E-04	-4.52364000E-03	 3.45486000E-03
		 0.00000000E+00	 0.00000000E+00	 0.00000000E+00
		 0.00000000E+00	 0.00000000E+00	 0.00000000E+00
		-7.37184000E-06	-3.48993000E-03	 1.15074000E-05
		 1.03178000E-03	-3.75543000E-03	 3.48095000E-03
		 0.00000000E+00	 0.00000000E+00	 0.00000000E+00
		-6.48805000E-06	-1.20362000E-03	 9.76576000E-06
		 2.55978000E-04	-4.32119000E-03	 1.64861000E-03
		 2.90244000E-05	-1.48053000E-03	 1.68740000E-03
		 0.00000000E+00	 0.00000000E+00	 0.00000000E+00
		 0.00000000E+00	 0.00000000E+00	 0.00000000E+00
		-7.42747000E-06	-3.97031000E-03	 9.92092000E-06
		 7.77344000E-04	-4.22252000E-03	 3.53986000E-03
		 0.00000000E+00	 0.00000000E+00	 0.00000000E+00
		-3.03412000E-06	-8.55732000E-04	 4.91486000E-06
		 5.13101000E-04	-3.53769000E-03	 1.73507000E-03
		 5.68604000E-04	-1.16162000E-03	 1.63026000E-03
		 0.00000000E+00	 0.00000000E+00	 0.00000000E+00
		-5.69016000E-04	-4.50966000E-03	-3.43637000E-03
		 0.00000000E+00	 0.00000000E+00	 0.00000000E+00
		-1.06374000E-03	-3.70960000E-03	-3.46150000E-03
		 0.00000000E+00	 0.00000000E+00	 0.00000000E+00
		-6.67200000E-05	-1.48459000E-03	-1.66766000E-03
		-2.86014000E-04	-4.31861000E-03	-1.62954000E-03
		 0.00000000E+00	 0.00000000E+00	 0.00000000E+00
		-8.19821000E-04	-4.18687000E-03	-3.52179000E-03
		 0.00000000E+00	 0.00000000E+00	 0.00000000E+00
		-5.92560000E-04	-1.14348000E-03	-1.61858000E-03
		-5.34086000E-04	-3.51150000E-03	-1.71367000E-03
		 0.00000000E+00	 0.00000000E+00	 0.00000000E+00
		 0.00000000E+00	 0.00000000E+00	 0.00000000E+00
		-6.15992000E-06	-2.19724000E-03	 1.93456000E-05
		 1.54197000E-03	-2.45246000E-03	 3.46426000E-03
		 0.00000000E+00	 0.00000000E+00	 0.00000000E+00
		 0.00000000E+00	 0.00000000E+00	 0.00000000E+00
		-7.44348000E-06	-2.92492000E-03	 1.50457000E-05
		 1.28356000E-03	-3.18318000E-03	 3.38614000E-03
		 0.00000000E+00	 0.00000000E+00	 0.00000000E+00
		-3.53997000E-06	-4.29301000E-05	 7.21679000E-06
		 7.70847000E-04	-2.24338000E-03	 1.81787000E-03
		 1.07323000E-03	-3.70130000E-04	 1.68818000E-03
		 0.00000000E+00	 0.00000000E+00	 0.00000000E+00
		-1.55373000E-03	-2.40236000E-03	-3.43040000E-03
		 0.00000000E+00	 0.00000000E+00	 0.00000000E+00
		-1.30490000E-03	-3.13390000E-03	-3.36040000E-03
		 0.00000000E+00	 0.00000000E+00	 0.00000000E+00
		-1.08826000E-03	-3.41120000E-04	-1.67064000E-03
		-7.83007000E-04	-2.21436000E-03	-1.78158000E-03
		-1.90737000E-05	-1.53668000E-02	-4.37684000E-05
		 1.10103000E-03	-1.56727000E-02	 6.90671000E-03
		-1.56309000E-05	-1.39821000E-02	-2.18804000E-05
		 1.60837000E-03	-1.42951000E-02	 6.93603000E-03
		-1.51961000E-05	-8.96923000E-03	-4.74911000E-06
		 5.40292000E-04	-1.54582000E-02	 3.39290000E-03
		 8.60492000E-04	-9.27628000E-03	 5.20610000E-03
		-1.85194000E-05	-1.47359000E-02	-3.38051000E-05
		 1.35671000E-03	-1.50439000E-02	 6.94524000E-03
		-1.31946000E-05	-7.83632000E-03	 5.54208000E-06
		 7.97372000E-04	-1.40754000E-02	 3.44506000E-03
		 1.36858000E-03	-8.14161000E-03	 5.21961000E-03
		-1.14025000E-03	-1.55674000E-02	-7.00079000E-03
		-1.64445000E-03	-1.41842000E-02	-6.98673000E-03
		-9.03813000E-04	-9.21862000E-03	-5.21972000E-03
		-5.79175000E-04	-1.54053000E-02	-3.48191000E-03
		-1.39478000E-03	-1.49364000E-02	-7.01869000E-03
		-1.40243000E-03	-8.06790000E-03	-5.21447000E-03
		-8.30074000E-04	-1.40209000E-02	-3.48949000E-03
		-6.37797000E-06	-1.21122000E-02	 7.52691000E-06
		 2.13124000E-03	-1.24178000E-02	 6.96086000E-03
		-1.15030000E-05	-1.31060000E-02	-7.96697000E-06
		 1.86722000E-03	-1.34189000E-02	 6.92910000E-03
		-9.33977000E-06	-6.19731000E-03	 2.14520000E-05
		 1.05993000E-03	-1.22023000E-02	 3.49128000E-03
		 1.90442000E-03	-6.49160000E-03	 5.23213000E-03
		-2.15335000E-03	-1.22915000E-02	-6.95404000E-03
		-1.89879000E-03	-1.33016000E-02	-6.95290000E-03
		-1.92158000E-03	-6.41190000E-03	-5.19772000E-03
		-1.07581000E-03	-1.21390000E-02	-3.47728000E-03
		-1.90875000E-06	-3.34782000E-02	-2.08551000E-04
		 1.66905000E-03	-3.37458000E-02	 9.73346000E-03
		 1.61499000E-06	-3.16356000E-02	-1.61044000E-04
		 2.01413000E-03	-3.19094000E-02	 9.81260000E-03
		-1.11896000E-05	-2.35778000E-02	-1.12350000E-04
		 8.36530000E-04	-3.35652000E-02	 4.65207000E-03
		 1.35225000E-03	-2.38671000E-02	 8.47534000E-03
		-5.42667000E-07	-3.26006000E-02	-1.85081000E-04
		 1.83984000E-03	-3.28752000E-02	 9.82041000E-03
		-9.02938000E-06	-2.19792000E-02	-7.65180000E-05
		 1.00793000E-03	-3.17264000E-02	 4.75930000E-03
		 1.80909000E-03	-2.22777000E-02	 8.53035000E-03
		-1.67632000E-03	-3.35354000E-02	-1.01570000E-02
		-2.00800000E-03	-3.16938000E-02	-1.01417000E-02
		-1.37611000E-03	-2.37080000E-02	-8.70600000E-03
		-8.40711000E-04	-3.34637000E-02	-5.06963000E-03
		-1.84190000E-03	-3.26589000E-02	-1.01980000E-02
		-1.82602000E-03	-2.21141000E-02	-8.69111000E-03
		-1.00306000E-03	-3.16202000E-02	-5.08254000E-03
		 1.09885000E-05	-2.94596000E-02	-1.05521000E-04
		 2.36211000E-03	-2.97286000E-02	 9.83880000E-03
		 5.23695000E-06	-3.05923000E-02	-1.35545000E-04
		 2.18876000E-03	-3.08643000E-02	 9.81149000E-03
		-9.87640000E-07	-1.99435000E-02	-3.27152000E-05
		 1.18540000E-03	-2.95479000E-02	 4.81693000E-03
		 2.26729000E-03	-2.02387000E-02	 8.55863000E-03
		-2.33449000E-03	-2.95159000E-02	-1.00559000E-02
		-2.17240000E-03	-3.06497000E-02	-1.00889000E-02
		-2.26781000E-03	-2.00728000E-02	-8.63191000E-03
		-1.16117000E-03	-2.94449000E-02	-5.02886000E-03
		 2.37669000E-05	-5.62353000E-02	-4.50128000E-04
		 2.40132000E-03	-5.63745000E-02	 1.05685000E-02
		 3.67145000E-05	-5.38688000E-02	-3.84606000E-04
		 2.41885000E-03	-5.39971000E-02	 1.06607000E-02
		 1.04121000E-05	-4.46293000E-02	-3.27092000E-04
		 1.20909000E-03	-5.63066000E-02	 4.97450000E-03
		 2.04979000E-03	-4.48356000E-02	 1.04111000E-02
		 2.98904000E-05	-5.50517000E-02	-4.17186000E-04
		 2.40835000E-03	-5.51831000E-02	 1.06539000E-02
		 1.93708000E-05	-4.25129000E-02	-2.68240000E-04
		 1.22763000E-03	-5.39368000E-02	 5.08960000E-03
		 2.22720000E-03	-4.27173000E-02	 1.05069000E-02
		-2.35014000E-03	-5.61114000E-02	-1.14630000E-02
		-2.34475000E-03	-5.37381000E-02	-1.14254000E-02
		-2.03159000E-03	-4.45936000E-02	-1.10684000E-02
		-1.16118000E-03	-5.61793000E-02	-5.87310000E-03
		-2.34566000E-03	-5.49215000E-02	-1.14822000E-02
		-2.18902000E-03	-4.24706000E-02	-1.10469000E-02
		-1.15425000E-03	-5.38106000E-02	-5.85734000E-03
		 4.78474000E-05	-5.14718000E-02	-3.22000000E-04
		 2.43708000E-03	-5.16066000E-02	 1.06952000E-02
		 4.31842000E-05	-5.26695000E-02	-3.52921000E-04
		 2.43022000E-03	-5.27994000E-02	 1.06711000E-02
		 3.10146000E-05	-4.02157000E-02	-2.04743000E-04
		 1.24408000E-03	-5.15419000E-02	 5.14752000E-03
		 2.40891000E-03	-4.04214000E-02	 1.05321000E-02
		-2.34210000E-03	-5.13497000E-02	-1.13365000E-02
		-2.34480000E-03	-5.25422000E-02	-1.13735000E-02
		-2.34785000E-03	-4.01736000E-02	-1.09457000E-02
		-1.14862000E-03	-5.14154000E-02	-5.79064000E-03
		 3.51044000E-05	-7.85171000E-02	-6.60556000E-04
		 2.83281000E-03	-7.86060000E-02	 9.92996000E-03
		 4.37668000E-05	-7.57561000E-02	-5.95876000E-04
		 2.76378000E-03	-7.58520000E-02	 9.99361000E-03
		 3.05135000E-05	-6.75948000E-02	-5.59421000E-04
		 1.43497000E-03	-7.85712000E-02	 4.62386000E-03
		 2.64853000E-03	-6.77112000E-02	 1.03033000E-02
		 4.07227000E-05	-7.71254000E-02	-6.27931000E-04
		 2.80024000E-03	-7.72193000E-02	 9.98476000E-03
		 4.06489000E-05	-6.50191000E-02	-4.95155000E-04
		 1.40431000E-03	-7.58153000E-02	 4.71242000E-03
		 2.58633000E-03	-6.51288000E-02	 1.03803000E-02
		-2.77541000E-03	-7.83629000E-02	-1.12483000E-02
		-2.68273000E-03	-7.55951000E-02	-1.11822000E-02
		-2.58734000E-03	-6.74476000E-02	-1.14164000E-02
		-1.36814000E-03	-7.84506000E-02	-5.94297000E-03
		-2.73022000E-03	-7.69657000E-02	-1.12395000E-02
		-2.50573000E-03	-6.48664000E-02	-1.13639000E-02
		-1.31927000E-03	-7.56840000E-02	-5.90379000E-03
		 5.02592000E-05	-7.30751000E-02	-5.34253000E-04
		 2.69082000E-03	-7.31752000E-02	 1.00591000E-02
		 4.63338000E-05	-7.44056000E-02	-5.64485000E-04
		 2.72529000E-03	-7.45011000E-02	 9.99543000E-03
		 4.81769000E-05	-6.25048000E-02	-4.36627000E-04
		 1.37287000E-03	-7.31374000E-02	 4.80656000E-03
		 2.52122000E-03	-6.26216000E-02	 1.04282000E-02
		-2.58925000E-03	-7.29186000E-02	-1.11234000E-02
		-2.63438000E-03	-7.42446000E-02	-1.11206000E-02
		-2.42338000E-03	-6.23630000E-02	-1.12945000E-02
		-1.27232000E-03	-7.30051000E-02	-5.87453000E-03
		 5.44636000E-05	-9.96752000E-02	-8.62585000E-04
		 3.25821000E-03	-9.97776000E-02	 9.41355000E-03
		 6.36942000E-05	-9.64893000E-02	-7.82174000E-04
		 3.23664000E-03	-9.65973000E-02	 9.49400000E-03
		 4.38538000E-05	-8.91428000E-02	-7.62736000E-04
		 1.65853000E-03	-9.97303000E-02	 4.24297000E-03
		 3.01832000E-03	-8.92310000E-02	 9.64449000E-03
		 6.00265000E-05	-9.80770000E-02	-8.22199000E-04
		 3.24740000E-03	-9.81844000E-02	 9.48848000E-03
		 5.25824000E-05	-8.61816000E-02	-6.90453000E-04
		 1.65197000E-03	-9.65489000E-02	 4.35854000E-03
		 2.98496000E-03	-8.62838000E-02	 9.71219000E-03
		-3.16138000E-03	-9.95386000E-02	-1.11461000E-02
		-3.11400000E-03	-9.63464000E-02	-1.10643000E-02
		-2.94982000E-03	-8.89975000E-02	-1.11676000E-02
		-1.55365000E-03	-9.96104000E-02	-5.97234000E-03
		-3.13771000E-03	-9.79363000E-02	-1.11380000E-02
		-2.88834000E-03	-8.60306000E-02	-1.10926000E-02
		-1.52652000E-03	-9.64198000E-02	-5.92487000E-03
		 7.18733000E-05	-9.33358000E-02	-7.05832000E-04
		 3.21907000E-03	-9.34407000E-02	 9.57735000E-03
		 6.71262000E-05	-9.49100000E-02	-7.43807000E-04
		 3.22799000E-03	-9.50168000E-02	 9.49932000E-03
		 5.96749000E-05	-8.32722000E-02	-6.20817000E-04
		 1.64482000E-03	-9.33940000E-02	 4.47652000E-03
		 2.94861000E-03	-8.33763000E-02	 9.79096000E-03
		-3.06956000E-03	-9.31941000E-02	-1.09950000E-02
		-3.09208000E-03	-9.47679000E-02	-1.09927000E-02
		-2.82657000E-03	-8.31231000E-02	-1.10328000E-02
		-1.49940000E-03	-9.32666000E-02	-5.88995000E-03
		 7.22168000E-05	-1.20319000E-01	-1.06129000E-03
		 3.60226000E-03	-1.20427000E-01	 9.11383000E-03
		 8.68067000E-05	-1.16789000E-01	-9.82159000E-04
		 3.62934000E-03	-1.16904000E-01	 9.17292000E-03
		 6.53293000E-05	-1.10074000E-01	-9.58581000E-04
		 1.84139000E-03	-1.20368000E-01	 4.02421000E-03
		 3.47474000E-03	-1.10184000E-01	 9.22432000E-03
		 8.18318000E-05	-1.18552000E-01	-1.02267000E-03
		 3.61600000E-03	-1.18665000E-01	 9.15922000E-03
		 7.69332000E-05	-1.06688000E-01	-8.77252000E-04
		 1.86395000E-03	-1.16845000E-01	 4.10509000E-03
		 3.46646000E-03	-1.06797000E-01	 9.29967000E-03
		-3.47955000E-03	-1.20224000E-01	-1.12335000E-02
		-3.47480000E-03	-1.16676000E-01	-1.11335000E-02
		-3.35040000E-03	-1.09956000E-01	-1.11579000E-02
		-1.70361000E-03	-1.20275000E-01	-6.14167000E-03
		-3.47584000E-03	-1.18447000E-01	-1.12048000E-02
		-3.31995000E-03	-1.06560000E-01	-1.10656000E-02
		-1.69765000E-03	-1.16734000E-01	-6.06689000E-03
		 9.41446000E-05	-1.13235000E-01	-8.99361000E-04
		 3.66250000E-03	-1.13350000E-01	 9.24781000E-03
		 9.00212000E-05	-1.15018000E-01	-9.40239000E-04
		 3.64871000E-03	-1.15133000E-01	 9.18621000E-03
		 8.46521000E-05	-1.03312000E-01	-7.97819000E-04
		 1.87988000E-03	-1.13293000E-01	 4.20164000E-03
		 3.46640000E-03	-1.03417000E-01	 9.38599000E-03
		-3.48106000E-03	-1.13115000E-01	-1.10397000E-02
		-3.48116000E-03	-1.14900000E-01	-1.10608000E-02
		-3.29695000E-03	-1.03181000E-01	-1.09895000E-02
		-1.69502000E-03	-1.13175000E-01	-5.99714000E-03
		 1.00550000E-04	-1.40871000E-01	-1.27745000E-03
		 3.72787000E-03	-1.41026000E-01	 9.04566000E-03
		 1.00424000E-04	-1.37169000E-01	-1.18142000E-03
		 3.75767000E-03	-1.37326000E-01	 9.08650000E-03
		 8.03676000E-05	-1.30572000E-01	-1.17232000E-03
		 1.91392000E-03	-1.40947000E-01	 3.87159000E-03
		 3.68468000E-03	-1.30685000E-01	 9.08883000E-03
		 1.02117000E-04	-1.39033000E-01	-1.22810000E-03
		 3.74014000E-03	-1.39193000E-01	 9.07932000E-03
		 9.28197000E-05	-1.26938000E-01	-1.08709000E-03
		 1.91900000E-03	-1.37251000E-01	 3.94278000E-03
		 3.73539000E-03	-1.27064000E-01	 9.13400000E-03
		-3.58200000E-03	-1.40755000E-01	-1.15356000E-02
		-3.57299000E-03	-1.37022000E-01	-1.14023000E-02
		-3.56879000E-03	-1.30478000E-01	-1.13897000E-02
		-1.72906000E-03	-1.40810000E-01	-6.40694000E-03
		-3.57705000E-03	-1.38892000E-01	-1.14766000E-02
		-3.56825000E-03	-1.26815000E-01	-1.12723000E-02
		-1.72516000E-03	-1.37088000E-01	-6.29191000E-03
		 9.80568000E-05	-1.33445000E-01	-1.09922000E-03
		 3.78304000E-03	-1.33579000E-01	 9.10421000E-03
		 9.84212000E-05	-1.35298000E-01	-1.13784000E-03
		 3.77325000E-03	-1.35452000E-01	 9.09169000E-03
		 9.93853000E-05	-1.23278000E-01	-1.00252000E-03
		 1.92894000E-03	-1.33513000E-01	 3.99026000E-03
		 3.77698000E-03	-1.23392000E-01	 9.17717000E-03
		-3.56245000E-03	-1.33298000E-01	-1.12642000E-02
		-3.56816000E-03	-1.35154000E-01	-1.13299000E-02
		-3.57000000E-03	-1.23145000E-01	-1.11496000E-02
		-1.72468000E-03	-1.33366000E-01	-6.17568000E-03
		 0.00000000E+00	 0.00000000E+00	 0.00000000E+00
		 0.00000000E+00	 0.00000000E+00	 0.00000000E+00
		 1.70376000E-05	-1.43719000E-02	-1.42899000E-04
		-2.83999000E-03	-1.53090000E-02	 1.35986000E-02
		 0.00000000E+00	 0.00000000E+00	 0.00000000E+00
		 0.00000000E+00	 0.00000000E+00	 0.00000000E+00
		 1.51781000E-05	-1.63422000E-02	-1.95569000E-04
		-1.13462000E-03	-1.73638000E-02	 1.37233000E-02
		 0.00000000E+00	 0.00000000E+00	 0.00000000E+00
		 2.42118000E-05	-3.01326000E-03	-2.74273000E-05
		-1.40812000E-03	-1.45308000E-02	 6.59083000E-03
		-2.69642000E-03	-4.25117000E-03	 7.09424000E-03
		 0.00000000E+00	 0.00000000E+00	 0.00000000E+00
		 0.00000000E+00	 0.00000000E+00	 0.00000000E+00
		 2.03064000E-05	-1.56501000E-02	-1.77167000E-04
		-1.97271000E-03	-1.66338000E-02	 1.35842000E-02
		 0.00000000E+00	 0.00000000E+00	 0.00000000E+00
		 7.73694000E-06	-4.56171000E-03	-5.65755000E-05
		-5.60019000E-04	-1.65338000E-02	 6.54344000E-03
		-6.27320000E-04	-5.80849000E-03	 6.88857000E-03
		 0.00000000E+00	 0.00000000E+00	 0.00000000E+00
		 2.81738000E-03	-1.48826000E-02	-1.39455000E-02
		 0.00000000E+00	 0.00000000E+00	 0.00000000E+00
		 1.15325000E-03	-1.68967000E-02	-1.41857000E-02
		 0.00000000E+00	 0.00000000E+00	 0.00000000E+00
		 2.70345000E-03	-4.10426000E-03	-7.17553000E-03
		 1.42436000E-03	-1.43221000E-02	-6.89545000E-03
		 0.00000000E+00	 0.00000000E+00	 0.00000000E+00
		 1.97790000E-03	-1.61768000E-02	-1.40027000E-02
		 0.00000000E+00	 0.00000000E+00	 0.00000000E+00
		 6.28998000E-04	-5.64991000E-03	-7.01722000E-03
		 5.84216000E-04	-1.62990000E-02	-6.95798000E-03
		 0.00000000E+00	 0.00000000E+00	 0.00000000E+00
		 0.00000000E+00	 0.00000000E+00	 0.00000000E+00
		 4.93897000E-06	-1.66572000E-02	-1.86268000E-04
		 5.67793000E-04	-1.76009000E-02	 1.35544000E-02
		 0.00000000E+00	 0.00000000E+00	 0.00000000E+00
		 0.00000000E+00	 0.00000000E+00	 0.00000000E+00
		 9.04716000E-06	-1.67917000E-02	-2.00324000E-04
		-2.95765000E-04	-1.77769000E-02	 1.37339000E-02
		 0.00000000E+00	 0.00000000E+00	 0.00000000E+00
		-1.70962000E-05	-4.26890000E-03	-4.66324000E-05
		 2.84380000E-04	-1.68185000E-02	 6.37004000E-03
		 1.46791000E-03	-5.48141000E-03	 7.07760000E-03
		 0.00000000E+00	 0.00000000E+00	 0.00000000E+00
		-5.24876000E-04	-1.71539000E-02	-1.39873000E-02
		 0.00000000E+00	 0.00000000E+00	 0.00000000E+00
		 3.22428000E-04	-1.73121000E-02	-1.42042000E-02
		 0.00000000E+00	 0.00000000E+00	 0.00000000E+00
		-1.48971000E-03	-5.31410000E-03	-7.18857000E-03
		-2.62462000E-04	-1.66017000E-02	-6.75920000E-03
		 4.69364000E-05	-5.38688000E-02	-8.95168000E-04
		-2.84996000E-03	-5.48957000E-02	 2.20442000E-02
		 6.36228000E-05	-5.62745000E-02	-9.60247000E-04
		-1.84081000E-03	-5.73031000E-02	 2.20514000E-02
		 2.89875000E-05	-3.17686000E-02	-4.26619000E-04
		-1.40403000E-03	-5.42785000E-02	 1.04320000E-02
		-2.92187000E-03	-3.28641000E-02	 1.85462000E-02
		 5.39586000E-05	-5.51748000E-02	-9.36877000E-04
		-2.34956000E-03	-5.61998000E-02	 2.20466000E-02
		 2.89742000E-05	-3.40177000E-02	-4.92766000E-04
		-8.83022000E-04	-5.66881000E-02	 1.04061000E-02
		-1.52504000E-03	-3.51233000E-02	 1.85688000E-02
		 2.94527000E-03	-5.37841000E-02	-2.38917000E-02
		 1.96206000E-03	-5.61945000E-02	-2.40283000E-02
		 2.94782000E-03	-3.20965000E-02	-1.94763000E-02
		 1.49687000E-03	-5.37357000E-02	-1.22362000E-02
		 2.45883000E-03	-5.50947000E-02	-2.39732000E-02
		 1.58005000E-03	-3.43356000E-02	-1.96334000E-02
		 1.01301000E-03	-5.61491000E-02	-1.23362000E-02
		 7.80531000E-05	-5.76748000E-02	-9.68750000E-04
		-8.12557000E-04	-5.86867000E-02	 2.19651000E-02
		 7.07521000E-05	-5.70765000E-02	-9.69099000E-04
		-1.32225000E-03	-5.81306000E-02	 2.20864000E-02
		 2.59063000E-05	-3.48760000E-02	-4.93711000E-04
		-3.71224000E-04	-5.80694000E-02	 1.02804000E-02
		-1.40609000E-04	-3.59805000E-02	 1.84753000E-02
		 9.89489000E-04	-5.75943000E-02	-2.39610000E-02
		 1.47100000E-03	-5.69940000E-02	-2.40840000E-02
		 2.32135000E-04	-3.52210000E-02	-1.95422000E-02
		 5.32344000E-04	-5.75460000E-02	-1.22273000E-02
		 2.21798000E-04	-1.06089000E-01	-2.22795000E-03
		-2.88244000E-03	-1.07049000E-01	 2.52480000E-02
		 2.39819000E-04	-1.08939000E-01	-2.24972000E-03
		-2.39568000E-03	-1.10008000E-01	 2.52638000E-02
		 1.15975000E-04	-7.90033000E-02	-1.50684000E-03
		-1.32796000E-03	-1.06509000E-01	 1.14837000E-02
		-2.81224000E-03	-8.00422000E-02	 2.41181000E-02
		 2.31135000E-04	-1.07577000E-01	-2.23802000E-03
		-2.64143000E-03	-1.08599000E-01	 2.52027000E-02
		 1.31657000E-04	-8.15980000E-02	-1.55439000E-03
		-1.10135000E-03	-1.09416000E-01	 1.14192000E-02
		-2.11175000E-03	-8.26364000E-02	 2.41355000E-02
		 3.28129000E-03	-1.05552000E-01	-2.97164000E-02
		 2.87364000E-03	-1.08402000E-01	-2.98097000E-02
		 3.03372000E-03	-7.86925000E-02	-2.71747000E-02
		 1.75812000E-03	-1.05765000E-01	-1.59354000E-02
		 3.07301000E-03	-1.07029000E-01	-2.97198000E-02
		 2.37891000E-03	-8.12618000E-02	-2.72861000E-02
		 1.55875000E-03	-1.08622000E-01	-1.59451000E-02
		 2.60463000E-04	-1.11348000E-01	-2.25196000E-03
		-1.99860000E-03	-1.12537000E-01	 2.52169000E-02
		 2.49383000E-04	-1.10214000E-01	-2.25609000E-03
		-2.20149000E-03	-1.11217000E-01	 2.53330000E-02
		 1.58991000E-04	-8.34910000E-02	-1.56473000E-03
		-8.36342000E-04	-1.11883000E-01	 1.12964000E-02
		-1.42800000E-03	-8.45597000E-02	 2.40595000E-02
		 2.47810000E-03	-1.10839000E-01	-2.97931000E-02
		 2.67708000E-03	-1.09666000E-01	-2.98931000E-02
		 1.71122000E-03	-8.31618000E-02	-2.72323000E-02
		 1.35944000E-03	-1.11058000E-01	-1.58495000E-02
		 6.30258000E-04	-1.63510000E-01	-3.89495000E-03
		-3.04334000E-03	-1.64372000E-01	 2.55728000E-02
		 6.42492000E-04	-1.67150000E-01	-3.84932000E-03
		-2.98242000E-03	-1.68479000E-01	 2.56365000E-02
		 3.61374000E-04	-1.34331000E-01	-3.02625000E-03
		-1.20552000E-03	-1.63917000E-01	 1.08331000E-02
		-3.01954000E-03	-1.35339000E-01	 2.56336000E-02
		 6.36262000E-04	-1.65316000E-01	-3.87116000E-03
		-3.00216000E-03	-1.66356000E-01	 2.55775000E-02
		 3.73135000E-04	-1.37603000E-01	-3.05987000E-03
		-1.04613000E-03	-1.67774000E-01	 1.08524000E-02
		-2.77619000E-03	-1.38567000E-01	 2.57093000E-02
		 4.13354000E-03	-1.62736000E-01	-3.33692000E-02
		 3.96649000E-03	-1.66221000E-01	-3.33354000E-02
		 3.70694000E-03	-1.33663000E-01	-3.17043000E-02
		 2.38005000E-03	-1.63107000E-01	-1.86205000E-02
		 4.05053000E-03	-1.64497000E-01	-3.33261000E-02
		 3.44507000E-03	-1.36886000E-01	-3.17432000E-02
		 2.29296000E-03	-1.66643000E-01	-1.85530000E-02
		 5.21593000E-04	-1.70664000E-01	-3.80612000E-03
		-2.78072000E-03	-1.72353000E-01	 2.56688000E-02
		 5.83647000E-04	-1.68890000E-01	-3.83031000E-03
		-2.88313000E-03	-1.70923000E-01	 2.56930000E-02
		 3.67640000E-04	-1.40605000E-01	-3.10963000E-03
		-1.24647000E-03	-1.71451000E-01	 1.08446000E-02
		-2.35882000E-03	-1.41463000E-01	 2.56972000E-02
		 3.82108000E-03	-1.69568000E-01	-3.32713000E-02