# vtk DataFile Version 3.0

ASCII
DATASET UNSTRUCTURED_GRID

POINTS 522 double
	 1.00000000E+00	 1.00000000E+00	-5.96046000E-08
	 1.00000000E+00	 5.00000000E-01	-5.96046000E-08
	 1.00000000E+00	 5.00000000E-01	 1.00000000E+00
	 1.00000000E+00	 1.00000000E+00	 1.00000000E+00
	 5.00000000E-01	 1.00000000E+00	-5.96046000E-08
	 5.00000000E-01	 5.00000000E-01	-5.96046000E-08
	 5.00000000E-01	 5.00000000E-01	 1.00000000E+00
	 5.00000000E-01	 1.00000000E+00	 1.00000000E+00
	 1.00000000E+00	 7.50000000E-01	-5.96046000E-08
	 1.00000000E+00	 5.00000000E-01	 5.00000000E-01
	 1.00000000E+00	 7.50000000E-01	 1.00000000E+00
	 1.00000000E+00	 1.00000000E+00	 5.00000000E-01
	 7.50000000E-01	 1.00000000E+00	-5.96046000E-08
	 7.50000000E-01	 5.00000000E-01	-5.96046000E-08
	 7.50000000E-01	 5.00000000E-01	 1.00000000E+00
	 7.50000000E-01	 1.00000000E+00	 1.00000000E+00
	 5.00000000E-01	 7.50000000E-01	-5.96046000E-08
	 5.00000000E-01	 5.00000000E-01	 5.00000000E-01
	 5.00000000E-01	 7.50000000E-01	 1.00000000E+00
	 5.00000000E-01	 1.00000000E+00	 5.00000000E-01
	 1.00000000E+00	-1.49012000E-08	-5.96046000E-08
	 1.00000000E+00	-1.49012000E-08	 1.00000000E+00
	 5.00000000E-01	-1.49012000E-08	-5.96046000E-08
	 5.00000000E-01	-1.49012000E-08	 1.00000000E+00
	 1.00000000E+00	 2.50000000E-01	-5.96046000E-08
	 1.00000000E+00	-1.49012000E-08	 5.00000000E-01
	 1.00000000E+00	 2.50000000E-01	 1.00000000E+00
	 7.50000000E-01	-1.49012000E-08	-5.96046000E-08
	 7.50000000E-01	-1.49012000E-08	 1.00000000E+00
	 5.00000000E-01	 2.50000000E-01	-5.96046000E-08
	 5.00000000E-01	-1.49012000E-08	 5.00000000E-01
	 5.00000000E-01	 2.50000000E-01	 1.00000000E+00
	-7.45058000E-09	 1.00000000E+00	-5.96046000E-08
	-7.45058000E-09	 5.00000000E-01	-5.96046000E-08
	-7.45058000E-09	 5.00000000E-01	 1.00000000E+00
	-7.45058000E-09	 1.00000000E+00	 1.00000000E+00
	 2.50000000E-01	 1.00000000E+00	-5.96046000E-08
	 2.50000000E-01	 5.00000000E-01	-5.96046000E-08
	 2.50000000E-01	 5.00000000E-01	 1.00000000E+00
	 2.50000000E-01	 1.00000000E+00	 1.00000000E+00
	-7.45058000E-09	 7.50000000E-01	-5.96046000E-08
	-7.45058000E-09	 5.00000000E-01	 5.00000000E-01
	-7.45058000E-09	 7.50000000E-01	 1.00000000E+00
	-7.45058000E-09	 1.00000000E+00	 5.00000000E-01
	-7.45058000E-09	-1.49012000E-08	-5.96046000E-08
	-7.45058000E-09	-1.49012000E-08	 1.00000000E+00
	 2.50000000E-01	-1.49012000E-08	-5.96046000E-08
	 2.50000000E-01	-1.49012000E-08	 1.00000000E+00
	-7.45058000E-09	 2.50000000E-01	-5.96046000E-08
	-7.45058000E-09	-1.49012000E-08	 5.00000000E-01
	-7.45058000E-09	 2.50000000E-01	 1.00000000E+00
	 1.00000000E+00	 5.00000000E-01	 2.00000000E+00
	 1.00000000E+00	 1.00000000E+00	 2.00000000E+00
	 5.00000000E-01	 5.00000000E-01	 2.00000000E+00
	 5.00000000E-01	 1.00000000E+00	 2.00000000E+00
	 1.00000000E+00	 5.00000000E-01	 1.50000000E+00
	 1.00000000E+00	 7.50000000E-01	 2.00000000E+00
	 1.00000000E+00	 1.00000000E+00	 1.50000000E+00
	 7.50000000E-01	 5.00000000E-01	 2.00000000E+00
	 7.50000000E-01	 1.00000000E+00	 2.00000000E+00
	 5.00000000E-01	 5.00000000E-01	 1.50000000E+00
	 5.00000000E-01	 7.50000000E-01	 2.00000000E+00
	 5.00000000E-01	 1.00000000E+00	 1.50000000E+00
	 1.00000000E+00	-1.49012000E-08	 2.00000000E+00
	 5.00000000E-01	-1.49012000E-08	 2.00000000E+00
	 1.00000000E+00	-1.49012000E-08	 1.50000000E+00
	 1.00000000E+00	 2.50000000E-01	 2.00000000E+00
	 7.50000000E-01	-1.49012000E-08	 2.00000000E+00
	 5.00000000E-01	-1.49012000E-08	 1.50000000E+00
	 5.00000000E-01	 2.50000000E-01	 2.00000000E+00
	-7.45058000E-09	 5.00000000E-01	 2.00000000E+00
	-7.45058000E-09	 1.00000000E+00	 2.00000000E+00
	 2.50000000E-01	 5.00000000E-01	 2.00000000E+00
	 2.50000000E-01	 1.00000000E+00	 2.00000000E+00
	-7.45058000E-09	 5.00000000E-01	 1.50000000E+00
	-7.45058000E-09	 7.50000000E-01	 2.00000000E+00
	-7.45058000E-09	 1.00000000E+00	 1.50000000E+00
	-7.45058000E-09	-1.49012000E-08	 2.00000000E+00
	 2.50000000E-01	-1.49012000E-08	 2.00000000E+00
	-7.45058000E-09	-1.49012000E-08	 1.50000000E+00
	-7.45058000E-09	 2.50000000E-01	 2.00000000E+00
	 1.00000000E+00	 5.00000000E-01	 3.00000000E+00
	 1.00000000E+00	 1.00000000E+00	 3.00000000E+00
	 5.00000000E-01	 5.00000000E-01	 3.00000000E+00
	 5.00000000E-01	 1.00000000E+00	 3.00000000E+00
	 1.00000000E+00	 5.00000000E-01	 2.50000000E+00
	 1.00000000E+00	 7.50000000E-01	 3.00000000E+00
	 1.00000000E+00	 1.00000000E+00	 2.50000000E+00
	 7.50000000E-01	 5.00000000E-01	 3.00000000E+00
	 7.50000000E-01	 1.00000000E+00	 3.00000000E+00
	 5.00000000E-01	 5.00000000E-01	 2.50000000E+00
	 5.00000000E-01	 7.50000000E-01	 3.00000000E+00
	 5.00000000E-01	 1.00000000E+00	 2.50000000E+00
	 1.00000000E+00	-1.49012000E-08	 3.00000000E+00
	 5.00000000E-01	-1.49012000E-08	 3.00000000E+00
	 1.00000000E+00	-1.49012000E-08	 2.50000000E+00
	 1.00000000E+00	 2.50000000E-01	 3.00000000E+00
	 7.50000000E-01	-1.49012000E-08	 3.00000000E+00
	 5.00000000E-01	-1.49012000E-08	 2.50000000E+00
	 5.00000000E-01	 2.50000000E-01	 3.00000000E+00
	-7.45058000E-09	 5.00000000E-01	 3.00000000E+00
	-7.45058000E-09	 1.00000000E+00	 3.00000000E+00
	 2.50000000E-01	 5.00000000E-01	 3.00000000E+00
	 2.50000000E-01	 1.00000000E+00	 3.00000000E+00
	-7.45058000E-09	 5.00000000E-01	 2.50000000E+00
	-7.45058000E-09	 7.50000000E-01	 3.00000000E+00
	-7.45058000E-09	 1.00000000E+00	 2.50000000E+00
	-7.45058000E-09	-1.49012000E-08	 3.00000000E+00
	 2.50000000E-01	-1.49012000E-08	 3.00000000E+00
	-7.45058000E-09	-1.49012000E-08	 2.50000000E+00
	-7.45058000E-09	 2.50000000E-01	 3.00000000E+00
	 1.00000000E+00	 5.00000000E-01	 4.00000000E+00
	 1.00000000E+00	 1.00000000E+00	 4.00000000E+00
	 5.00000000E-01	 5.00000000E-01	 4.00000000E+00
	 5.00000000E-01	 1.00000000E+00	 4.00000000E+00
	 1.00000000E+00	 5.00000000E-01	 3.50000000E+00
	 1.00000000E+00	 7.50000000E-01	 4.00000000E+00
	 1.00000000E+00	 1.00000000E+00	 3.50000000E+00
	 7.50000000E-01	 5.00000000E-01	 4.00000000E+00
	 7.50000000E-01	 1.00000000E+00	 4.00000000E+00
	 5.00000000E-01	 5.00000000E-01	 3.50000000E+00
	 5.00000000E-01	 7.50000000E-01	 4.00000000E+00
	 5.00000000E-01	 1.00000000E+00	 3.50000000E+00
	 1.00000000E+00	-1.49012000E-08	 4.00000000E+00
	 5.00000000E-01	-1.49012000E-08	 4.00000000E+00
	 1.00000000E+00	-1.49012000E-08	 3.50000000E+00
	 1.00000000E+00	 2.50000000E-01	 4.00000000E+00
	 7.50000000E-01	-1.49012000E-08	 4.00000000E+00
	 5.00000000E-01	-1.49012000E-08	 3.50000000E+00
	 5.00000000E-01	 2.50000000E-01	 4.00000000E+00
	-7.45058000E-09	 5.00000000E-01	 4.00000000E+00
	-7.45058000E-09	 1.00000000E+00	 4.00000000E+00
	 2.50000000E-01	 5.00000000E-01	 4.00000000E+00
	 2.50000000E-01	 1.00000000E+00	 4.00000000E+00
	-7.45058000E-09	 5.00000000E-01	 3.50000000E+00
	-7.45058000E-09	 7.50000000E-01	 4.00000000E+00
	-7.45058000E-09	 1.00000000E+00	 3.50000000E+00
	-7.45058000E-09	-1.49012000E-08	 4.00000000E+00
	 2.50000000E-01	-1.49012000E-08	 4.00000000E+00
	-7.45058000E-09	-1.49012000E-08	 3.50000000E+00
	-7.45058000E-09	 2.50000000E-01	 4.00000000E+00
	 1.00000000E+00	 5.00000000E-01	 5.00000000E+00
	 1.00000000E+00	 1.00000000E+00	 5.00000000E+00
	 5.00000000E-01	 5.00000000E-01	 5.00000000E+00
	 5.00000000E-01	 1.00000000E+00	 5.00000000E+00
	 1.00000000E+00	 5.00000000E-01	 4.50000000E+00
	 1.00000000E+00	 7.50000000E-01	 5.00000000E+00
	 1.00000000E+00	 1.00000000E+00	 4.50000000E+00
	 7.50000000E-01	 5.00000000E-01	 5.00000000E+00
	 7.50000000E-01	 1.00000000E+00	 5.00000000E+00
	 5.00000000E-01	 5.00000000E-01	 4.50000000E+00
	 5.00000000E-01	 7.50000000E-01	 5.00000000E+00
	 5.00000000E-01	 1.00000000E+00	 4.50000000E+00
	 1.00000000E+00	-1.49012000E-08	 5.00000000E+00
	 5.00000000E-01	-1.49012000E-08	 5.00000000E+00
	 1.00000000E+00	-1.49012000E-08	 4.50000000E+00
	 1.00000000E+00	 2.50000000E-01	 5.00000000E+00
	 7.50000000E-01	-1.49012000E-08	 5.00000000E+00
	 5.00000000E-01	-1.49012000E-08	 4.50000000E+00
	 5.00000000E-01	 2.50000000E-01	 5.00000000E+00
	-7.45058000E-09	 5.00000000E-01	 5.00000000E+00
	-7.45058000E-09	 1.00000000E+00	 5.00000000E+00
	 2.50000000E-01	 5.00000000E-01	 5.00000000E+00
	 2.50000000E-01	 1.00000000E+00	 5.00000000E+00
	-7.45058000E-09	 5.00000000E-01	 4.50000000E+00
	-7.45058000E-09	 7.50000000E-01	 5.00000000E+00
	-7.45058000E-09	 1.00000000E+00	 4.50000000E+00
	-7.45058000E-09	-1.49012000E-08	 5.00000000E+00
	 2.50000000E-01	-1.49012000E-08	 5.00000000E+00
	-7.45058000E-09	-1.49012000E-08	 4.50000000E+00
	-7.45058000E-09	 2.50000000E-01	 5.00000000E+00
	 1.00000000E+00	 5.00000000E-01	 6.00000000E+00
	 1.00000000E+00	 1.00000000E+00	 6.00000000E+00
	 5.00000000E-01	 5.00000000E-01	 6.00000000E+00
	 5.00000000E-01	 1.00000000E+00	 6.00000000E+00
	 1.00000000E+00	 5.00000000E-01	 5.50000000E+00
	 1.00000000E+00	 7.50000000E-01	 6.00000000E+00
	 1.00000000E+00	 1.00000000E+00	 5.50000000E+00
	 7.50000000E-01	 5.00000000E-01	 6.00000000E+00
	 7.50000000E-01	 1.00000000E+00	 6.00000000E+00
	 5.00000000E-01	 5.00000000E-01	 5.50000000E+00
	 5.00000000E-01	 7.50000000E-01	 6.00000000E+00
	 5.00000000E-01	 1.00000000E+00	 5.50000000E+00
	 1.00000000E+00	-1.49012000E-08	 6.00000000E+00
	 5.00000000E-01	-1.49012000E-08	 6.00000000E+00
	 1.00000000E+00	-1.49012000E-08	 5.50000000E+00
	 1.00000000E+00	 2.50000000E-01	 6.00000000E+00
	 7.50000000E-01	-1.49012000E-08	 6.00000000E+00
	 5.00000000E-01	-1.49012000E-08	 5.50000000E+00
	 5.00000000E-01	 2.50000000E-01	 6.00000000E+00
	-7.45058000E-09	 5.00000000E-01	 6.00000000E+00
	-7.45058000E-09	 1.00000000E+00	 6.00000000E+00
	 2.50000000E-01	 5.00000000E-01	 6.00000000E+00
	 2.50000000E-01	 1.00000000E+00	 6.00000000E+00
	-7.45058000E-09	 5.00000000E-01	 5.50000000E+00
	-7.45058000E-09	 7.50000000E-01	 6.00000000E+00
	-7.45058000E-09	 1.00000000E+00	 5.50000000E+00
	-7.45058000E-09	-1.49012000E-08	 6.00000000E+00
	 2.50000000E-01	-1.49012000E-08	 6.00000000E+00
	-7.45058000E-09	-1.49012000E-08	 5.50000000E+00
	-7.45058000E-09	 2.50000000E-01	 6.00000000E+00
	 1.00000000E+00	 5.00000000E-01	 7.00000000E+00
[...]
POINT_DATA 522
FIELD U 1
	U 3 522 double
		 0.00000000E+00	 0.00000000E+00	 0.00000000E+00
		 0.00000000E+00	 0.00000000E+00	 0.00000000E+00
		 7.07025000E-06	-3.62319000E-03	 7.28871000E-06
		-1.02116000E-03	-3.81411000E-03	 3.52998000E-03
		 0.00000000E+00	 0.00000000E+00	 0.00000000E+00
		 0.00000000E+00	 0.00000000E+00	 0.00000000E+00
		 9.57668000E-06	-4.45152000E-03	 2.90602000E-06
		-6.23264000E-04	-4.65395000E-03	 3.57889000E-03
		 0.00000000E+00	 0.00000000E+00	 0.00000000E+00
		 5.17510000E-06	-7.79079000E-04	 3.10244000E-06
		-5.08693000E-04	-3.64348000E-03	 1.75224000E-03
		-8.16169000E-04	-1.09288000E-03	 1.87635000E-03
		 0.00000000E+00	 0.00000000E+00	 0.00000000E+00
		 0.00000000E+00	 0.00000000E+00	 0.00000000E+00
		 8.46890000E-06	-4.11001000E-03	 4.50357000E-06
		-8.18218000E-04	-4.30490000E-03	 3.50156000E-03
		 0.00000000E+00	 0.00000000E+00	 0.00000000E+00
		 5.89231000E-06	-1.31121000E-03	 3.13186000E-06
		-3.06931000E-04	-4.47291000E-03	 1.71792000E-03
		-2.92764000E-04	-1.61752000E-03	 1.83335000E-03
		 0.00000000E+00	 0.00000000E+00	 0.00000000E+00
		 1.03766000E-03	-3.77230000E-03	-3.51988000E-03
		 0.00000000E+00	 0.00000000E+00	 0.00000000E+00
		 6.48748000E-04	-4.61708000E-03	-3.57778000E-03
		 0.00000000E+00	 0.00000000E+00	 0.00000000E+00
		 8.27745000E-04	-1.07342000E-03	-1.86996000E-03
		 5.23650000E-04	-3.62127000E-03	-1.73940000E-03
		 0.00000000E+00	 0.00000000E+00	 0.00000000E+00
		 8.39706000E-04	-4.26576000E-03	-3.49672000E-03
		 0.00000000E+00	 0.00000000E+00	 0.00000000E+00
		 3.08908000E-04	-1.60129000E-03	-1.82730000E-03
		 3.28436000E-04	-4.45438000E-03	-1.71363000E-03
		 0.00000000E+00	 0.00000000E+00	 0.00000000E+00
		 0.00000000E+00	 0.00000000E+00	 0.00000000E+00
		 1.19477000E-05	-4.89306000E-03	 1.68231000E-06
		-2.18392000E-04	-5.06744000E-03	 3.52374000E-03
		 0.00000000E+00	 0.00000000E+00	 0.00000000E+00
		 0.00000000E+00	 0.00000000E+00	 0.00000000E+00
		 1.03935000E-05	-4.74250000E-03	 1.68744000E-06
		-4.23922000E-04	-4.93489000E-03	 3.62020000E-03
		 0.00000000E+00	 0.00000000E+00	 0.00000000E+00
		 7.68916000E-06	-1.38030000E-03	 6.30363000E-06
		-1.05935000E-04	-4.90230000E-03	 1.62399000E-03
		 2.56506000E-04	-1.66343000E-03	 1.87733000E-03
		 0.00000000E+00	 0.00000000E+00	 0.00000000E+00
		 2.51239000E-04	-5.04132000E-03	-3.52395000E-03
		 0.00000000E+00	 0.00000000E+00	 0.00000000E+00
		 4.52893000E-04	-4.90128000E-03	-3.62155000E-03
		 0.00000000E+00	 0.00000000E+00	 0.00000000E+00
		-2.35070000E-04	-1.65214000E-03	-1.86632000E-03
		 1.32602000E-04	-4.89169000E-03	-1.62124000E-03
		 9.66494000E-06	-1.31189000E-02	-1.24351000E-05
		-1.46006000E-03	-1.32362000E-02	 5.49127000E-03
		 1.55520000E-05	-1.45031000E-02	-2.81692000E-05
		-1.28329000E-03	-1.46224000E-02	 5.49834000E-03
		 7.88627000E-06	-7.85438000E-03	 2.40609000E-06
		-7.26342000E-04	-1.31632000E-02	 2.71955000E-03
		-1.26961000E-03	-8.03928000E-03	 4.71691000E-03
		 1.28404000E-05	-1.38259000E-02	-2.00677000E-05
		-1.37205000E-03	-1.39443000E-02	 5.46803000E-03
		 1.14077000E-05	-8.98209000E-03	-7.75611000E-06
		-6.34924000E-04	-1.45497000E-02	 2.68628000E-03
		-9.69990000E-04	-9.16754000E-03	 4.73679000E-03
		 1.48113000E-03	-1.31616000E-02	-5.51909000E-03
		 1.31704000E-03	-1.45510000E-02	-5.55755000E-03
		 1.28684000E-03	-7.98031000E-03	-4.71857000E-03
		 7.46083000E-04	-1.31266000E-02	-2.74508000E-03
		 1.39981000E-03	-1.38719000E-02	-5.51121000E-03
		 9.97250000E-04	-9.11197000E-03	-4.75778000E-03
		 6.66795000E-04	-1.45153000E-02	-2.74327000E-03
		 1.98133000E-05	-1.57187000E-02	-4.19005000E-05
		-1.11644000E-03	-1.58397000E-02	 5.46320000E-03
		 1.78987000E-05	-1.51270000E-02	-3.57682000E-05
		-1.19976000E-03	-1.52446000E-02	 5.53505000E-03
		 1.44590000E-05	-9.81920000E-03	-1.45508000E-05
		-5.45484000E-04	-1.57645000E-02	 2.60870000E-03
		-6.79524000E-04	-1.00064000E-02	 4.70134000E-03
		 1.15930000E-03	-1.57737000E-02	-5.54979000E-03
		 1.23871000E-03	-1.51743000E-02	-5.60907000E-03
		 7.14903000E-04	-9.95842000E-03	-4.73467000E-03
		 5.85983000E-04	-1.57343000E-02	-2.69323000E-03
		 1.16351000E-06	-2.48173000E-02	-4.99206000E-05
		-1.80103000E-03	-2.48890000E-02	 6.03174000E-03
		 6.75314000E-06	-2.66024000E-02	-7.98895000E-05
		-1.74569000E-03	-2.66708000E-02	 6.00300000E-03
		 9.16525000E-06	-1.88833000E-02	-2.98369000E-05
		-9.01296000E-04	-2.48488000E-02	 3.01356000E-03
		-1.63578000E-03	-1.89788000E-02	 5.85735000E-03
		 4.15296000E-06	-2.57153000E-02	-6.51358000E-05
		-1.77375000E-03	-2.57842000E-02	 5.99312000E-03
		 1.51971000E-05	-2.04899000E-02	-5.32811000E-05
		-8.69369000E-04	-2.66329000E-02	 2.96009000E-03
		-1.54287000E-03	-2.05811000E-02	 5.84779000E-03
		 1.80514000E-03	-2.47984000E-02	-6.13272000E-03
		 1.76140000E-03	-2.65827000E-02	-6.16362000E-03
		 1.65580000E-03	-1.88942000E-02	-5.91790000E-03
		 9.04292000E-04	-2.48026000E-02	-3.11391000E-03
		 1.78407000E-03	-2.56954000E-02	-6.12426000E-03
		 1.57570000E-03	-2.04996000E-02	-5.95502000E-03
		 8.83707000E-04	-2.65885000E-02	-3.12027000E-03
		 1.22157000E-05	-2.83259000E-02	-1.09186000E-04
		-1.69684000E-03	-2.84027000E-02	 5.97337000E-03
		 9.36919000E-06	-2.74712000E-02	-9.44244000E-05
		-1.72093000E-03	-2.75412000E-02	 6.01101000E-03
		 1.99619000E-05	-2.20030000E-02	-7.65137000E-05
		-8.39502000E-04	-2.83596000E-02	 2.90802000E-03
		-1.45939000E-03	-2.21031000E-02	 5.81201000E-03
		 1.72345000E-03	-2.83173000E-02	-6.19259000E-03
		 1.74197000E-03	-2.74537000E-02	-6.20063000E-03
		 1.50237000E-03	-2.20267000E-02	-5.96582000E-03
		 8.64556000E-04	-2.83175000E-02	-3.12691000E-03
		-1.79961000E-05	-3.69674000E-02	-1.01631000E-04
		-2.12298000E-03	-3.70845000E-02	 6.51898000E-03
		-9.94016000E-06	-3.90046000E-02	-1.36882000E-04
		-1.97674000E-03	-3.91213000E-02	 6.47372000E-03
		-8.75829000E-06	-3.07781000E-02	-7.38593000E-05
		-1.07027000E-03	-3.70093000E-02	 3.24913000E-03
		-1.97711000E-03	-3.08707000E-02	 6.21097000E-03
		-1.43607000E-05	-3.80027000E-02	-1.19708000E-04
		-2.04990000E-03	-3.81198000E-02	 6.47998000E-03
		-2.18327000E-06	-3.27099000E-02	-1.06741000E-04
		-9.93301000E-04	-3.90454000E-02	 3.19504000E-03
		-1.88784000E-03	-3.28005000E-02	 6.16802000E-03
		 2.09445000E-03	-3.69778000E-02	-6.72589000E-03
		 1.96086000E-03	-3.90236000E-02	-6.75160000E-03
		 1.96348000E-03	-3.07743000E-02	-6.36141000E-03
		 1.03630000E-03	-3.69543000E-02	-3.45380000E-03
		 2.02812000E-03	-3.80193000E-02	-6.72275000E-03
		 1.88623000E-03	-3.27087000E-02	-6.38455000E-03
		 9.74877000E-04	-3.89967000E-02	-3.46998000E-03
		-1.91017000E-06	-4.09065000E-02	-1.68762000E-04
		-1.83516000E-03	-4.10242000E-02	 6.45145000E-03
		-5.55440000E-06	-3.99733000E-02	-1.52994000E-04
		-1.90579000E-03	-4.00903000E-02	 6.46291000E-03
		 4.58170000E-06	-3.45542000E-02	-1.37278000E-04
		-9.18537000E-04	-4.09482000E-02	 3.16553000E-03
		-1.80437000E-03	-3.46509000E-02	 6.14744000E-03
		 1.83108000E-03	-4.09272000E-02	-6.79344000E-03
		 1.89577000E-03	-3.99936000E-02	-6.77310000E-03
		 1.81438000E-03	-3.45602000E-02	-6.42552000E-03
		 9.14838000E-04	-4.08994000E-02	-3.50458000E-03
		-3.69328000E-05	-5.11571000E-02	-1.86953000E-04
		-2.24445000E-03	-5.12984000E-02	 7.57919000E-03
		-2.71467000E-05	-5.32731000E-02	-2.23701000E-04
		-2.06231000E-03	-5.34206000E-02	 7.55149000E-03
		-2.85488000E-05	-4.36849000E-02	-1.37412000E-04
		-1.13863000E-03	-5.12033000E-02	 3.67828000E-03
		-2.21818000E-03	-4.38186000E-02	 7.03147000E-03
		-3.32282000E-05	-5.22366000E-02	-2.06380000E-04
		-2.15365000E-03	-5.23835000E-02	 7.56732000E-03
		-2.00085000E-05	-4.57863000E-02	-1.74911000E-04
		-1.04527000E-03	-5.33208000E-02	 3.64825000E-03
		-2.03512000E-03	-4.59208000E-02	 6.99054000E-03
		 2.18071000E-03	-5.11622000E-02	-7.95861000E-03
		 2.01211000E-03	-5.32950000E-02	-8.00439000E-03
		 2.17144000E-03	-4.36966000E-02	-7.31092000E-03
		 1.06753000E-03	-5.11355000E-02	-4.05328000E-03
		 2.09594000E-03	-5.22544000E-02	-7.98604000E-03
		 1.99967000E-03	-4.58105000E-02	-7.34518000E-03
		 9.92600000E-04	-5.32602000E-02	-4.09701000E-03
		-1.57472000E-05	-5.52321000E-02	-2.54535000E-04
		-1.88987000E-03	-5.53813000E-02	 7.51262000E-03
		-2.07734000E-05	-5.42756000E-02	-2.39546000E-04
		-1.97658000E-03	-5.44237000E-02	 7.53941000E-03
		-1.06539000E-05	-4.77204000E-02	-2.07459000E-04
		-9.53213000E-04	-5.52819000E-02	 3.60696000E-03
		-1.85389000E-03	-4.78523000E-02	 6.96155000E-03
		 1.85474000E-03	-5.52521000E-02	-8.02688000E-03
		 1.93429000E-03	-5.42973000E-02	-8.02373000E-03
		 1.83022000E-03	-4.77403000E-02	-7.38118000E-03
		 9.20988000E-04	-5.52193000E-02	-4.11735000E-03
		-2.69536000E-05	-6.82691000E-02	-3.25881000E-04
		-1.80228000E-03	-6.83418000E-02	 8.08202000E-03
		-1.74741000E-05	-7.00420000E-02	-3.49232000E-04
		-1.78172000E-03	-7.01164000E-02	 8.07543000E-03
		-3.65733000E-05	-5.94470000E-02	-2.52206000E-04
		-9.13774000E-04	-6.83035000E-02	 3.79075000E-03
		-2.11600000E-03	-5.95508000E-02	 7.95975000E-03
		-2.28352000E-05	-6.91543000E-02	-3.36207000E-04
		-1.79350000E-03	-6.92307000E-02	 8.13492000E-03
		-2.48404000E-05	-6.14694000E-02	-2.83123000E-04
		-9.00145000E-04	-7.00794000E-02	 3.82864000E-03
		-1.99877000E-03	-6.15829000E-02	 7.94817000E-03
		 1.75187000E-03	-6.81934000E-02	-8.72767000E-03
		 1.74869000E-03	-6.99719000E-02	-8.76836000E-03
		 2.04917000E-03	-5.94075000E-02	-8.46597000E-03
		 8.61309000E-04	-6.82340000E-02	-4.44019000E-03
		 1.75030000E-03	-6.90824000E-02	-8.80197000E-03
		 1.95176000E-03	-6.14457000E-02	-8.51625000E-03
		 8.65855000E-04	-7.00097000E-02	-4.52543000E-03
		-9.20368000E-06	-7.18016000E-02	-3.80636000E-04
		-1.77445000E-03	-7.18846000E-02	 8.02827000E-03
		-1.23358000E-05	-7.09234000E-02	-3.64666000E-04
		-1.77710000E-03	-7.09979000E-02	 8.01795000E-03
		-1.28800000E-05	-6.33982000E-02	-3.12690000E-04
		-8.89040000E-04	-7.18438000E-02	 3.82639000E-03
		-1.90208000E-03	-6.35212000E-02	 7.90105000E-03
		 1.75644000E-03	-7.17421000E-02	-8.78481000E-03
		 1.75380000E-03	-7.08554000E-02	-8.74252000E-03
		 1.87443000E-03	-6.33828000E-02	-8.52820000E-03
		 8.70444000E-04	-7.17740000E-02	-4.58579000E-03
		-2.16557000E-05	-8.57807000E-02	-4.59420000E-04
		-9.66711000E-04	-8.58351000E-02	 7.63052000E-03
		-2.68494000E-05	-8.67686000E-02	-4.82303000E-04
		-1.03536000E-03	-8.68118000E-02	 7.60170000E-03
		-1.80505000E-05	-7.71644000E-02	-3.96322000E-04
		-4.96223000E-04	-8.58182000E-02	 3.53825000E-03
		-1.38038000E-03	-7.72240000E-02	 7.90442000E-03
		-2.29425000E-05	-8.62663000E-02	-4.71400000E-04
		-9.98853000E-04	-8.63135000E-02	 7.67353000E-03
		-1.74828000E-05	-7.85576000E-02	-4.17096000E-04
		-5.29942000E-04	-8.68009000E-02	 3.57011000E-03
		-1.42666000E-03	-7.86143000E-02	 7.89027000E-03
		 9.29821000E-04	-8.56833000E-02	-8.54869000E-03
		 9.87122000E-04	-8.66661000E-02	-8.56568000E-03
		 1.34618000E-03	-7.70734000E-02	-8.68759000E-03
		 4.54767000E-04	-8.57397000E-02	-4.45861000E-03
		 9.60276000E-04	-8.61639000E-02	-8.61426000E-03
		 1.39479000E-03	-7.84664000E-02	-8.71564000E-03
		 4.78474000E-04	-8.67256000E-02	-4.53519000E-03
		-2.91688000E-05	-8.78066000E-02	-5.01975000E-04
		-1.09271000E-03	-8.78470000E-02	 7.58196000E-03
		-2.99891000E-05	-8.72801000E-02	-4.91081000E-04
		-1.06546000E-03	-8.73209000E-02	 7.52987000E-03
		-1.65137000E-05	-7.99903000E-02	-4.48514000E-04
		-5.60509000E-04	-8.78378000E-02	 3.61122000E-03
		-1.47994000E-03	-8.00534000E-02	 7.85115000E-03
		 1.03669000E-03	-8.77035000E-02	-8.58529000E-03
		 1.00884000E-03	-8.71786000E-02	-8.51114000E-03
		 1.45004000E-03	-7.99100000E-02	-8.74038000E-03
		 5.03185000E-04	-8.77617000E-02	-4.61628000E-03
		-5.51368000E-05	-1.02004000E-01	-5.72316000E-04
		-6.12240000E-04	-1.02072000E-01	 7.33883000E-03
		-3.08770000E-05	-1.02575000E-01	-5.99225000E-04
		-6.12885000E-04	-1.02611000E-01	 7.29608000E-03
		-3.41072000E-05	-9.40107000E-02	-5.15590000E-04
		-3.41010000E-04	-1.02038000E-01	 3.38993000E-03
		-6.87293000E-04	-9.40853000E-02	 7.44001000E-03
		-4.68576000E-05	-1.02294000E-01	-5.89236000E-04
		-6.13602000E-04	-1.02339000E-01	 7.31963000E-03
		-3.20819000E-05	-9.46979000E-02	-5.41857000E-04
		-3.23502000E-04	-1.02590000E-01	 3.35961000E-03
		-7.27582000E-04	-9.47485000E-02	 7.39935000E-03
		 5.32163000E-04	-1.01955000E-01	-8.51784000E-03
		 5.59612000E-04	-1.02526000E-01	-8.52553000E-03
		 6.39945000E-04	-9.39357000E-02	-8.49139000E-03
		 2.38365000E-04	-1.01979000E-01	-4.54509000E-03
		 5.42849000E-04	-1.02245000E-01	-8.53052000E-03
		 6.70578000E-04	-9.46208000E-02	-8.50212000E-03
		 2.65468000E-04	-1.02551000E-01	-4.56626000E-03
		-4.05608000E-06	-1.03156000E-01	-5.90141000E-04
		-5.81069000E-04	-1.03181000E-01	 7.30312000E-03
		-1.45449000E-05	-1.02863000E-01	-5.99247000E-04
		-5.95519000E-04	-1.02895000E-01	 7.28391000E-03
		-2.73312000E-05	-9.54100000E-02	-5.41129000E-04
		-2.93389000E-04	-1.03166000E-01	 3.37623000E-03
		-7.46343000E-04	-9.54537000E-02	 7.40007000E-03
		 5.59162000E-04	-1.03076000E-01	-8.50868000E-03
		 5.60969000E-04	-1.02804000E-01	-8.50945000E-03
		 6.84420000E-04	-9.53171000E-02	-8.49965000E-03
		 2.83153000E-04	-1.03116000E-01	-4.56310000E-03
		 0.00000000E+00	 0.00000000E+00	 0.00000000E+00
		 0.00000000E+00	 0.00000000E+00	 0.00000000E+00
		-1.89802000E-05	-6.35835000E-03	 5.56456000E-06
		-1.35899000E-03	-6.76574000E-03	 6.36376000E-03
		 0.00000000E+00	 0.00000000E+00	 0.00000000E+00
		 0.00000000E+00	 0.00000000E+00	 0.00000000E+00
		-1.75192000E-05	-7.28500000E-03	-1.00768000E-05
		-5.41148000E-04	-7.72234000E-03	 6.42704000E-03
		 0.00000000E+00	 0.00000000E+00	 0.00000000E+00
		-6.87948000E-06	-1.26496000E-03	 1.25745000E-05
		-6.90011000E-04	-6.41822000E-03	 3.14451000E-03
		-1.22999000E-03	-1.83142000E-03	 3.26154000E-03
		 0.00000000E+00	 0.00000000E+00	 0.00000000E+00
		 0.00000000E+00	 0.00000000E+00	 0.00000000E+00
		-1.78280000E-05	-6.95990000E-03	-5.18347000E-06
		-9.44498000E-04	-7.38179000E-03	 6.35089000E-03
		 0.00000000E+00	 0.00000000E+00	 0.00000000E+00
		-6.65298000E-06	-1.96006000E-03	 2.95064000E-06
		-2.79982000E-04	-7.35401000E-03	 3.12114000E-03
		-2.71081000E-04	-2.52287000E-03	 3.16564000E-03
		 0.00000000E+00	 0.00000000E+00	 0.00000000E+00
		 1.31693000E-03	-6.66021000E-03	-6.36975000E-03
		 0.00000000E+00	 0.00000000E+00	 0.00000000E+00
		 5.11695000E-04	-7.61446000E-03	-6.46438000E-03
		 0.00000000E+00	 0.00000000E+00	 0.00000000E+00
		 1.21558000E-03	-1.78216000E-03	-3.23878000E-03
		 6.50558000E-04	-6.36397000E-03	-3.13843000E-03
		 0.00000000E+00	 0.00000000E+00	 0.00000000E+00
		 9.09711000E-04	-7.27364000E-03	-6.37903000E-03
		 0.00000000E+00	 0.00000000E+00	 0.00000000E+00
		 2.63795000E-04	-2.47967000E-03	-3.16095000E-03
		 2.45637000E-04	-7.29950000E-03	-3.14759000E-03
		 0.00000000E+00	 0.00000000E+00	 0.00000000E+00
		 0.00000000E+00	 0.00000000E+00	 0.00000000E+00
		-1.38591000E-05	-7.41232000E-03	-1.47464000E-05
		 2.82192000E-04	-7.81510000E-03	 6.34781000E-03
		 0.00000000E+00	 0.00000000E+00	 0.00000000E+00
		 0.00000000E+00	 0.00000000E+00	 0.00000000E+00
		-1.62400000E-05	-7.48774000E-03	-1.31440000E-05
		-1.34659000E-04	-7.90338000E-03	 6.43661000E-03
		 0.00000000E+00	 0.00000000E+00	 0.00000000E+00
		-5.95785000E-06	-1.79953000E-03	 1.51477000E-06
		 1.34723000E-04	-7.46810000E-03	 3.03407000E-03
		 7.04954000E-04	-2.34341000E-03	 3.25165000E-03
		 0.00000000E+00	 0.00000000E+00	 0.00000000E+00
		-3.00194000E-04	-7.71395000E-03	-6.39022000E-03
		 0.00000000E+00	 0.00000000E+00	 0.00000000E+00
		 1.09600000E-04	-7.80142000E-03	-6.47759000E-03
		 0.00000000E+00	 0.00000000E+00	 0.00000000E+00
		-7.08210000E-04	-2.30588000E-03	-3.25222000E-03
		-1.58971000E-04	-7.42046000E-03	-3.06832000E-03
		-1.19433000E-05	-2.46654000E-02	-1.68877000E-04
		-1.61235000E-03	-2.50430000E-02	 1.08516000E-02
		-1.00682000E-05	-2.59885000E-02	-1.68039000E-04
		-1.07130000E-03	-2.63735000E-02	 1.08885000E-02
		-2.37486000E-05	-1.43223000E-02	-5.27574000E-05
		-8.10723000E-04	-2.47949000E-02	 5.29536000E-03
		-1.50645000E-03	-1.47666000E-02	 8.89200000E-03
		-1.22460000E-05	-2.53861000E-02	-1.71887000E-04
		-1.34308000E-03	-2.57657000E-02	 1.08490000E-02
		-2.42127000E-05	-1.54582000E-02	-6.55761000E-05
		-5.33826000E-04	-2.61212000E-02	 5.29647000E-03
		-8.07946000E-04	-1.59034000E-02	 8.91700000E-03
		 1.58236000E-03	-2.47974000E-02	-1.12078000E-02
		 1.04082000E-03	-2.61215000E-02	-1.12405000E-02
		 1.45137000E-03	-1.45954000E-02	-9.02094000E-03
		 7.84823000E-04	-2.46739000E-02	-5.63765000E-03
		 1.31247000E-03	-2.55217000E-02	-1.12082000E-02
		 7.58884000E-04	-1.57266000E-02	-9.06883000E-03
		 5.15924000E-04	-2.59978000E-02	-5.63343000E-03
		-7.48955000E-06	-2.67792000E-02	-1.55504000E-04
		-4.99885000E-04	-2.71426000E-02	 1.08631000E-02
		-9.64851000E-06	-2.64398000E-02	-1.61085000E-04
		-7.84392000E-04	-2.68500000E-02	 1.09335000E-02
		-2.12185000E-05	-1.58940000E-02	-6.51342000E-05
		-2.62199000E-04	-2.68966000E-02	 5.23519000E-03
		-1.00050000E-04	-1.63334000E-02	 8.88219000E-03
		 5.05333000E-04	-2.68986000E-02	-1.11893000E-02
		 7.71122000E-04	-2.65716000E-02	-1.12734000E-02
		 7.21046000E-05	-1.61640000E-02	-9.02828000E-03
		 2.53390000E-04	-2.67793000E-02	-5.54594000E-03
		 1.19979000E-04	-5.02555000E-02	-5.56283000E-04
		-1.77508000E-03	-5.04442000E-02	 1.27906000E-02
		 1.18337000E-04	-5.20408000E-02	-4.90771000E-04
		-1.62478000E-03	-5.23510000E-02	 1.29052000E-02
		 3.50794000E-05	-3.68321000E-02	-3.39145000E-04
		-8.20968000E-04	-5.03270000E-02	 6.04371000E-03
		-1.69847000E-03	-3.71482000E-02	 1.21669000E-02
		 1.19358000E-04	-5.11707000E-02	-5.20101000E-04
		-1.70299000E-03	-5.14333000E-02	 1.28127000E-02
		 3.38760000E-05	-3.83757000E-02	-3.12737000E-04
		-7.76297000E-04	-5.21764000E-02	 6.08391000E-03
		-1.34207000E-03	-3.87117000E-02	 1.22420000E-02
		 1.96759000E-03	-5.01483000E-02	-1.38929000E-02
		 1.84943000E-03	-5.19389000E-02	-1.39111000E-02
		 1.75228000E-03	-3.68491000E-02	-1.28566000E-02
		 1.04609000E-03	-5.01854000E-02	-7.14633000E-03
		 1.90513000E-03	-5.10595000E-02	-1.38712000E-02
		 1.40342000E-03	-3.83792000E-02	-1.28792000E-02
		 9.86899000E-04	-5.19778000E-02	-7.08657000E-03
		 1.20387000E-04	-5.37172000E-02	-4.25658000E-04
		-1.56251000E-03	-5.41486000E-02	 1.29159000E-02
		 1.18413000E-04	-5.29097000E-02	-4.60908000E-04
		-1.59793000E-03	-5.31544000E-02	 1.30106000E-02
		 4.63057000E-05	-3.95727000E-02	-2.80200000E-04
		-6.90388000E-04	-5.39173000E-02	 6.02042000E-03
		-1.00089000E-03	-3.99334000E-02	 1.22272000E-02
		 1.74872000E-03	-5.36277000E-02	-1.38183000E-02
		 1.79830000E-03	-5.27950000E-02	-1.39584000E-02
		 1.04658000E-03	-3.95574000E-02	-1.28011000E-02
		 9.29757000E-04	-5.36707000E-02	-6.91693000E-03
		 4.74986000E-04	-7.74724000E-02	-1.02210000E-03
		-1.66793000E-03	-7.73203000E-02	 1.13258000E-02
		 4.69910000E-04	-7.98772000E-02	-8.59664000E-04
		-2.19802000E-03	-8.01835000E-02	 1.15229000E-02
		 2.35999000E-04	-6.41356000E-02	-7.94052000E-04
		-5.98286000E-04	-7.74487000E-02	 5.09211000E-03
		-1.77291000E-03	-6.42522000E-02	 1.24411000E-02
		 4.71909000E-04	-7.85879000E-02	-9.38578000E-04
		-1.92461000E-03	-7.86085000E-02	 1.14167000E-02
		 2.27878000E-04	-6.62589000E-02	-7.25901000E-04
		-7.40594000E-04	-8.00693000E-02	 5.25510000E-03
		-1.98732000E-03	-6.63293000E-02	 1.26443000E-02
		 2.44599000E-03	-7.71480000E-02	-1.33586000E-02
		 2.83581000E-03	-7.93841000E-02	-1.32278000E-02
		 2.21134000E-03	-6.39054000E-02	-1.40236000E-02
		 1.46253000E-03	-7.73717000E-02	-7.13307000E-03
		 2.64318000E-03	-7.82081000E-02	-1.32816000E-02
		 2.36555000E-03	-6.59761000E-02	-1.39885000E-02
		 1.64267000E-03	-7.96663000E-02	-6.97265000E-03
		 3.36569000E-04	-8.26990000E-02	-7.07144000E-04
		-2.58582000E-03	-8.33826000E-02	 1.16438000E-02
		 4.03942000E-04	-8.11973000E-02	-7.83379000E-04
		-2.39298000E-03	-8.22126000E-02	 1.16346000E-02
		 2.05547000E-04	-6.85426000E-02	-6.87937000E-04
		-1.23907000E-03	-8.30625000E-02	 5.34271000E-03
		-2.03171000E-03	-6.85082000E-02	 1.26849000E-02
		 3.25368000E-03	-8.20474000E-02	-1.30403000E-02