# vtk DataFile Version 3.0

ASCII
DATASET UNSTRUCTURED_GRID

POINTS 522 double
	 1.00000000E+00	 1.00000000E+00	-5.96046000E-08
	 1.00000000E+00	 5.00000000E-01	-5.96046000E-08
	 1.00000000E+00	 5.00000000E-01	 1.00000000E+00
	 1.00000000E+00	 1.00000000E+00	 1.00000000E+00
	 5.00000000E-01	 1.00000000E+00	-5.96046000E-08
	 5.00000000E-01	 5.00000000E-01	-5.96046000E-08
	 5.00000000E-01	 5.00000000E-01	 1.00000000E+00
	 5.00000000E-01	 1.00000000E+00	 1.00000000E+00
	 1.00000000E+00	 7.50000000E-01	-5.96046000E-08
	 1.00000000E+00	 5.00000000E-01	 5.00000000E-01
	 1.00000000E+00	 7.50000000E-01	 1.00000000E+00
	 1.00000000E+00	 1.00000000E+00	 5.00000000E-01
	 7.50000000E-01	 1.00000000E+00	-5.96046000E-08
	 7.50000000E-01	 5.00000000E-01	-5.96046000E-08
	 7.50000000E-01	 5.00000000E-01	 1.00000000E+00
	 7.50000000E-01	 1.00000000E+00	 1.00000000E+00
	 5.00000000E-01	 7.50000000E-01	-5.96046000E-08
	 5.00000000E-01	 5.00000000E-01	 5.00000000E-01
	 5.00000000E-01	 7.50000000E-01	 1.00000000E+00
	 5.00000000E-01	 1.00000000E+00	 5.00000000E-01
	 1.00000000E+00	-1.49012000E-08	-5.96046000E-08
	 1.00000000E+00	-1.49012000E-08	 1.00000000E+00
	 5.00000000E-01	-1.49012000E-08	-5.96046000E-08
	 5.00000000E-01	-1.49012000E-08	 1.00000000E+00
	 1.00000000E+00	 2.50000000E-01	-5.96046000E-08
	 1.00000000E+00	-1.49012000E-08	 5.00000000E-01
	 1.00000000E+00	 2.50000000E-01	 1.00000000E+00
	 7.50000000E-01	-1.49012000E-08	-5.96046000E-08
	 7.50000000E-01	-1.49012000E-08	 1.00000000E+00
	 5.00000000E-01	 2.50000000E-01	-5.96046000E-08
	 5.00000000E-01	-1.49012000E-08	 5.00000000E-01
	 5.00000000E-01	 2.50000000E-01	 1.00000000E+00
	-7.45058000E-09	 1.00000000E+00	-5.96046000E-08
	-7.45058000E-09	 5.00000000E-01	-5.96046000E-08
	-7.45058000E-09	 5.00000000E-01	 1.00000000E+00
	-7.45058000E-09	 1.00000000E+00	 1.00000000E+00
	 2.50000000E-01	 1.00000000E+00	-5.96046000E-08
	 2.50000000E-01	 5.00000000E-01	-5.96046000E-08
	 2.50000000E-01	 5.00000000E-01	 1.00000000E+00
	 2.50000000E-01	 1.00000000E+00	 1.00000000E+00
	-7.45058000E-09	 7.50000000E-01	-5.96046000E-08
	-7.45058000E-09	 5.00000000E-01	 5.00000000E-01
	-7.45058000E-09	 7.50000000E-01	 1.00000000E+00
	-7.45058000E-09	 1.00000000E+00	 5.00000000E-01
	-7.45058000E-09	-1.49012000E-08	-5.96046000E-08
	-7.45058000E-09	-1.49012000E-08	 1.00000000E+00
	 2.50000000E-01	-1.49012000E-08	-5.96046000E-08
	 2.50000000E-01	-1.49012000E-08	 1.00000000E+00
	-7.45058000E-09	 2.50000000E-01	-5.96046000E-08
	-7.45058000E-09	-1.49012000E-08	 5.00000000E-01
	-7.45058000E-09	 2.50000000E-01	 1.00000000E+00
	 1.00000000E+00	 5.00000000E-01	 2.00000000E+00
	 1.00000000E+00	 1.00000000E+00	 2.00000000E+00
	 5.00000000E-01	 5.00000000E-01	 2.00000000E+00
	 5.00000000E-01	 1.00000000E+00	 2.00000000E+00
	 1.00000000E+00	 5.00000000E-01	 1.50000000E+00
	 1.00000000E+00	 7.50000000E-01	 2.00000000E+00
	 1.00000000E+00	 1.00000000E+00	 1.50000000E+00
	 7.50000000E-01	 5.00000000E-01	 2.00000000E+00
	 7.50000000E-01	 1.00000000E+00	 2.00000000E+00
	 5.00000000E-01	 5.00000000E-01	 1.50000000E+00
	 5.00000000E-01	 7.50000000E-01	 2.00000000E+00
	 5.00000000E-01	 1.00000000E+00	 1.50000000E+00
	 1.00000000E+00	-1.49012000E-08	 2.00000000E+00
	 5.00000000E-01	-1.49012000E-08	 2.00000000E+00
	 1.00000000E+00	-1.49012000E-08	 1.50000000E+00
	 1.00000000E+00	 2.50000000E-01	 2.00000000E+00
	 7.50000000E-01	-1.49012000E-08	 2.00000000E+00
	 5.00000000E-01	-1.49012000E-08	 1.50000000E+00
	 5.00000000E-01	 2.50000000E-01	 2.00000000E+00
	-7.45058000E-09	 5.00000000E-01	 2.00000000E+00
	-7.45058000E-09	 1.00000000E+00	 2.00000000E+00
	 2.50000000E-01	 5.00000000E-01	 2.00000000E+00
	 2.50000000E-01	 1.00000000E+00	 2.00000000E+00
	-7.45058000E-09	 5.00000000E-01	 1.50000000E+00
	-7.45058000E-09	 7.50000000E-01	 2.00000000E+00
	-7.45058000E-09	 1.00000000E+00	 1.50000000E+00
	-7.45058000E-09	-1.49012000E-08	 2.00000000E+00
	 2.50000000E-01	-1.49012000E-08	 2.00000000E+00
	-7.45058000E-09	-1.49012000E-08	 1.50000000E+00
	-7.45058000E-09	 2.50000000E-01	 2.00000000E+00
	 1.00000000E+00	 5.00000000E-01	 3.00000000E+00
	 1.00000000E+00	 1.00000000E+00	 3.00000000E+00
	 5.00000000E-01	 5.00000000E-01	 3.00000000E+00
	 5.00000000E-01	 1.00000000E+00	 3.00000000E+00
	 1.00000000E+00	 5.00000000E-01	 2.50000000E+00
	 1.00000000E+00	 7.50000000E-01	 3.00000000E+00
	 1.00000000E+00	 1.00000000E+00	 2.50000000E+00
	 7.50000000E-01	 5.00000000E-01	 3.00000000E+00
	 7.50000000E-01	 1.00000000E+00	 3.00000000E+00
	 5.00000000E-01	 5.00000000E-01	 2.50000000E+00
	 5.00000000E-01	 7.50000000E-01	 3.00000000E+00
	 5.00000000E-01	 1.00000000E+00	 2.50000000E+00
	 1.00000000E+00	-1.49012000E-08	 3.00000000E+00
	 5.00000000E-01	-1.49012000E-08	 3.00000000E+00
	 1.00000000E+00	-1.49012000E-08	 2.50000000E+00
	 1.00000000E+00	 2.50000000E-01	 3.00000000E+00
	 7.50000000E-01	-1.49012000E-08	 3.00000000E+00
	 5.00000000E-01	-1.49012000E-08	 2.50000000E+00
	 5.00000000E-01	 2.50000000E-01	 3.00000000E+00
	-7.45058000E-09	 5.00000000E-01	 3.00000000E+00
	-7.45058000E-09	 1.00000000E+00	 3.00000000E+00
	 2.50000000E-01	 5.00000000E-01	 3.00000000E+00
	 2.50000000E-01	 1.00000000E+00	 3.00000000E+00
	-7.45058000E-09	 5.00000000E-01	 2.50000000E+00
	-7.45058000E-09	 7.50000000E-01	 3.00000000E+00
	-7.45058000E-09	 1.00000000E+00	 2.50000000E+00
	-7.45058000E-09	-1.49012000E-08	 3.00000000E+00
	 2.50000000E-01	-1.49012000E-08	 3.00000000E+00
	-7.45058000E-09	-1.49012000E-08	 2.50000000E+00
	-7.45058000E-09	 2.50000000E-01	 3.00000000E+00
	 1.00000000E+00	 5.00000000E-01	 4.00000000E+00
	 1.00000000E+00	 1.00000000E+00	 4.00000000E+00
	 5.00000000E-01	 5.00000000E-01	 4.00000000E+00
	 5.00000000E-01	 1.00000000E+00	 4.00000000E+00
	 1.00000000E+00	 5.00000000E-01	 3.50000000E+00
	 1.00000000E+00	 7.50000000E-01	 4.00000000E+00
	 1.00000000E+00	 1.00000000E+00	 3.50000000E+00
	 7.50000000E-01	 5.00000000E-01	 4.00000000E+00
	 7.50000000E-01	 1.00000000E+00	 4.00000000E+00
	 5.00000000E-01	 5.00000000E-01	 3.50000000E+00
	 5.00000000E-01	 7.50000000E-01	 4.00000000E+00
	 5.00000000E-01	 1.00000000E+00	 3.50000000E+00
	 1.00000000E+00	-1.49012000E-08	 4.00000000E+00
	 5.00000000E-01	-1.49012000E-08	 4.00000000E+00
	 1.00000000E+00	-1.49012000E-08	 3.50000000E+00
	 1.00000000E+00	 2.50000000E-01	 4.00000000E+00
	 7.50000000E-01	-1.49012000E-08	 4.00000000E+00
	 5.00000000E-01	-1.49012000E-08	 3.50000000E+00
	 5.00000000E-01	 2.50000000E-01	 4.00000000E+00
	-7.45058000E-09	 5.00000000E-01	 4.00000000E+00
	-7.45058000E-09	 1.00000000E+00	 4.00000000E+00
	 2.50000000E-01	 5.00000000E-01	 4.00000000E+00
	 2.50000000E-01	 1.00000000E+00	 4.00000000E+00
	-7.45058000E-09	 5.00000000E-01	 3.50000000E+00
	-7.45058000E-09	 7.50000000E-01	 4.00000000E+00
	-7.45058000E-09	 1.00000000E+00	 3.50000000E+00
	-7.45058000E-09	-1.49012000E-08	 4.00000000E+00
	 2.50000000E-01	-1.49012000E-08	 4.00000000E+00
	-7.45058000E-09	-1.49012000E-08	 3.50000000E+00
	-7.45058000E-09	 2.50000000E-01	 4.00000000E+00
	 1.00000000E+00	 5.00000000E-01	 5.00000000E+00
	 1.00000000E+00	 1.00000000E+00	 5.00000000E+00
	 5.00000000E-01	 5.00000000E-01	 5.00000000E+00
	 5.00000000E-01	 1.00000000E+00	 5.00000000E+00
	 1.00000000E+00	 5.00000000E-01	 4.50000000E+00
	 1.00000000E+00	 7.50000000E-01	 5.00000000E+00
	 1.00000000E+00	 1.00000000E+00	 4.50000000E+00
	 7.50000000E-01	 5.00000000E-01	 5.00000000E+00
	 7.50000000E-01	 1.00000000E+00	 5.00000000E+00
	 5.00000000E-01	 5.00000000E-01	 4.50000000E+00
	 5.00000000E-01	 7.50000000E-01	 5.00000000E+00
	 5.00000000E-01	 1.00000000E+00	 4.50000000E+00
	 1.00000000E+00	-1.49012000E-08	 5.00000000E+00
	 5.00000000E-01	-1.49012000E-08	 5.00000000E+00
	 1.00000000E+00	-1.49012000E-08	 4.50000000E+00
	 1.00000000E+00	 2.50000000E-01	 5.00000000E+00
	 7.50000000E-01	-1.49012000E-08	 5.00000000E+00
	 5.00000000E-01	-1.49012000E-08	 4.50000000E+00
	 5.00000000E-01	 2.50000000E-01	 5.00000000E+00
	-7.45058000E-09	 5.00000000E-01	 5.00000000E+00
	-7.45058000E-09	 1.00000000E+00	 5.00000000E+00
	 2.50000000E-01	 5.00000000E-01	 5.00000000E+00
	 2.50000000E-01	 1.00000000E+00	 5.00000000E+00
	-7.45058000E-09	 5.00000000E-01	 4.50000000E+00
	-7.45058000E-09	 7.50000000E-01	 5.00000000E+00
	-7.45058000E-09	 1.00000000E+00	 4.50000000E+00
	-7.45058000E-09	-1.49012000E-08	 5.00000000E+00
	 2.50000000E-01	-1.49012000E-08	 5.00000000E+00
	-7.45058000E-09	-1.49012000E-08	 4.50000000E+00
	-7.45058000E-09	 2.50000000E-01	 5.00000000E+00
	 1.00000000E+00	 5.00000000E-01	 6.00000000E+00
	 1.00000000E+00	 1.00000000E+00	 6.00000000E+00
	 5.00000000E-01	 5.00000000E-01	 6.00000000E+00
	 5.00000000E-01	 1.00000000E+00	 6.00000000E+00
	 1.00000000E+00	 5.00000000E-01	 5.50000000E+00
	 1.00000000E+00	 7.50000000E-01	 6.00000000E+00
	 1.00000000E+00	 1.00000000E+00	 5.50000000E+00
	 7.50000000E-01	 5.00000000E-01	 6.00000000E+00
	 7.50000000E-01	 1.00000000E+00	 6.00000000E+00
	 5.00000000E-01	 5.00000000E-01	 5.50000000E+00
	 5.00000000E-01	 7.50000000E-01	 6.00000000E+00
	 5.00000000E-01	 1.00000000E+00	 5.50000000E+00
	 1.00000000E+00	-1.49012000E-08	 6.00000000E+00
	 5.00000000E-01	-1.49012000E-08	 6.00000000E+00
	 1.00000000E+00	-1.49012000E-08	 5.50000000E+00
	 1.00000000E+00	 2.50000000E-01	 6.00000000E+00
	 7.50000000E-01	-1.49012000E-08	 6.00000000E+00
	 5.00000000E-01	-1.49012000E-08	 5.50000000E+00
	 5.00000000E-01	 2.50000000E-01	 6.00000000E+00
	-7.45058000E-09	 5.00000000E-01	 6.00000000E+00
	-7.45058000E-09	 1.00000000E+00	 6.00000000E+00
	 2.50000000E-01	 5.00000000E-01	 6.00000000E+00
	 2.50000000E-01	 1.00000000E+00	 6.00000000E+00
	-7.45058000E-09	 5.00000000E-01	 5.50000000E+00
	-7.45058000E-09	 7.50000000E-01	 6.00000000E+00
	-7.45058000E-09	 1.00000000E+00	 5.50000000E+00
	-7.45058000E-09	-1.49012000E-08	 6.00000000E+00
	 2.50000000E-01	-1.49012000E-08	 6.00000000E+00
	-7.45058000E-09	-1.49012000E-08	 5.50000000E+00
	-7.45058000E-09	 2.50000000E-01	 6.00000000E+00
	 1.00000000E+00	 5.00000000E-01	 7.00000000E+00
[...]
POINT_DATA 522
FIELD U 1
	U 3 522 double
		 0.00000000E+00	 0.00000000E+00	 0.00000000E+00
		 0.00000000E+00	 0.00000000E+00	 0.00000000E+00
		 1.27334000E-08	-8.25105000E-07	-3.58772000E-07
		-2.01087000E-05	-1.71620000E-07	 4.90133000E-06
		 0.00000000E+00	 0.00000000E+00	 0.00000000E+00
		 0.00000000E+00	 0.00000000E+00	 0.00000000E+00
		-4.17671000E-08	-2.19451000E-05	-4.16741000E-07
		-2.20420000E-05	-2.10113000E-05	 5.65925000E-06
		 0.00000000E+00	 0.00000000E+00	 0.00000000E+00
		 5.54101000E-08	 1.20461000E-06	-1.80517000E-07
		-1.00471000E-05	-5.19297000E-07	 2.88653000E-06
		-9.83166000E-06	 6.29240000E-07	 5.25743000E-06
		 0.00000000E+00	 0.00000000E+00	 0.00000000E+00
		 0.00000000E+00	 0.00000000E+00	 0.00000000E+00
		-1.28232000E-08	-1.13659000E-05	-3.90420000E-07
		-2.10329000E-05	-1.05135000E-05	 3.31985000E-06
		 0.00000000E+00	 0.00000000E+00	 0.00000000E+00
		-8.04021000E-09	-8.46732000E-06	-1.89982000E-07
		-1.09947000E-05	-2.14339000E-05	 1.22034000E-06
		-9.47490000E-06	-8.73005000E-06	 5.40114000E-06
		 0.00000000E+00	 0.00000000E+00	 0.00000000E+00
		 2.01450000E-05	-2.60873000E-07	-5.61153000E-06
		 0.00000000E+00	 0.00000000E+00	 0.00000000E+00
		 2.19706000E-05	-2.11236000E-05	-6.48051000E-06
		 0.00000000E+00	 0.00000000E+00	 0.00000000E+00
		 9.95172000E-06	 5.19524000E-07	-5.63418000E-06
		 1.00747000E-05	-5.61536000E-07	-3.59303000E-06
		 0.00000000E+00	 0.00000000E+00	 0.00000000E+00
		 2.10205000E-05	-1.06154000E-05	-4.09380000E-06
		 0.00000000E+00	 0.00000000E+00	 0.00000000E+00
		 9.46940000E-06	-8.85521000E-06	-5.80170000E-06
		 1.09133000E-05	-2.14968000E-05	-2.04060000E-06
		 0.00000000E+00	 0.00000000E+00	 0.00000000E+00
		 0.00000000E+00	 0.00000000E+00	 0.00000000E+00
		-1.00691000E-07	-4.48363000E-05	-4.51192000E-07
		-2.29038000E-05	-4.30864000E-05	 4.81898000E-06
		 0.00000000E+00	 0.00000000E+00	 0.00000000E+00
		 0.00000000E+00	 0.00000000E+00	 0.00000000E+00
		-6.92089000E-08	-3.32743000E-05	-4.35682000E-07
		-2.24637000E-05	-3.21537000E-05	 7.81564000E-06
		 0.00000000E+00	 0.00000000E+00	 0.00000000E+00
		-7.70153000E-08	-1.77384000E-05	-2.18513000E-07
		-1.16860000E-05	-4.39251000E-05	-1.74038000E-06
		-8.17796000E-06	-1.73486000E-05	 5.21504000E-06
		 0.00000000E+00	 0.00000000E+00	 0.00000000E+00
		 2.27103000E-05	-4.32113000E-05	-5.70127000E-06
		 0.00000000E+00	 0.00000000E+00	 0.00000000E+00
		 2.23285000E-05	-3.22707000E-05	-8.67212000E-06
		 0.00000000E+00	 0.00000000E+00	 0.00000000E+00
		 8.02865000E-06	-1.74880000E-05	-5.67799000E-06
		 1.14839000E-05	-4.39963000E-05	 8.52407000E-07
		-2.18608000E-07	 2.72588000E-05	-5.57455000E-07
		-5.63367000E-05	 3.24653000E-05	-3.50237000E-05
		-2.20921000E-07	-3.61596000E-05	-6.26482000E-07
		-6.99175000E-05	-2.99679000E-05	-3.35358000E-05
		-8.60730000E-08	 1.79401000E-06	-4.82142000E-07
		-2.83485000E-05	 2.83539000E-05	-1.71096000E-05
		-3.44786000E-05	 4.80488000E-06	-6.45194000E-06
		-2.17135000E-07	-3.03055000E-06	-6.00674000E-07
		-6.31086000E-05	 2.83822000E-06	-3.80556000E-05
		-1.12677000E-07	-3.57867000E-05	-5.67290000E-07
		-3.49799000E-05	-3.45290000E-05	-2.03516000E-05
		-4.07024000E-05	-3.24815000E-05	-5.32489000E-06
		 5.58561000E-05	 3.24118000E-05	 3.39841000E-05
		 6.94341000E-05	-2.99716000E-05	 3.23593000E-05
		 3.42983000E-05	 4.71519000E-06	 5.49665000E-06
		 2.78983000E-05	 2.83043000E-05	 1.59957000E-05
		 6.26249000E-05	 2.81415000E-06	 3.69366000E-05
		 4.04641000E-05	-3.25658000E-05	 4.21786000E-06
		 3.45264000E-05	-3.45160000E-05	 1.90959000E-05
		-2.16851000E-07	-1.12096000E-04	-6.64607000E-07
		-8.11005000E-05	-1.04564000E-04	-3.51519000E-05
		-2.26373000E-07	-7.25365000E-05	-6.36583000E-07
		-7.54335000E-05	-6.59859000E-05	-2.85970000E-05
		-1.42820000E-07	-7.93763000E-05	-6.26602000E-07
		-4.08997000E-05	-1.09775000E-04	-2.67201000E-05
		-4.58471000E-05	-7.53013000E-05	-6.57573000E-06
		 8.06670000E-05	-1.04530000E-04	 3.38851000E-05
		 7.49823000E-05	-6.59716000E-05	 2.74001000E-05
		 4.55688000E-05	-7.53873000E-05	 5.37526000E-06
		 4.04730000E-05	-1.09737000E-04	 2.53885000E-05
		-3.89002000E-07	 2.96401000E-04	-2.93097000E-07
		-1.56642000E-04	 3.06602000E-04	-1.78945000E-04
		-2.42507000E-07	 1.19992000E-04	-1.37582000E-07
		-1.90263000E-04	 1.34307000E-04	-1.78806000E-04
		-3.53670000E-07	 1.07229000E-04	-5.49045000E-07
		-7.92449000E-05	 2.97241000E-04	-7.94505000E-05
		-9.32545000E-05	 1.15919000E-04	-9.40950000E-05
		-3.30068000E-07	 2.11833000E-04	-2.62682000E-07
		-1.73472000E-04	 2.24966000E-04	-1.90648000E-04
		-3.24374000E-07	 1.65376000E-06	-5.20348000E-07
		-9.50340000E-05	 1.22935000E-04	-9.12732000E-05
		-1.16290000E-04	 1.22864000E-05	-9.20773000E-05
		 1.55873000E-04	 3.07045000E-04	 1.78397000E-04
		 1.89808000E-04	 1.34849000E-04	 1.78585000E-04
		 9.25288000E-05	 1.16103000E-04	 9.31370000E-05
		 7.84652000E-05	 2.97526000E-04	 7.89572000E-05
		 1.72861000E-04	 2.25441000E-04	 1.90118000E-04
		 1.15637000E-04	 1.25470000E-05	 9.11328000E-05
		 9.45653000E-05	 1.23136000E-04	 9.10835000E-05
		 1.29743000E-08	-8.36649000E-05	 2.31867000E-07
		-2.18368000E-04	-6.80748000E-05	-1.78336000E-04
		-1.20056000E-07	 2.22420000E-05	 2.20814000E-08
		-2.04125000E-04	 3.67767000E-05	-1.65155000E-04
		-2.19550000E-07	-1.24685000E-04	-4.03142000E-07
		-1.09274000E-04	-7.98197000E-05	-1.04091000E-04
		-1.35979000E-04	-1.12746000E-04	-9.40042000E-05
		 2.18274000E-04	-6.74000000E-05	 1.78896000E-04
		 2.03767000E-04	 3.73753000E-05	 1.65287000E-04
		 1.35471000E-04	-1.12404000E-04	 9.32234000E-05
		 1.09252000E-04	-7.95650000E-05	 1.04600000E-04
		 5.42226000E-09	 1.28836000E-03	 1.53007000E-06
		-4.80963000E-04	 1.27357000E-03	-3.30061000E-04
		 1.01209000E-06	 7.97023000E-04	 1.98384000E-06
		-4.84116000E-04	 7.93017000E-04	-3.42017000E-04
		-2.73082000E-07	 6.76749000E-04	 2.96882000E-07
		-2.43778000E-04	 1.27860000E-03	-1.08178000E-04
		-2.78064000E-04	 6.77246000E-04	-2.83460000E-04
		 5.40957000E-07	 1.04287000E-03	 1.91782000E-06
		-4.82441000E-04	 1.03693000E-03	-3.70775000E-04
		 2.78366000E-07	 3.79927000E-04	 6.42878000E-07
		-2.40996000E-04	 7.91955000E-04	-1.48122000E-04
		-3.06383000E-04	 3.87497000E-04	-2.86698000E-04
		 4.80922000E-04	 1.27546000E-03	 3.33874000E-04
		 4.86166000E-04	 7.94710000E-04	 3.46555000E-04
		 2.77423000E-04	 6.77966000E-04	 2.84081000E-04
		 2.43888000E-04	 1.27918000E-03	 1.11155000E-04
		 4.83413000E-04	 1.03891000E-03	 3.75495000E-04
		 3.06843000E-04	 3.88314000E-04	 2.88161000E-04
		 2.43064000E-04	 7.92986000E-04	 1.52036000E-04
		 1.66759000E-06	 3.18083000E-04	 2.51646000E-06
		-4.77100000E-04	 3.13779000E-04	-3.29560000E-04
		 1.30134000E-06	 5.58731000E-04	 2.12484000E-06
		-4.80049000E-04	 5.55288000E-04	-3.11350000E-04
		 7.06531000E-07	 6.34783000E-05	 1.22859000E-06
		-2.36236000E-04	 3.13745000E-04	-1.66767000E-04
		-3.27112000E-04	 7.14397000E-05	-2.82336000E-04
		 4.80937000E-04	 3.15150000E-04	 3.34758000E-04
		 4.83152000E-04	 5.56779000E-04	 3.15847000E-04
		 3.28606000E-04	 7.23333000E-05	 2.85196000E-04
		 2.39827000E-04	 3.14697000E-04	 1.71824000E-04
		-2.71754000E-06	 2.91482000E-03	 1.05423000E-05
		-1.33303000E-03	 2.79669000E-03	 2.91260000E-04
		-1.74384000E-08	 1.68964000E-03	 6.79714000E-06
		-1.11402000E-03	 1.57809000E-03	 2.58901000E-04
		-1.09436000E-07	 2.12993000E-03	 4.44658000E-06
		-6.69527000E-04	 2.88263000E-03	 2.96792000E-04
		-8.28149000E-04	 2.06113000E-03	-1.86592000E-04
		-1.21840000E-06	 2.27390000E-03	 8.61802000E-06
		-1.22246000E-03	 2.16115000E-03	 1.91760000E-04
		 1.30046000E-06	 1.33332000E-03	 3.92625000E-06
		-5.56775000E-04	 1.66199000E-03	 1.99663000E-04
		-7.47323000E-04	 1.27776000E-03	-2.11429000E-04
		 1.33016000E-03	 2.80756000E-03	-2.70123000E-04
		 1.11671000E-03	 1.58462000E-03	-2.44760000E-04
		 8.29076000E-04	 2.06666000E-03	 1.97245000E-04
		 6.64266000E-04	 2.88896000E-03	-2.75171000E-04
		 1.22315000E-03	 2.16947000E-03	-1.74644000E-04
		 7.51339000E-04	 1.28150000E-03	 2.20152000E-04
		 5.57454000E-04	 1.66436000E-03	-1.85264000E-04
		 1.77385000E-06	 6.83720000E-04	 3.93954000E-06
		-8.87555000E-04	 5.79342000E-04	 2.85775000E-04
		 1.20194000E-06	 1.16003000E-03	 5.11156000E-06
		-1.00102000E-03	 1.04954000E-03	 3.15159000E-04
		 2.27206000E-06	 6.31411000E-04	 3.58955000E-06
		-4.44900000E-04	 6.60310000E-04	 1.64211000E-04
		-6.52446000E-04	 5.79753000E-04	-1.88516000E-04
		 8.92099000E-04	 5.82424000E-04	-2.76927000E-04
		 1.00451000E-03	 1.05437000E-03	-3.04056000E-04
		 6.57781000E-04	 5.81460000E-04	 1.95421000E-04
		 4.48388000E-04	 6.60799000E-04	-1.55885000E-04
		-1.57389000E-05	 1.84729000E-03	 1.54285000E-05
		-2.54832000E-03	 1.64417000E-03	 2.65049000E-03
		-9.47032000E-06	-4.47055000E-04	 7.64517000E-06
		-2.10245000E-03	-6.70728000E-04	 2.64542000E-03
		-9.45951000E-06	 3.07169000E-03	 1.74173000E-05
		-1.27353000E-03	 1.80634000E-03	 1.39972000E-03
		-1.95030000E-03	 2.90769000E-03	 1.31406000E-03
		-1.22253000E-05	 6.45979000E-04	 1.13601000E-05
		-2.32644000E-03	 4.24764000E-04	 2.57709000E-03
		-4.79088000E-06	 1.31533000E-03	 9.20546000E-06
		-1.05563000E-03	-5.00368000E-04	 1.32115000E-03
		-1.58716000E-03	 1.14597000E-03	 1.28256000E-03
		 2.51179000E-03	 1.66488000E-03	-2.61918000E-03
		 2.08093000E-03	-6.48617000E-04	-2.62784000E-03
		 1.93107000E-03	 2.91938000E-03	-1.28233000E-03
		 1.24170000E-03	 1.81486000E-03	-1.37073000E-03
		 2.29672000E-03	 4.46904000E-04	-2.55058000E-03
		 1.57778000E-03	 1.15500000E-03	-1.26341000E-03
		 1.03585000E-03	-4.85275000E-04	-1.30644000E-03
		-5.69003000E-06	-2.33646000E-03	-1.01447000E-06
		-1.66535000E-03	-2.55382000E-03	 2.63422000E-03
		-7.67111000E-06	-1.44929000E-03	 4.28791000E-06
		-1.88239000E-03	-1.67234000E-03	 2.71656000E-03
		-2.66897000E-06	-9.35158000E-05	 1.69784000E-06
		-8.39500000E-04	-2.38872000E-03	 1.23598000E-03
		-1.21882000E-03	-2.50556000E-04	 1.30368000E-03
		 1.65971000E-03	-2.52913000E-03	-2.63483000E-03
		 1.87045000E-03	-1.64707000E-03	-2.70807000E-03
		 1.21818000E-03	-2.44625000E-04	-1.29485000E-03
		 8.30327000E-04	-2.37296000E-03	-1.23668000E-03
		 2.88873000E-05	-6.07990000E-03	-7.93639000E-06
		-2.79400000E-03	-6.20641000E-03	 4.72974000E-03
		 2.82489000E-05	-8.84503000E-03	-3.56239000E-05
		-2.65435000E-03	-8.94300000E-03	 4.75170000E-03
		 1.46487000E-06	-1.34879000E-03	-7.25171000E-07
		-1.39068000E-03	-6.13161000E-03	 2.28905000E-03
		-2.83310000E-03	-1.50909000E-03	 3.91596000E-03
		 2.75820000E-05	-7.48410000E-03	-1.94205000E-05
		-2.72223000E-03	-7.59199000E-03	 4.74673000E-03
		 3.35853000E-06	-4.00345000E-03	-2.79495000E-06
		-1.31783000E-03	-8.86851000E-03	 2.28954000E-03
		-2.48733000E-03	-4.18031000E-03	 3.93996000E-03
		 2.87749000E-03	-6.10232000E-03	-4.77282000E-03
		 2.72737000E-03	-8.88698000E-03	-4.83533000E-03
		 2.83943000E-03	-1.44631000E-03	-3.90825000E-03
		 1.45249000E-03	-6.06795000E-03	-2.31264000E-03
		 2.80622000E-03	-7.51443000E-03	-4.81078000E-03
		 2.50241000E-03	-4.12260000E-03	-3.95221000E-03
		 1.37847000E-03	-8.85294000E-03	-2.35987000E-03
		 2.81433000E-05	-1.14557000E-02	-5.82907000E-05
		-2.52581000E-03	-1.15608000E-02	 4.72191000E-03
		 2.88669000E-05	-1.01674000E-02	-5.14995000E-05
		-2.59453000E-03	-1.02659000E-02	 4.77187000E-03
		 5.50012000E-06	-6.34123000E-03	-8.95257000E-06
		-1.24446000E-03	-1.14811000E-02	 2.22820000E-03
		-2.17716000E-03	-6.51787000E-03	 3.88948000E-03
		 2.58243000E-03	-1.15256000E-02	-4.81729000E-03
		 2.65493000E-03	-1.02240000E-02	-4.86501000E-03
		 2.18647000E-03	-6.47216000E-03	-3.92824000E-03
		 1.30173000E-03	-1.14781000E-02	-2.33241000E-03
		 7.98087000E-05	-1.63494000E-02	-9.36749000E-05
		-2.84103000E-03	-1.63282000E-02	 4.86473000E-03
		 8.88162000E-05	-1.93260000E-02	-1.00782000E-04
		-2.84881000E-03	-1.94892000E-02	 5.05905000E-03
		 3.55223000E-05	-1.12915000E-02	-3.00120000E-05
		-1.31823000E-03	-1.63144000E-02	 2.38524000E-03
		-2.81995000E-03	-1.12931000E-02	 4.90123000E-03
		 9.87109000E-05	-1.77972000E-02	-8.80225000E-05
		-2.84972000E-03	-1.79071000E-02	 4.92943000E-03
		 5.58934000E-05	-1.41085000E-02	-8.86177000E-05
		-1.34325000E-03	-1.94328000E-02	 2.43629000E-03
		-2.79790000E-03	-1.41850000E-02	 4.99993000E-03
		 2.76392000E-03	-1.63929000E-02	-5.02453000E-03
		 2.82978000E-03	-1.92139000E-02	-5.10435000E-03
		 2.81370000E-03	-1.13087000E-02	-5.01711000E-03
		 1.40850000E-03	-1.64040000E-02	-2.55172000E-03
		 2.78732000E-03	-1.77826000E-02	-5.06515000E-03
		 2.80432000E-03	-1.41112000E-02	-5.09559000E-03
		 1.45013000E-03	-1.92591000E-02	-2.60237000E-03
		 1.75569000E-05	-2.22313000E-02	-1.24518000E-04
		-2.83339000E-03	-2.24395000E-02	 5.05883000E-03
		 5.69120000E-05	-2.07950000E-02	-1.09737000E-04
		-2.84247000E-03	-2.09872000E-02	 5.09904000E-03
		 3.96477000E-05	-1.69020000E-02	-1.24628000E-04
		-1.41728000E-03	-2.23704000E-02	 2.42006000E-03
		-2.71322000E-03	-1.70103000E-02	 5.01289000E-03
		 2.85065000E-03	-2.20577000E-02	-5.13629000E-03
		 2.84756000E-03	-2.06387000E-02	-5.12577000E-03
		 2.77919000E-03	-1.68754000E-02	-5.11004000E-03
		 1.44178000E-03	-2.21260000E-02	-2.63003000E-03
		 0.00000000E+00	 0.00000000E+00	 0.00000000E+00
		 0.00000000E+00	 0.00000000E+00	 0.00000000E+00
		 7.10976000E-05	-1.13292000E-02	-1.52757000E-04
		-3.28278000E-03	-1.23208000E-02	 1.26934000E-02
		 0.00000000E+00	 0.00000000E+00	 0.00000000E+00
		 0.00000000E+00	 0.00000000E+00	 0.00000000E+00
		 6.39373000E-05	-1.37763000E-02	-1.82404000E-04
		-1.51306000E-03	-1.48190000E-02	 1.27853000E-02
		 0.00000000E+00	 0.00000000E+00	 0.00000000E+00
		 4.46256000E-05	-1.88933000E-03	-4.69517000E-05
		-1.61051000E-03	-1.15256000E-02	 6.32768000E-03
		-2.64436000E-03	-3.07210000E-03	 6.34926000E-03
		 0.00000000E+00	 0.00000000E+00	 0.00000000E+00
		 0.00000000E+00	 0.00000000E+00	 0.00000000E+00
		 6.92143000E-05	-1.28462000E-02	-1.71517000E-04
		-2.38302000E-03	-1.38575000E-02	 1.25823000E-02
		 0.00000000E+00	 0.00000000E+00	 0.00000000E+00
		 2.42499000E-05	-3.52546000E-03	-5.28851000E-05
		-7.24223000E-04	-1.39848000E-02	 6.19803000E-03
		-7.41324000E-04	-4.68592000E-03	 6.15776000E-03
		 0.00000000E+00	 0.00000000E+00	 0.00000000E+00
		 3.39612000E-03	-1.19331000E-02	-1.30550000E-02
		 0.00000000E+00	 0.00000000E+00	 0.00000000E+00
		 1.64576000E-03	-1.44267000E-02	-1.32111000E-02
		 0.00000000E+00	 0.00000000E+00	 0.00000000E+00
		 2.71321000E-03	-2.94955000E-03	-6.46154000E-03
		 1.74271000E-03	-1.13238000E-02	-6.65386000E-03
		 0.00000000E+00	 0.00000000E+00	 0.00000000E+00
		 2.51328000E-03	-1.34659000E-02	-1.29799000E-02
		 0.00000000E+00	 0.00000000E+00	 0.00000000E+00
		 7.91576000E-04	-4.56654000E-03	-6.27079000E-03
		 8.52631000E-04	-1.37848000E-02	-6.58391000E-03
		 0.00000000E+00	 0.00000000E+00	 0.00000000E+00
		 0.00000000E+00	 0.00000000E+00	 0.00000000E+00
		 5.03052000E-05	-1.44877000E-02	-1.63291000E-04
		 2.66992000E-04	-1.54557000E-02	 1.26871000E-02
		 0.00000000E+00	 0.00000000E+00	 0.00000000E+00
		 0.00000000E+00	 0.00000000E+00	 0.00000000E+00
		 5.70760000E-05	-1.44226000E-02	-1.82388000E-04
		-6.34839000E-04	-1.54300000E-02	 1.28629000E-02
		 0.00000000E+00	 0.00000000E+00	 0.00000000E+00
		 2.77587000E-06	-3.42124000E-03	-3.36535000E-05
		 1.58620000E-04	-1.46650000E-02	 6.02731000E-03
		 1.21977000E-03	-4.54397000E-03	 6.36665000E-03
		 0.00000000E+00	 0.00000000E+00	 0.00000000E+00
		-1.33834000E-04	-1.50807000E-02	-1.30646000E-02
		 0.00000000E+00	 0.00000000E+00	 0.00000000E+00
		 7.62835000E-04	-1.50402000E-02	-1.32880000E-02
		 0.00000000E+00	 0.00000000E+00	 0.00000000E+00
		-1.19478000E-03	-4.42111000E-03	-6.44473000E-03
		-4.48568000E-05	-1.44822000E-02	-6.36759000E-03
		 1.81309000E-04	-4.82321000E-02	-8.64188000E-04
		-4.55373000E-03	-4.95782000E-02	 2.31997000E-02
		 1.90296000E-04	-5.22010000E-02	-9.89937000E-04
		-3.02982000E-03	-5.35446000E-02	 2.31074000E-02
		 1.26647000E-04	-2.69076000E-02	-4.06898000E-04
		-2.18586000E-03	-4.87377000E-02	 1.11894000E-02
		-3.97509000E-03	-2.81454000E-02	 1.83377000E-02
		 1.87591000E-04	-5.03864000E-02	-9.36860000E-04
		-3.79006000E-03	-5.17293000E-02	 2.30608000E-02
		 1.19271000E-04	-3.01611000E-02	-4.77701000E-04
		-1.41682000E-03	-5.27034000E-02	 1.09967000E-02
		-2.29130000E-03	-3.13956000E-02	 1.83081000E-02
		 4.91759000E-03	-4.83303000E-02	-2.50134000E-02
		 3.42164000E-03	-5.23311000E-02	-2.51731000E-02
		 4.20810000E-03	-2.73792000E-02	-1.92307000E-02
		 2.54548000E-03	-4.81100000E-02	-1.29393000E-02
		 4.17481000E-03	-5.05096000E-02	-2.50158000E-02
		 2.53717000E-03	-3.06406000E-02	-1.93451000E-02
		 1.80472000E-03	-5.21009000E-02	-1.29941000E-02
		 1.79991000E-04	-5.46830000E-02	-1.03904000E-03
		-1.50710000E-03	-5.59838000E-02	 2.30222000E-02
		 1.86552000E-04	-5.36108000E-02	-1.02394000E-03
		-2.26606000E-03	-5.49720000E-02	 2.31845000E-02
		 1.01219000E-04	-3.17417000E-02	-4.83105000E-04
		-6.72665000E-04	-5.51528000E-02	 1.08012000E-02
		-6.24047000E-04	-3.29636000E-02	 1.82596000E-02
		 1.92398000E-03	-5.48251000E-02	-2.51860000E-02
		 2.67292000E-03	-5.37425000E-02	-2.53230000E-02
		 8.71343000E-04	-3.22438000E-02	-1.93057000E-02
		 1.05031000E-03	-5.45917000E-02	-1.28938000E-02
		 3.63042000E-04	-1.05452000E-01	-2.50941000E-03
		-5.53906000E-03	-1.07100000E-01	 3.03754000E-02
		 3.88018000E-04	-1.10728000E-01	-2.74563000E-03
		-4.32737000E-03	-1.12480000E-01	 3.01772000E-02
		 2.64669000E-04	-7.45919000E-02	-1.55658000E-03
		-2.58337000E-03	-1.06126000E-01	 1.39447000E-02
		-5.06818000E-03	-7.61138000E-02	 2.71931000E-02
		 3.79723000E-04	-1.08241000E-01	-2.63280000E-03
		-4.93244000E-03	-1.09951000E-01	 3.01783000E-02
		 2.78513000E-04	-7.92451000E-02	-1.73999000E-03
		-1.99606000E-03	-1.11454000E-01	 1.36273000E-02
		-3.70923000E-03	-8.07679000E-02	 2.70535000E-02
		 6.22694000E-03	-1.04890000E-01	-3.54595000E-02
		 5.11467000E-03	-1.10198000E-01	-3.57718000E-02
		 5.58975000E-03	-7.43855000E-02	-3.03945000E-02
		 3.29510000E-03	-1.05023000E-01	-1.89740000E-02
		 5.67192000E-03	-1.07692000E-01	-3.55371000E-02
		 4.28496000E-03	-7.90477000E-02	-3.06201000E-02
		 2.75112000E-03	-1.10323000E-01	-1.91592000E-02
		 3.87939000E-04	-1.14874000E-01	-2.91100000E-03
		-3.24371000E-03	-1.16723000E-01	 2.99684000E-02
		 3.90454000E-04	-1.12961000E-01	-2.84096000E-03
		-3.78729000E-03	-1.14642000E-01	 3.01985000E-02
		 2.81602000E-04	-8.25744000E-02	-1.84691000E-03
		-1.40108000E-03	-1.15645000E-01	 1.33039000E-02
		-2.40164000E-03	-8.41051000E-02	 2.69085000E-02
		 4.00042000E-03	-1.14390000E-01	-3.59225000E-02
		 4.56003000E-03	-1.12426000E-01	-3.59901000E-02
		 2.95815000E-03	-8.23975000E-02	-3.06906000E-02
		 2.18360000E-03	-1.14510000E-01	-1.91887000E-02
		 6.62914000E-04	-1.78359000E-01	-5.17488000E-03
		-5.96773000E-03	-1.80149000E-01	 3.38262000E-02
		 6.92434000E-04	-1.84686000E-01	-5.50420000E-03
		-5.36701000E-03	-1.86935000E-01	 3.35506000E-02
		 4.66722000E-04	-1.40254000E-01	-3.71955000E-03
		-2.64966000E-03	-1.79162000E-01	 1.42683000E-02
		-5.86416000E-03	-1.42083000E-01	 3.25679000E-02
		 6.81712000E-04	-1.81571000E-01	-5.34366000E-03
		-5.65495000E-03	-1.83541000E-01	 3.36604000E-02
		 4.89365000E-04	-1.46148000E-01	-4.04887000E-03
		-2.21716000E-03	-1.85702000E-01	 1.39304000E-02
		-4.96331000E-03	-1.47926000E-01	 3.23725000E-02
		 7.13891000E-03	-1.77121000E-01	-4.42306000E-02
		 6.47322000E-03	-1.83323000E-01	-4.46057000E-02
		 6.77937000E-03	-1.39338000E-01	-4.00767000E-02
		 3.89257000E-03	-1.77665000E-01	-2.46264000E-02
		 6.81252000E-03	-1.80307000E-01	-4.44032000E-02
		 5.88735000E-03	-1.45217000E-01	-4.04387000E-02
		 3.56916000E-03	-1.83903000E-01	-2.49536000E-02
		 5.63482000E-04	-1.90377000E-01	-5.78661000E-03
		-4.66618000E-03	-1.92963000E-01	 3.32289000E-02
		 6.31634000E-04	-1.87579000E-01	-5.65595000E-03
		-5.01293000E-03	-1.90526000E-01	 3.34541000E-02
		 4.66956000E-04	-1.51136000E-01	-4.34157000E-03
		-2.17171000E-03	-1.91542000E-01	 1.35510000E-02
		-3.92197000E-03	-1.52777000E-01	 3.21004000E-02
		 5.82004000E-03	-1.88882000E-01	-4.48340000E-02