<?xml version="1.0"?>
<VTKFile type="UnstructuredGrid" version="0.1" byte_order="LittleEndian">
	<UnstructuredGrid>
		<Piece NumberOfPoints="522" NumberOfCells="64">
			<Points>
				<DataArray type="Float64" NumberOfComponents="3" format="ascii">
					 1.00000000E+00	 1.00000000E+00	-5.96046000E-08
					 1.00000000E+00	 5.00000000E-01	-5.96046000E-08
					 1.00000000E+00	 5.00000000E-01	 1.00000000E+00
					 1.00000000E+00	 1.00000000E+00	 1.00000000E+00
					 5.00000000E-01	 1.00000000E+00	-5.96046000E-08
					 5.00000000E-01	 5.00000000E-01	-5.96046000E-08
					 5.00000000E-01	 5.00000000E-01	 1.00000000E+00
					 5.00000000E-01	 1.00000000E+00	 1.00000000E+00
					 1.00000000E+00	 7.50000000E-01	-5.96046000E-08
					 1.00000000E+00	 5.00000000E-01	 5.00000000E-01
					 1.00000000E+00	 7.50000000E-01	 1.00000000E+00
					 1.00000000E+00	 1.00000000E+00	 5.00000000E-01
					 7.50000000E-01	 1.00000000E+00	-5.96046000E-08
					 7.50000000E-01	 5.00000000E-01	-5.96046000E-08
					 7.50000000E-01	 5.00000000E-01	 1.00000000E+00
					 7.50000000E-01	 1.00000000E+00	 1.00000000E+00
					 5.00000000E-01	 7.50000000E-01	-5.96046000E-08
					 5.00000000E-01	 5.00000000E-01	 5.00000000E-01
					 5.00000000E-01	 7.50000000E-01	 1.00000000E+00
					 5.00000000E-01	 1.00000000E+00	 5.00000000E-01
					 1.00000000E+00	-1.49012000E-08	-5.96046000E-08
					 1.00000000E+00	-1.49012000E-08	 1.00000000E+00
					 5.00000000E-01	-1.49012000E-08	-5.96046000E-08
					 5.00000000E-01	-1.49012000E-08	 1.00000000E+00
					 1.00000000E+00	 2.50000000E-01	-5.96046000E-08
					 1.00000000E+00	-1.49012000E-08	 5.00000000E-01
					 1.00000000E+00	 2.50000000E-01	 1.00000000E+00
					 7.50000000E-01	-1.49012000E-08	-5.96046000E-08
					 7.50000000E-01	-1.49012000E-08	 1.00000000E+00
					 5.00000000E-01	 2.50000000E-01	-5.96046000E-08
					 5.00000000E-01	-1.49012000E-08	 5.00000000E-01
					 5.00000000E-01	 2.50000000E-01	 1.00000000E+00
					-7.45058000E-09	 1.00000000E+00	-5.96046000E-08
					-7.45058000E-09	 5.00000000E-01	-5.96046000E-08
					-7.45058000E-09	 5.00000000E-01	 1.00000000E+00
					-7.45058000E-09	 1.00000000E+00	 1.00000000E+00
					 2.50000000E-01	 1.00000000E+00	-5.96046000E-08
					 2.50000000E-01	 5.00000000E-01	-5.96046000E-08
					 2.50000000E-01	 5.00000000E-01	 1.00000000E+00
					 2.50000000E-01	 1.00000000E+00	 1.00000000E+00
					-7.45058000E-09	 7.50000000E-01	-5.96046000E-08
					-7.45058000E-09	 5.00000000E-01	 5.00000000E-01
					-7.45058000E-09	 7.50000000E-01	 1.00000000E+00
					-7.45058000E-09	 1.00000000E+00	 5.00000000E-01
					-7.45058000E-09	-1.49012000E-08	-5.96046000E-08
					-7.45058000E-09	-1.49012000E-08	 1.00000000E+00
					 2.50000000E-01	-1.49012000E-08	-5.96046000E-08
					 2.50000000E-01	-1.49012000E-08	 1.00000000E+00
					-7.45058000E-09	 2.50000000E-01	-5.96046000E-08
					-7.45058000E-09	-1.49012000E-08	 5.00000000E-01
					-7.45058000E-09	 2.50000000E-01	 1.00000000E+00
					 1.00000000E+00	 5.00000000E-01	 2.00000000E+00
					 1.00000000E+00	 1.00000000E+00	 2.00000000E+00
					 5.00000000E-01	 5.00000000E-01	 2.00000000E+00
					 5.00000000E-01	 1.00000000E+00	 2.00000000E+00
					 1.00000000E+00	 5.00000000E-01	 1.50000000E+00
					 1.00000000E+00	 7.50000000E-01	 2.00000000E+00
					 1.00000000E+00	 1.00000000E+00	 1.50000000E+00
					 7.50000000E-01	 5.00000000E-01	 2.00000000E+00
					 7.50000000E-01	 1.00000000E+00	 2.00000000E+00
					 5.00000000E-01	 5.00000000E-01	 1.50000000E+00
					 5.00000000E-01	 7.50000000E-01	 2.00000000E+00
					 5.00000000E-01	 1.00000000E+00	 1.50000000E+00
					 1.00000000E+00	-1.49012000E-08	 2.00000000E+00
					 5.00000000E-01	-1.49012000E-08	 2.00000000E+00
					 1.00000000E+00	-1.49012000E-08	 1.50000000E+00
					 1.00000000E+00	 2.50000000E-01	 2.00000000E+00
					 7.50000000E-01	-1.49012000E-08	 2.00000000E+00
					 5.00000000E-01	-1.49012000E-08	 1.50000000E+00
					 5.00000000E-01	 2.50000000E-01	 2.00000000E+00
					-7.45058000E-09	 5.00000000E-01	 2.00000000E+00
					-7.45058000E-09	 1.00000000E+00	 2.00000000E+00
					 2.50000000E-01	 5.00000000E-01	 2.00000000E+00
					 2.50000000E-01	 1.00000000E+00	 2.00000000E+00
					-7.45058000E-09	 5.00000000E-01	 1.50000000E+00
					-7.45058000E-09	 7.50000000E-01	 2.00000000E+00
					-7.45058000E-09	 1.00000000E+00	 1.50000000E+00
					-7.45058000E-09	-1.49012000E-08	 2.00000000E+00
					 2.50000000E-01	-1.49012000E-08	 2.00000000E+00
					-7.45058000E-09	-1.49012000E-08	 1.50000000E+00
					-7.45058000E-09	 2.50000000E-01	 2.00000000E+00
					 1.00000000E+00	 5.00000000E-01	 3.00000000E+00
					 1.00000000E+00	 1.00000000E+00	 3.00000000E+00
					 5.00000000E-01	 5.00000000E-01	 3.00000000E+00
					 5.00000000E-01	 1.00000000E+00	 3.00000000E+00
					 1.00000000E+00	 5.00000000E-01	 2.50000000E+00
					 1.00000000E+00	 7.50000000E-01	 3.00000000E+00
					 1.00000000E+00	 1.00000000E+00	 2.50000000E+00
					 7.50000000E-01	 5.00000000E-01	 3.00000000E+00
					 7.50000000E-01	 1.00000000E+00	 3.00000000E+00
					 5.00000000E-01	 5.00000000E-01	 2.50000000E+00
					 5.00000000E-01	 7.50000000E-01	 3.00000000E+00
					 5.00000000E-01	 1.00000000E+00	 2.50000000E+00
					 1.00000000E+00	-1.49012000E-08	 3.00000000E+00
					 5.00000000E-01	-1.49012000E-08	 3.00000000E+00
					 1.00000000E+00	-1.49012000E-08	 2.50000000E+00
					 1.00000000E+00	 2.50000000E-01	 3.00000000E+00
					 7.50000000E-01	-1.49012000E-08	 3.00000000E+00
					 5.00000000E-01	-1.49012000E-08	 2.50000000E+00
					 5.00000000E-01	 2.50000000E-01	 3.00000000E+00
					-7.45058000E-09	 5.00000000E-01	 3.00000000E+00
					-7.45058000E-09	 1.00000000E+00	 3.00000000E+00
					 2.50000000E-01	 5.00000000E-01	 3.00000000E+00
					 2.50000000E-01	 1.00000000E+00	 3.00000000E+00
					-7.45058000E-09	 5.00000000E-01	 2.50000000E+00
					-7.45058000E-09	 7.50000000E-01	 3.00000000E+00
					-7.45058000E-09	 1.00000000E+00	 2.50000000E+00
					-7.45058000E-09	-1.49012000E-08	 3.00000000E+00
					 2.50000000E-01	-1.49012000E-08	 3.00000000E+00
					-7.45058000E-09	-1.49012000E-08	 2.50000000E+00
					-7.45058000E-09	 2.50000000E-01	 3.00000000E+00
					 1.00000000E+00	 5.00000000E-01	 4.00000000E+00
					 1.00000000E+00	 1.00000000E+00	 4.00000000E+00
					 5.00000000E-01	 5.00000000E-01	 4.00000000E+00
					 5.00000000E-01	 1.00000000E+00	 4.00000000E+00
					 1.00000000E+00	 5.00000000E-01	 3.50000000E+00
					 1.00000000E+00	 7.50000000E-01	 4.00000000E+00
					 1.00000000E+00	 1.00000000E+00	 3.50000000E+00
					 7.50000000E-01	 5.00000000E-01	 4.00000000E+00
					 7.50000000E-01	 1.00000000E+00	 4.00000000E+00
					 5.00000000E-01	 5.00000000E-01	 3.50000000E+00
					 5.00000000E-01	 7.50000000E-01	 4.00000000E+00
					 5.00000000E-01	 1.00000000E+00	 3.50000000E+00
					 1.00000000E+00	-1.49012000E-08	 4.00000000E+00
					 5.00000000E-01	-1.49012000E-08	 4.00000000E+00
					 1.00000000E+00	-1.49012000E-08	 3.50000000E+00
					 1.00000000E+00	 2.50000000E-01	 4.00000000E+00
					 7.50000000E-01	-1.49012000E-08	 4.00000000E+00
					 5.00000000E-01	-1.49012000E-08	 3.50000000E+00
					 5.00000000E-01	 2.50000000E-01	 4.00000000E+00
					-7.45058000E-09	 5.00000000E-01	 4.00000000E+00
					-7.45058000E-09	 1.00000000E+00	 4.00000000E+00
					 2.50000000E-01	 5.00000000E-01	 4.00000000E+00
					 2.50000000E-01	 1.00000000E+00	 4.00000000E+00
					-7.45058000E-09	 5.00000000E-01	 3.50000000E+00
					-7.45058000E-09	 7.50000000E-01	 4.00000000E+00
					-7.45058000E-09	 1.00000000E+00	 3.50000000E+00
					-7.45058000E-09	-1.49012000E-08	 4.00000000E+00
					 2.50000000E-01	-1.49012000E-08	 4.00000000E+00
					-7.45058000E-09	-1.49012000E-08	 3.50000000E+00
					-7.45058000E-09	 2.50000000E-01	 4.00000000E+00
					 1.00000000E+00	 5.00000000E-01	 5.00000000E+00
					 1.00000000E+00	 1.00000000E+00	 5.00000000E+00
					 5.00000000E-01	 5.00000000E-01	 5.00000000E+00
					 5.00000000E-01	 1.00000000E+00	 5.00000000E+00
					 1.00000000E+00	 5.00000000E-01	 4.50000000E+00
					 1.00000000E+00	 7.50000000E-01	 5.00000000E+00
					 1.00000000E+00	 1.00000000E+00	 4.50000000E+00
					 7.50000000E-01	 5.00000000E-01	 5.00000000E+00
					 7.50000000E-01	 1.00000000E+00	 5.00000000E+00
					 5.00000000E-01	 5.00000000E-01	 4.50000000E+00
					 5.00000000E-01	 7.50000000E-01	 5.00000000E+00
					 5.00000000E-01	 1.00000000E+00	 4.50000000E+00
					 1.00000000E+00	-1.49012000E-08	 5.00000000E+00
					 5.00000000E-01	-1.49012000E-08	 5.00000000E+00
					 1.00000000E+00	-1.49012000E-08	 4.50000000E+00
					 1.00000000E+00	 2.50000000E-01	 5.00000000E+00
					 7.50000000E-01	-1.49012000E-08	 5.00000000E+00
					 5.00000000E-01	-1.49012000E-08	 4.50000000E+00
					 5.00000000E-01	 2.50000000E-01	 5.00000000E+00
					-7.45058000E-09	 5.00000000E-01	 5.00000000E+00
					-7.45058000E-09	 1.00000000E+00	 5.00000000E+00
					 2.50000000E-01	 5.00000000E-01	 5.00000000E+00
					 2.50000000E-01	 1.00000000E+00	 5.00000000E+00
					-7.45058000E-09	 5.00000000E-01	 4.50000000E+00
					-7.45058000E-09	 7.50000000E-01	 5.00000000E+00
					-7.45058000E-09	 1.00000000E+00	 4.50000000E+00
					-7.45058000E-09	-1.49012000E-08	 5.00000000E+00
					 2.50000000E-01	-1.49012000E-08	 5.00000000E+00
					-7.45058000E-09	-1.49012000E-08	 4.50000000E+00
					-7.45058000E-09	 2.50000000E-01	 5.00000000E+00
					 1.00000000E+00	 5.00000000E-01	 6.00000000E+00
					 1.00000000E+00	 1.00000000E+00	 6.00000000E+00
					 5.00000000E-01	 5.00000000E-01	 6.00000000E+00
					 5.00000000E-01	 1.00000000E+00	 6.00000000E+00
					 1.00000000E+00	 5.00000000E-01	 5.50000000E+00
					 1.00000000E+00	 7.50000000E-01	 6.00000000E+00
					 1.00000000E+00	 1.00000000E+00	 5.50000000E+00
					 7.50000000E-01	 5.00000000E-01	 6.00000000E+00
					 7.50000000E-01	 1.00000000E+00	 6.00000000E+00
					 5.00000000E-01	 5.00000000E-01	 5.50000000E+00
					 5.00000000E-01	 7.50000000E-01	 6.00000000E+00
					 5.00000000E-01	 1.00000000E+00	 5.50000000E+00
					 1.00000000E+00	-1.49012000E-08	 6.00000000E+00
[...]
			<PointData>
				<DataArray type="Float32" Name="U" NumberOfComponents="3" ComponentName0="D1" ComponentName1="D2" ComponentName2="D3" format="ascii">
					 0.00000000E+00	 0.00000000E+00	 0.00000000E+00
					 0.00000000E+00	 0.00000000E+00	 0.00000000E+00
					 1.20228000E-05	 1.21291000E-03	-2.30724000E-07
					 1.28036000E-03	 1.36961000E-03	-2.33769000E-03
					 0.00000000E+00	 0.00000000E+00	 0.00000000E+00
					 0.00000000E+00	 0.00000000E+00	 0.00000000E+00
					 1.42585000E-05	 2.30927000E-03	-1.38727000E-06
					 9.35297000E-04	 2.47101000E-03	-2.34841000E-03
					 0.00000000E+00	 0.00000000E+00	 0.00000000E+00
					 6.15461000E-06	-4.21805000E-05	-1.61366000E-06
					 6.49834000E-04	 1.23476000E-03	-1.26362000E-03
					 7.99994000E-04	 1.75947000E-04	-1.13000000E-03
					 0.00000000E+00	 0.00000000E+00	 0.00000000E+00
					 0.00000000E+00	 0.00000000E+00	 0.00000000E+00
					 1.32746000E-05	 1.81723000E-03	-2.94655000E-07
					 1.10580000E-03	 1.97278000E-03	-2.25190000E-03
					 0.00000000E+00	 0.00000000E+00	 0.00000000E+00
					 6.49852000E-06	 5.78439000E-04	-9.47871000E-08
					 4.73892000E-04	 2.33234000E-03	-1.17884000E-03
					 4.67689000E-04	 7.78304000E-04	-1.09076000E-03
					 0.00000000E+00	 0.00000000E+00	 0.00000000E+00
					-1.25538000E-03	 1.38915000E-03	 2.33601000E-03
					 0.00000000E+00	 0.00000000E+00	 0.00000000E+00
					-9.04737000E-04	 2.48712000E-03	 2.34417000E-03
					 0.00000000E+00	 0.00000000E+00	 0.00000000E+00
					-7.87748000E-04	 1.81869000E-04	 1.12661000E-03
					-6.25508000E-04	 1.24540000E-03	 1.26214000E-03
					 0.00000000E+00	 0.00000000E+00	 0.00000000E+00
					-1.07750000E-03	 1.99019000E-03	 2.25065000E-03
					 0.00000000E+00	 0.00000000E+00	 0.00000000E+00
					-4.53990000E-04	 7.83568000E-04	 1.09083000E-03
					-4.44676000E-04	 2.34051000E-03	 1.17542000E-03
					 0.00000000E+00	 0.00000000E+00	 0.00000000E+00
					 0.00000000E+00	 0.00000000E+00	 0.00000000E+00
					 1.48377000E-05	 3.05288000E-03	-5.94150000E-07
					 5.82904000E-04	 3.20759000E-03	-2.33810000E-03
					 0.00000000E+00	 0.00000000E+00	 0.00000000E+00
					 0.00000000E+00	 0.00000000E+00	 0.00000000E+00
					 1.46675000E-05	 2.73570000E-03	-1.98990000E-06
					 7.60617000E-04	 2.89372000E-03	-2.41959000E-03
					 0.00000000E+00	 0.00000000E+00	 0.00000000E+00
					 6.70938000E-06	 8.79482000E-04	 2.65380000E-06
					 2.97556000E-04	 3.07371000E-03	-1.09822000E-03
					 1.00178000E-04	 1.06318000E-03	-1.12556000E-03
					 0.00000000E+00	 0.00000000E+00	 0.00000000E+00
					-5.50440000E-04	 3.22008000E-03	 2.33558000E-03
					 0.00000000E+00	 0.00000000E+00	 0.00000000E+00
					-7.29045000E-04	 2.90882000E-03	 2.41353000E-03
					 0.00000000E+00	 0.00000000E+00	 0.00000000E+00
					-8.57789000E-05	 1.06825000E-03	 1.13096000E-03
					-2.66853000E-04	 3.07926000E-03	 1.09698000E-03
					 1.89962000E-05	 7.46878000E-03	-4.35164000E-06
					 2.13449000E-03	 7.66522000E-03	-5.15304000E-03
					 2.41067000E-05	 9.32156000E-03	-2.27294000E-05
					 1.63433000E-03	 9.53521000E-03	-5.15633000E-03
					 1.71574000E-05	 3.61237000E-03	 7.94546000E-07
					 1.07261000E-03	 7.50557000E-03	-2.64375000E-03
					 1.76873000E-03	 3.80104000E-03	-3.64637000E-03
					 2.20585000E-05	 8.45343000E-03	-1.37483000E-05
					 1.88607000E-03	 8.66386000E-03	-5.11867000E-03
					 2.04976000E-05	 5.14581000E-03	-7.71074000E-06
					 8.30083000E-04	 9.36829000E-03	-2.62105000E-03
					 1.34541000E-03	 5.34649000E-03	-3.64068000E-03
					-2.09403000E-03	 7.73759000E-03	 5.14099000E-03
					-1.58185000E-03	 9.59888000E-03	 5.10729000E-03
					-1.73298000E-03	 3.84056000E-03	 3.64635000E-03
					-1.03445000E-03	 7.54351000E-03	 2.63415000E-03
					-1.83830000E-03	 8.73112000E-03	 5.08791000E-03
					-1.30127000E-03	 5.38010000E-03	 3.62336000E-03
					-7.80847000E-04	 9.40116000E-03	 2.57477000E-03
					 2.53505000E-05	 1.06848000E-02	-3.65266000E-05
					 1.14686000E-03	 1.09061000E-02	-5.18557000E-03
					 2.52895000E-05	 1.00642000E-02	-3.04989000E-05
					 1.39152000E-03	 1.02784000E-02	-5.18879000E-03
					 2.13910000E-05	 6.25895000E-03	-1.30948000E-05
					 5.83939000E-04	 1.07362000E-02	-2.62290000E-03
					 9.43315000E-04	 6.47712000E-03	-3.66062000E-03
					-1.09013000E-03	 1.09618000E-02	 5.10870000E-03
					-1.33606000E-03	 1.03389000E-02	 5.12397000E-03
					-8.95705000E-04	 6.50494000E-03	 3.63222000E-03
					-5.31507000E-04	 1.07644000E-02	 2.54908000E-03
					 1.52511000E-05	 2.09985000E-02	-7.51071000E-05
					 2.37648000E-03	 2.11740000E-02	-8.83439000E-03
					 2.06675000E-05	 2.30825000E-02	-1.15526000E-04
					 1.84307000E-03	 2.32670000E-02	-8.88519000E-03
					 1.91244000E-05	 1.31864000E-02	-2.55818000E-05
					 1.19382000E-03	 2.10157000E-02	-4.43075000E-03
					 2.33116000E-03	 1.33784000E-02	-6.94644000E-03
					 1.85531000E-05	 2.21100000E-02	-9.67476000E-05
					 2.11024000E-03	 2.22907000E-02	-8.86401000E-03
					 2.39774000E-05	 1.52122000E-02	-5.54712000E-05
					 9.31022000E-04	 2.31030000E-02	-4.47766000E-03
					 1.78309000E-03	 1.54201000E-02	-6.97140000E-03
					-2.34447000E-03	 2.13489000E-02	 8.67410000E-03
					-1.79764000E-03	 2.34343000E-02	 8.64395000E-03
					-2.29053000E-03	 1.34956000E-02	 6.88902000E-03
					-1.16335000E-03	 2.11030000E-02	 4.27834000E-03
					-2.07007000E-03	 2.24623000E-02	 8.66015000E-03
					-1.73073000E-03	 1.55281000E-02	 6.85407000E-03
					-8.88702000E-04	 2.31867000E-02	 4.24419000E-03
					 2.17974000E-05	 2.46385000E-02	-1.46854000E-04
					 1.30326000E-03	 2.48203000E-02	-8.90615000E-03
					 2.17206000E-05	 2.39294000E-02	-1.32191000E-04
					 1.57343000E-03	 2.41149000E-02	-8.90637000E-03
					 2.46222000E-05	 1.66998000E-02	-7.83100000E-05
					 6.64650000E-04	 2.46586000E-02	-4.49566000E-03
					 1.24202000E-03	 1.69121000E-02	-6.99934000E-03
					-1.25303000E-03	 2.49784000E-02	 8.60274000E-03
					-1.52488000E-03	 2.42782000E-02	 8.63201000E-03
					-1.18622000E-03	 1.70111000E-02	 6.83645000E-03
					-6.19022000E-04	 2.47373000E-02	 4.19963000E-03
					 7.42358000E-06	 4.20680000E-02	-2.82133000E-04
					 2.45039000E-03	 4.21053000E-02	-1.21081000E-02
					 1.31164000E-05	 4.43289000E-02	-3.40156000E-04
					 2.09373000E-03	 4.43650000E-02	-1.21871000E-02
					 1.12860000E-05	 3.07782000E-02	-1.61522000E-04
					 1.22937000E-03	 4.20415000E-02	-6.17728000E-03
					 2.36630000E-03	 3.08916000E-02	-1.05884000E-02
					 1.07320000E-05	 4.32448000E-02	-3.12005000E-04
					 2.27206000E-03	 4.32804000E-02	-1.21246000E-02
					 1.62822000E-05	 3.29064000E-02	-2.10214000E-04
					 1.05240000E-03	 4.43020000E-02	-6.22006000E-03
					 1.91826000E-03	 3.30182000E-02	-1.06570000E-02
					-2.43385000E-03	 4.24026000E-02	 1.15330000E-02
					-2.06447000E-03	 4.46575000E-02	 1.14961000E-02
					-2.34249000E-03	 3.11272000E-02	 1.02534000E-02
					-1.21428000E-03	 4.21894000E-02	 5.61007000E-03
					-2.24817000E-03	 4.35745000E-02	 1.14902000E-02
					-1.88233000E-03	 3.32483000E-02	 1.02249000E-02
					-1.02544000E-03	 4.44464000E-02	 5.53719000E-03
					 1.55651000E-05	 4.62249000E-02	-3.89561000E-04
					 1.72444000E-03	 4.62592000E-02	-1.22156000E-02
					 1.46763000E-05	 4.53220000E-02	-3.66252000E-04
					 1.90924000E-03	 4.53581000E-02	-1.22495000E-02
					 1.74371000E-05	 3.45778000E-02	-2.49568000E-04
					 8.71137000E-04	 4.61978000E-02	-6.21424000E-03
					 1.45173000E-03	 3.46835000E-02	-1.06762000E-02
					-1.68892000E-03	 4.65438000E-02	 1.14261000E-02
					-1.87624000E-03	 4.56491000E-02	 1.15061000E-02
					-1.41150000E-03	 3.49053000E-02	 1.01661000E-02
					-8.38753000E-04	 4.63362000E-02	 5.43296000E-03
					-4.70722000E-06	 6.77953000E-02	-6.00664000E-04
					 2.84601000E-03	 6.76835000E-02	-1.42011000E-02
					 3.39439000E-06	 7.05631000E-02	-6.87072000E-04
					 2.69157000E-03	 7.04529000E-02	-1.43102000E-02
					 3.76949000E-06	 5.45031000E-02	-4.29949000E-04
					 1.42043000E-03	 6.77193000E-02	-7.39544000E-03
					 2.62832000E-03	 5.44644000E-02	-1.33019000E-02
					-2.15445000E-07	 6.91995000E-02	-6.44628000E-04
					 2.76942000E-03	 6.90895000E-02	-1.42183000E-02
					 1.03634000E-05	 5.69949000E-02	-5.00955000E-04
					 1.34710000E-03	 7.04890000E-02	-7.45290000E-03
					 2.37147000E-03	 5.69558000E-02	-1.33956000E-02
					-2.85276000E-03	 6.80728000E-02	 1.29938000E-02
					-2.68205000E-03	 7.08376000E-02	 1.29305000E-02
					-2.61814000E-03	 5.48138000E-02	 1.24332000E-02
					-1.42931000E-03	 6.79137000E-02	 6.19265000E-03
					-2.76716000E-03	 6.94744000E-02	 1.29233000E-02
					-2.34754000E-03	 5.72998000E-02	 1.23849000E-02
					-1.33973000E-03	 7.06788000E-02	 6.07736000E-03
					 8.47011000E-06	 7.31666000E-02	-7.69046000E-04
					 2.53449000E-03	 7.30610000E-02	-1.43693000E-02
					 6.37103000E-06	 7.18853000E-02	-7.28438000E-04
					 2.61330000E-03	 7.17752000E-02	-1.44030000E-02
					 1.37153000E-05	 5.92203000E-02	-5.65194000E-04
					 1.27056000E-03	 7.30966000E-02	-7.46285000E-03
					 2.10454000E-03	 5.91815000E-02	-1.34374000E-02
					-2.51437000E-03	 7.34383000E-02	 1.28260000E-02
					-2.59767000E-03	 7.21598000E-02	 1.29409000E-02
					-2.07304000E-03	 5.95173000E-02	 1.22984000E-02
					-1.25286000E-03	 7.32793000E-02	 5.92341000E-03
					-3.66285000E-05	 9.56386000E-02	-9.89788000E-04
					 3.21761000E-03	 9.54247000E-02	-1.50041000E-02
					-2.76789000E-05	 9.89050000E-02	-1.09476000E-03
					 3.24712000E-03	 9.86884000E-02	-1.51215000E-02
					-1.96590000E-05	 8.16277000E-02	-7.89727000E-04
					 1.59166000E-03	 9.55360000E-02	-8.00064000E-03
					 3.04951000E-03	 8.14573000E-02	-1.47413000E-02
					-3.23321000E-05	 9.72679000E-02	-1.04253000E-03
					 3.23235000E-03	 9.70531000E-02	-1.50354000E-02
					-1.09361000E-05	 8.46633000E-02	-8.88573000E-04
					 1.61030000E-03	 9.88027000E-02	-8.08296000E-03
					 2.99422000E-03	 8.44942000E-02	-1.48610000E-02
					-3.29234000E-03	 9.58344000E-02	 1.30249000E-02
					-3.30341000E-03	 9.91016000E-02	 1.29329000E-02
					-3.08801000E-03	 8.18647000E-02	 1.31588000E-02
					-1.66514000E-03	 9.57410000E-02	 6.02131000E-03
					-3.29827000E-03	 9.74631000E-02	 1.29507000E-02
					-3.01506000E-03	 8.49008000E-02	 1.30816000E-02
					-1.66577000E-03	 9.90078000E-02	 5.89352000E-03
					-1.76083000E-05	 1.02185000E-01	-1.20095000E-03
					 3.28428000E-03	 1.01976000E-01	-1.52148000E-02
					-2.28715000E-05	 1.00542000E-01	-1.14721000E-03
					 3.26571000E-03	 1.00325000E-01	-1.52091000E-02
					-3.18583000E-06	 8.76340000E-02	-9.85996000E-04
					 1.63121000E-03	 1.02087000E-01	-8.14242000E-03
					 2.94510000E-03	 8.74728000E-02	-1.49368000E-02
					-3.32018000E-03	 1.02390000E-01	 1.28138000E-02
					-3.31217000E-03	 1.00742000E-01	 1.29159000E-02
					-2.95007000E-03	 8.78759000E-02	 1.29631000E-02
					-1.66648000E-03	 1.02291000E-01	 5.74034000E-03
					-5.67925000E-05	 1.23114000E-01	-1.38226000E-03
					 3.54078000E-03	 1.22890000E-01	-1.50683000E-02
					-4.57588000E-05	 1.26732000E-01	-1.48991000E-03
					 3.59594000E-03	 1.26509000E-01	-1.51740000E-02
					-4.91511000E-05	 1.09494000E-01	-1.19019000E-03
					 1.74236000E-03	 1.23008000E-01	-8.25481000E-03
					 3.38683000E-03	 1.09273000E-01	-1.50610000E-02
					-5.11699000E-05	 1.24917000E-01	-1.43535000E-03
					 3.56878000E-03	 1.24694000E-01	-1.50984000E-02
					-3.93703000E-05	 1.12955000E-01	-1.29605000E-03
					 1.77575000E-03	 1.26627000E-01	-8.34074000E-03
					 3.44623000E-03	 1.12732000E-01	-1.51697000E-02
					-3.65494000E-03	 1.23289000E-01	 1.23053000E-02
					-3.68768000E-03	 1.26909000E-01	 1.21952000E-02
					-3.48702000E-03	 1.09678000E-01	 1.26824000E-02
					-1.85601000E-03	 1.23209000E-01	 5.49026000E-03
					-3.67150000E-03	 1.25093000E-01	 1.22293000E-02
					-3.52611000E-03	 1.13140000E-01	 1.25790000E-02
					-1.86723000E-03	 1.26828000E-01	 5.36101000E-03
					-3.41032000E-05	 1.30394000E-01	-1.59801000E-03
					 3.65902000E-03	 1.30176000E-01	-1.52869000E-02
					-4.02726000E-05	 1.28557000E-01	-1.54444000E-03
					 3.62734000E-03	 1.28335000E-01	-1.52464000E-02
					-2.84459000E-05	 1.16462000E-01	-1.40389000E-03
					 1.81133000E-03	 1.30292000E-01	-8.43527000E-03
					 3.51380000E-03	 1.16246000E-01	-1.52755000E-02
					-3.72726000E-03	 1.30577000E-01	 1.20911000E-02
					-3.70801000E-03	 1.28736000E-01	 1.21581000E-02
					-3.57148000E-03	 1.16656000E-01	 1.24685000E-02
					-1.87944000E-03	 1.30492000E-01	 5.23924000E-03
					-7.99429000E-05	 1.50054000E-01	-1.74546000E-03
					 3.70508000E-03	 1.49845000E-01	-1.52975000E-02
					-6.34489000E-05	 1.53831000E-01	-1.86132000E-03
					 3.71634000E-03	 1.53632000E-01	-1.54131000E-02
					-6.62391000E-05	 1.36571000E-01	-1.56442000E-03
					 1.81112000E-03	 1.49948000E-01	-8.52919000E-03
					 3.66087000E-03	 1.36358000E-01	-1.51485000E-02
					-7.18598000E-05	 1.51942000E-01	-1.80392000E-03
					 3.71029000E-03	 1.51739000E-01	-1.53509000E-02
					-5.29652000E-05	 1.40303000E-01	-1.67715000E-03
					 1.82560000E-03	 1.53731000E-01	-8.64097000E-03
					 3.69149000E-03	 1.40095000E-01	-1.52590000E-02
					-3.86204000E-03	 1.50240000E-01	 1.18046000E-02
					-3.84246000E-03	 1.54023000E-01	 1.16883000E-02
					-3.79155000E-03	 1.36756000E-01	 1.20188000E-02
					-1.97042000E-03	 1.50146000E-01	 5.03790000E-03
					-3.85188000E-03	 1.52131000E-01	 1.17409000E-02
					-3.79684000E-03	 1.40490000E-01	 1.19036000E-02
					-1.95231000E-03	 1.53926000E-01	 4.91784000E-03
					-4.70555000E-05	 1.57618000E-01	-1.97334000E-03
					 3.73753000E-03	 1.57422000E-01	-1.55342000E-02
					-5.49187000E-05	 1.55726000E-01	-1.91775000E-03
					 3.72773000E-03	 1.55528000E-01	-1.54752000E-02
					-3.94217000E-05	 1.44056000E-01	-1.78742000E-03
					 1.84442000E-03	 1.57519000E-01	-8.75674000E-03
					 3.72750000E-03	 1.43851000E-01	-1.53778000E-02
					-3.83290000E-03	 1.57815000E-01	 1.15854000E-02
					-3.83804000E-03	 1.55920000E-01	 1.16378000E-02
					-3.80678000E-03	 1.44247000E-01	 1.18016000E-02
					-1.93898000E-03	 1.57716000E-01	 4.80930000E-03
					 0.00000000E+00	 0.00000000E+00	 0.00000000E+00
					 0.00000000E+00	 0.00000000E+00	 0.00000000E+00
					-1.18344000E-04	-8.46876000E-03	 1.88432000E-04
					-2.19652000E-03	-9.05828000E-03	 8.71336000E-03
					 0.00000000E+00	 0.00000000E+00	 0.00000000E+00
					 0.00000000E+00	 0.00000000E+00	 0.00000000E+00
					-8.85010000E-05	-1.00099000E-02	 8.35690000E-05
					-1.09701000E-03	-1.06253000E-02	 8.70982000E-03
					 0.00000000E+00	 0.00000000E+00	 0.00000000E+00
					-4.91345000E-05	-1.74152000E-03	 1.03668000E-04
					-1.16265000E-03	-8.57356000E-03	 4.43157000E-03
					-1.81739000E-03	-2.54694000E-03	 4.50431000E-03
					 0.00000000E+00	 0.00000000E+00	 0.00000000E+00
					 0.00000000E+00	 0.00000000E+00	 0.00000000E+00
					-1.00715000E-04	-9.42305000E-03	 1.31827000E-04
					-1.63594000E-03	-1.00221000E-02	 8.61957000E-03
					 0.00000000E+00	 0.00000000E+00	 0.00000000E+00
					-2.37499000E-05	-2.80952000E-03	 4.78259000E-05
					-5.95077000E-04	-1.01196000E-02	 4.28170000E-03
					-5.15808000E-04	-3.59148000E-03	 4.33617000E-03
					 0.00000000E+00	 0.00000000E+00	 0.00000000E+00
					 1.96147000E-03	-8.81797000E-03	-8.36467000E-03
					 0.00000000E+00	 0.00000000E+00	 0.00000000E+00
					 9.32159000E-04	-1.03999000E-02	-8.57078000E-03
					 0.00000000E+00	 0.00000000E+00	 0.00000000E+00
					 1.72396000E-03	-2.41003000E-03	-4.29649000E-03
					 9.25043000E-04	-8.45210000E-03	-4.06540000E-03
					 0.00000000E+00	 0.00000000E+00	 0.00000000E+00
					 1.44233000E-03	-9.78814000E-03	-8.38329000E-03
					 0.00000000E+00	 0.00000000E+00	 0.00000000E+00
					 4.81134000E-04	-3.48396000E-03	-4.23769000E-03
					 4.18943000E-04	-1.00074000E-02	-4.12551000E-03
					 0.00000000E+00	 0.00000000E+00	 0.00000000E+00
					 0.00000000E+00	 0.00000000E+00	 0.00000000E+00
					-7.02090000E-05	-1.04937000E-02	-1.10774000E-06
					-3.00963000E-06	-1.10569000E-02	 8.52951000E-03
					 0.00000000E+00	 0.00000000E+00	 0.00000000E+00
					 0.00000000E+00	 0.00000000E+00	 0.00000000E+00
					-7.73460000E-05	-1.04344000E-02	 3.82239000E-05
					-5.55733000E-04	-1.10201000E-02	 8.71431000E-03
					 0.00000000E+00	 0.00000000E+00	 0.00000000E+00
					-1.38975000E-05	-2.73653000E-03	 1.40416000E-05
					-3.66905000E-05	-1.05825000E-02	 4.05775000E-03
					 8.06952000E-04	-3.47753000E-03	 4.41465000E-03
					 0.00000000E+00	 0.00000000E+00	 0.00000000E+00
					-1.18185000E-04	-1.08586000E-02	-8.55237000E-03
					 0.00000000E+00	 0.00000000E+00	 0.00000000E+00
					 4.14644000E-04	-1.08091000E-02	-8.66353000E-03
					 0.00000000E+00	 0.00000000E+00	 0.00000000E+00
					-8.17088000E-04	-3.39409000E-03	-4.38782000E-03
					-9.83876000E-05	-1.04875000E-02	-4.06680000E-03
					-3.29148000E-04	-3.24279000E-02	 1.25223000E-04
					-3.13343000E-03	-3.31152000E-02	 1.52078000E-02
					-2.94113000E-04	-3.47857000E-02	-6.12376000E-05
					-2.22623000E-03	-3.54724000E-02	 1.50452000E-02
					-2.12591000E-04	-1.88000000E-02	 1.98758000E-04
					-1.73104000E-03	-3.26762000E-02	 7.66406000E-03
					-2.70241000E-03	-1.95017000E-02	 1.22203000E-02
					-3.10979000E-04	-3.37025000E-02	 2.67289000E-05
					-2.67929000E-03	-3.43893000E-02	 1.50848000E-02
					-1.82814000E-04	-2.07993000E-02	 4.91707000E-05
					-1.25643000E-03	-3.50335000E-02	 7.45492000E-03
					-1.68926000E-03	-2.14922000E-02	 1.21020000E-02
					 2.48225000E-03	-3.25630000E-02	-1.49882000E-02
					 1.64259000E-03	-3.49450000E-02	-1.51970000E-02
					 2.27682000E-03	-1.91205000E-02	-1.18556000E-02
					 1.07356000E-03	-3.23993000E-02	-7.42114000E-03
					 2.06586000E-03	-3.38558000E-02	-1.50591000E-02
					 1.33393000E-03	-2.11305000E-02	-1.20357000E-02
					 6.74138000E-04	-3.47715000E-02	-7.58136000E-03
					-2.73167000E-04	-3.62882000E-02	-2.19621000E-04
					-1.31727000E-03	-3.69448000E-02	 1.48631000E-02
					-2.82864000E-04	-3.56315000E-02	-1.41771000E-04
					-1.77000000E-03	-3.63358000E-02	 1.50120000E-02
					-1.64650000E-04	-2.18194000E-02	-7.51697000E-05
					-8.02253000E-04	-3.65159000E-02	 7.22525000E-03
					-6.97553000E-04	-2.25067000E-02	 1.19487000E-02
					 8.08415000E-04	-3.64548000E-02	-1.53320000E-02
					 1.22573000E-03	-3.57951000E-02	-1.53275000E-02
					 3.98374000E-04	-2.21776000E-02	-1.21279000E-02
					 2.66917000E-04	-3.62762000E-02	-7.66757000E-03
					-5.62481000E-04	-6.83871000E-02	-3.20618000E-04
					-3.70055000E-03	-6.90604000E-02	 1.96635000E-02
					-5.23782000E-04	-7.11961000E-02	-5.35921000E-04
					-3.07280000E-03	-7.19773000E-02	 1.94909000E-02
					-4.46415000E-04	-4.90608000E-02	-4.48598000E-05
					-2.12577000E-03	-6.86444000E-02	 9.59535000E-03
					-3.46490000E-03	-4.97681000E-02	 1.77288000E-02
					-5.41146000E-04	-6.98693000E-02	-4.28276000E-04
					-3.38833000E-03	-7.06104000E-02	 1.95538000E-02
					-4.11696000E-04	-5.16871000E-02	-2.54750000E-04
					-1.82251000E-03	-7.15106000E-02	 9.36777000E-03
					-2.67439000E-03	-5.24063000E-02	 1.75560000E-02
					 2.54025000E-03	-6.82239000E-02	-2.03143000E-02
					 2.02800000E-03	-7.10528000E-02	-2.06070000E-02
					 2.56880000E-03	-4.90528000E-02	-1.78475000E-02
					 9.88536000E-04	-6.82346000E-02	-1.02314000E-02
					 2.28316000E-03	-6.97093000E-02	-2.04489000E-02
					 1.85992000E-03	-5.16887000E-02	-1.80947000E-02
					 7.52595000E-04	-7.10574000E-02	-1.04653000E-02
					-4.96672000E-04	-7.34609000E-02	-7.30154000E-04
					-2.54611000E-03	-7.43452000E-02	 1.92500000E-02
					-5.09034000E-04	-7.24149000E-02	-6.38015000E-04
					-2.81116000E-03	-7.31233000E-02	 1.94455000E-02
					-3.78328000E-04	-5.35784000E-02	-4.37111000E-04
					-1.49369000E-03	-7.38303000E-02	 9.07199000E-03
					-1.92778000E-03	-5.43138000E-02	 1.73407000E-02
					 1.51539000E-03	-7.33429000E-02	-2.07807000E-02
					 1.77229000E-03	-7.22657000E-02	-2.07677000E-02
					 1.14180000E-03	-5.35830000E-02	-1.82455000E-02
					 5.03149000E-04	-7.33457000E-02	-1.05812000E-02
					-7.04236000E-04	-1.11814000E-01	-1.09095000E-03
					-4.11207000E-03	-1.12275000E-01	 2.09297000E-02