# vtk DataFile Version 3.0

ASCII
DATASET UNSTRUCTURED_GRID

POINTS 522 double
	 1.00000000E+00	 1.00000000E+00	-5.96046000E-08
	 1.00000000E+00	 5.00000000E-01	-5.96046000E-08
	 1.00000000E+00	 5.00000000E-01	 1.00000000E+00
	 1.00000000E+00	 1.00000000E+00	 1.00000000E+00
	 5.00000000E-01	 1.00000000E+00	-5.96046000E-08
	 5.00000000E-01	 5.00000000E-01	-5.96046000E-08
	 5.00000000E-01	 5.00000000E-01	 1.00000000E+00
	 5.00000000E-01	 1.00000000E+00	 1.00000000E+00
	 1.00000000E+00	 7.50000000E-01	-5.96046000E-08
	 1.00000000E+00	 5.00000000E-01	 5.00000000E-01
	 1.00000000E+00	 7.50000000E-01	 1.00000000E+00
	 1.00000000E+00	 1.00000000E+00	 5.00000000E-01
	 7.50000000E-01	 1.00000000E+00	-5.96046000E-08
	 7.50000000E-01	 5.00000000E-01	-5.96046000E-08
	 7.50000000E-01	 5.00000000E-01	 1.00000000E+00
	 7.50000000E-01	 1.00000000E+00	 1.00000000E+00
	 5.00000000E-01	 7.50000000E-01	-5.96046000E-08
	 5.00000000E-01	 5.00000000E-01	 5.00000000E-01
	 5.00000000E-01	 7.50000000E-01	 1.00000000E+00
	 5.00000000E-01	 1.00000000E+00	 5.00000000E-01
	 1.00000000E+00	-1.49012000E-08	-5.96046000E-08
	 1.00000000E+00	-1.49012000E-08	 1.00000000E+00
	 5.00000000E-01	-1.49012000E-08	-5.96046000E-08
	 5.00000000E-01	-1.49012000E-08	 1.00000000E+00
	 1.00000000E+00	 2.50000000E-01	-5.96046000E-08
	 1.00000000E+00	-1.49012000E-08	 5.00000000E-01
	 1.00000000E+00	 2.50000000E-01	 1.00000000E+00
	 7.50000000E-01	-1.49012000E-08	-5.96046000E-08
	 7.50000000E-01	-1.49012000E-08	 1.00000000E+00
	 5.00000000E-01	 2.50000000E-01	-5.96046000E-08
	 5.00000000E-01	-1.49012000E-08	 5.00000000E-01
	 5.00000000E-01	 2.50000000E-01	 1.00000000E+00
	-7.45058000E-09	 1.00000000E+00	-5.96046000E-08
	-7.45058000E-09	 5.00000000E-01	-5.96046000E-08
	-7.45058000E-09	 5.00000000E-01	 1.00000000E+00
	-7.45058000E-09	 1.00000000E+00	 1.00000000E+00
	 2.50000000E-01	 1.00000000E+00	-5.96046000E-08
	 2.50000000E-01	 5.00000000E-01	-5.96046000E-08
	 2.50000000E-01	 5.00000000E-01	 1.00000000E+00
	 2.50000000E-01	 1.00000000E+00	 1.00000000E+00
	-7.45058000E-09	 7.50000000E-01	-5.96046000E-08
	-7.45058000E-09	 5.00000000E-01	 5.00000000E-01
	-7.45058000E-09	 7.50000000E-01	 1.00000000E+00
	-7.45058000E-09	 1.00000000E+00	 5.00000000E-01
	-7.45058000E-09	-1.49012000E-08	-5.96046000E-08
	-7.45058000E-09	-1.49012000E-08	 1.00000000E+00
	 2.50000000E-01	-1.49012000E-08	-5.96046000E-08
	 2.50000000E-01	-1.49012000E-08	 1.00000000E+00
	-7.45058000E-09	 2.50000000E-01	-5.96046000E-08
	-7.45058000E-09	-1.49012000E-08	 5.00000000E-01
	-7.45058000E-09	 2.50000000E-01	 1.00000000E+00
	 1.00000000E+00	 5.00000000E-01	 2.00000000E+00
	 1.00000000E+00	 1.00000000E+00	 2.00000000E+00
	 5.00000000E-01	 5.00000000E-01	 2.00000000E+00
	 5.00000000E-01	 1.00000000E+00	 2.00000000E+00
	 1.00000000E+00	 5.00000000E-01	 1.50000000E+00
	 1.00000000E+00	 7.50000000E-01	 2.00000000E+00
	 1.00000000E+00	 1.00000000E+00	 1.50000000E+00
	 7.50000000E-01	 5.00000000E-01	 2.00000000E+00
	 7.50000000E-01	 1.00000000E+00	 2.00000000E+00
	 5.00000000E-01	 5.00000000E-01	 1.50000000E+00
	 5.00000000E-01	 7.50000000E-01	 2.00000000E+00
	 5.00000000E-01	 1.00000000E+00	 1.50000000E+00
	 1.00000000E+00	-1.49012000E-08	 2.00000000E+00
	 5.00000000E-01	-1.49012000E-08	 2.00000000E+00
	 1.00000000E+00	-1.49012000E-08	 1.50000000E+00
	 1.00000000E+00	 2.50000000E-01	 2.00000000E+00
	 7.50000000E-01	-1.49012000E-08	 2.00000000E+00
	 5.00000000E-01	-1.49012000E-08	 1.50000000E+00
	 5.00000000E-01	 2.50000000E-01	 2.00000000E+00
	-7.45058000E-09	 5.00000000E-01	 2.00000000E+00
	-7.45058000E-09	 1.00000000E+00	 2.00000000E+00
	 2.50000000E-01	 5.00000000E-01	 2.00000000E+00
	 2.50000000E-01	 1.00000000E+00	 2.00000000E+00
	-7.45058000E-09	 5.00000000E-01	 1.50000000E+00
	-7.45058000E-09	 7.50000000E-01	 2.00000000E+00
	-7.45058000E-09	 1.00000000E+00	 1.50000000E+00
	-7.45058000E-09	-1.49012000E-08	 2.00000000E+00
	 2.50000000E-01	-1.49012000E-08	 2.00000000E+00
	-7.45058000E-09	-1.49012000E-08	 1.50000000E+00
	-7.45058000E-09	 2.50000000E-01	 2.00000000E+00
	 1.00000000E+00	 5.00000000E-01	 3.00000000E+00
	 1.00000000E+00	 1.00000000E+00	 3.00000000E+00
	 5.00000000E-01	 5.00000000E-01	 3.00000000E+00
	 5.00000000E-01	 1.00000000E+00	 3.00000000E+00
	 1.00000000E+00	 5.00000000E-01	 2.50000000E+00
	 1.00000000E+00	 7.50000000E-01	 3.00000000E+00
	 1.00000000E+00	 1.00000000E+00	 2.50000000E+00
	 7.50000000E-01	 5.00000000E-01	 3.00000000E+00
	 7.50000000E-01	 1.00000000E+00	 3.00000000E+00
	 5.00000000E-01	 5.00000000E-01	 2.50000000E+00
	 5.00000000E-01	 7.50000000E-01	 3.00000000E+00
	 5.00000000E-01	 1.00000000E+00	 2.50000000E+00
	 1.00000000E+00	-1.49012000E-08	 3.00000000E+00
	 5.00000000E-01	-1.49012000E-08	 3.00000000E+00
	 1.00000000E+00	-1.49012000E-08	 2.50000000E+00
	 1.00000000E+00	 2.50000000E-01	 3.00000000E+00
	 7.50000000E-01	-1.49012000E-08	 3.00000000E+00
	 5.00000000E-01	-1.49012000E-08	 2.50000000E+00
	 5.00000000E-01	 2.50000000E-01	 3.00000000E+00
	-7.45058000E-09	 5.00000000E-01	 3.00000000E+00
	-7.45058000E-09	 1.00000000E+00	 3.00000000E+00
	 2.50000000E-01	 5.00000000E-01	 3.00000000E+00
	 2.50000000E-01	 1.00000000E+00	 3.00000000E+00
	-7.45058000E-09	 5.00000000E-01	 2.50000000E+00
	-7.45058000E-09	 7.50000000E-01	 3.00000000E+00
	-7.45058000E-09	 1.00000000E+00	 2.50000000E+00
	-7.45058000E-09	-1.49012000E-08	 3.00000000E+00
	 2.50000000E-01	-1.49012000E-08	 3.00000000E+00
	-7.45058000E-09	-1.49012000E-08	 2.50000000E+00
	-7.45058000E-09	 2.50000000E-01	 3.00000000E+00
	 1.00000000E+00	 5.00000000E-01	 4.00000000E+00
	 1.00000000E+00	 1.00000000E+00	 4.00000000E+00
	 5.00000000E-01	 5.00000000E-01	 4.00000000E+00
	 5.00000000E-01	 1.00000000E+00	 4.00000000E+00
	 1.00000000E+00	 5.00000000E-01	 3.50000000E+00
	 1.00000000E+00	 7.50000000E-01	 4.00000000E+00
	 1.00000000E+00	 1.00000000E+00	 3.50000000E+00
	 7.50000000E-01	 5.00000000E-01	 4.00000000E+00
	 7.50000000E-01	 1.00000000E+00	 4.00000000E+00
	 5.00000000E-01	 5.00000000E-01	 3.50000000E+00
	 5.00000000E-01	 7.50000000E-01	 4.00000000E+00
	 5.00000000E-01	 1.00000000E+00	 3.50000000E+00
	 1.00000000E+00	-1.49012000E-08	 4.00000000E+00
	 5.00000000E-01	-1.49012000E-08	 4.00000000E+00
	 1.00000000E+00	-1.49012000E-08	 3.50000000E+00
	 1.00000000E+00	 2.50000000E-01	 4.00000000E+00
	 7.50000000E-01	-1.49012000E-08	 4.00000000E+00
	 5.00000000E-01	-1.49012000E-08	 3.50000000E+00
	 5.00000000E-01	 2.50000000E-01	 4.00000000E+00
	-7.45058000E-09	 5.00000000E-01	 4.00000000E+00
	-7.45058000E-09	 1.00000000E+00	 4.00000000E+00
	 2.50000000E-01	 5.00000000E-01	 4.00000000E+00
	 2.50000000E-01	 1.00000000E+00	 4.00000000E+00
	-7.45058000E-09	 5.00000000E-01	 3.50000000E+00
	-7.45058000E-09	 7.50000000E-01	 4.00000000E+00
	-7.45058000E-09	 1.00000000E+00	 3.50000000E+00
	-7.45058000E-09	-1.49012000E-08	 4.00000000E+00
	 2.50000000E-01	-1.49012000E-08	 4.00000000E+00
	-7.45058000E-09	-1.49012000E-08	 3.50000000E+00
	-7.45058000E-09	 2.50000000E-01	 4.00000000E+00
	 1.00000000E+00	 5.00000000E-01	 5.00000000E+00
	 1.00000000E+00	 1.00000000E+00	 5.00000000E+00
	 5.00000000E-01	 5.00000000E-01	 5.00000000E+00
	 5.00000000E-01	 1.00000000E+00	 5.00000000E+00
	 1.00000000E+00	 5.00000000E-01	 4.50000000E+00
	 1.00000000E+00	 7.50000000E-01	 5.00000000E+00
	 1.00000000E+00	 1.00000000E+00	 4.50000000E+00
	 7.50000000E-01	 5.00000000E-01	 5.00000000E+00
	 7.50000000E-01	 1.00000000E+00	 5.00000000E+00
	 5.00000000E-01	 5.00000000E-01	 4.50000000E+00
	 5.00000000E-01	 7.50000000E-01	 5.00000000E+00
	 5.00000000E-01	 1.00000000E+00	 4.50000000E+00
	 1.00000000E+00	-1.49012000E-08	 5.00000000E+00
	 5.00000000E-01	-1.49012000E-08	 5.00000000E+00
	 1.00000000E+00	-1.49012000E-08	 4.50000000E+00
	 1.00000000E+00	 2.50000000E-01	 5.00000000E+00
	 7.50000000E-01	-1.49012000E-08	 5.00000000E+00
	 5.00000000E-01	-1.49012000E-08	 4.50000000E+00
	 5.00000000E-01	 2.50000000E-01	 5.00000000E+00
	-7.45058000E-09	 5.00000000E-01	 5.00000000E+00
	-7.45058000E-09	 1.00000000E+00	 5.00000000E+00
	 2.50000000E-01	 5.00000000E-01	 5.00000000E+00
	 2.50000000E-01	 1.00000000E+00	 5.00000000E+00
	-7.45058000E-09	 5.00000000E-01	 4.50000000E+00
	-7.45058000E-09	 7.50000000E-01	 5.00000000E+00
	-7.45058000E-09	 1.00000000E+00	 4.50000000E+00
	-7.45058000E-09	-1.49012000E-08	 5.00000000E+00
	 2.50000000E-01	-1.49012000E-08	 5.00000000E+00
	-7.45058000E-09	-1.49012000E-08	 4.50000000E+00
	-7.45058000E-09	 2.50000000E-01	 5.00000000E+00
	 1.00000000E+00	 5.00000000E-01	 6.00000000E+00
	 1.00000000E+00	 1.00000000E+00	 6.00000000E+00
	 5.00000000E-01	 5.00000000E-01	 6.00000000E+00
	 5.00000000E-01	 1.00000000E+00	 6.00000000E+00
	 1.00000000E+00	 5.00000000E-01	 5.50000000E+00
	 1.00000000E+00	 7.50000000E-01	 6.00000000E+00
	 1.00000000E+00	 1.00000000E+00	 5.50000000E+00
	 7.50000000E-01	 5.00000000E-01	 6.00000000E+00
	 7.50000000E-01	 1.00000000E+00	 6.00000000E+00
	 5.00000000E-01	 5.00000000E-01	 5.50000000E+00
	 5.00000000E-01	 7.50000000E-01	 6.00000000E+00
	 5.00000000E-01	 1.00000000E+00	 5.50000000E+00
	 1.00000000E+00	-1.49012000E-08	 6.00000000E+00
	 5.00000000E-01	-1.49012000E-08	 6.00000000E+00
	 1.00000000E+00	-1.49012000E-08	 5.50000000E+00
	 1.00000000E+00	 2.50000000E-01	 6.00000000E+00
	 7.50000000E-01	-1.49012000E-08	 6.00000000E+00
	 5.00000000E-01	-1.49012000E-08	 5.50000000E+00
	 5.00000000E-01	 2.50000000E-01	 6.00000000E+00
	-7.45058000E-09	 5.00000000E-01	 6.00000000E+00
	-7.45058000E-09	 1.00000000E+00	 6.00000000E+00
	 2.50000000E-01	 5.00000000E-01	 6.00000000E+00
	 2.50000000E-01	 1.00000000E+00	 6.00000000E+00
	-7.45058000E-09	 5.00000000E-01	 5.50000000E+00
	-7.45058000E-09	 7.50000000E-01	 6.00000000E+00
	-7.45058000E-09	 1.00000000E+00	 5.50000000E+00
	-7.45058000E-09	-1.49012000E-08	 6.00000000E+00
	 2.50000000E-01	-1.49012000E-08	 6.00000000E+00
	-7.45058000E-09	-1.49012000E-08	 5.50000000E+00
	-7.45058000E-09	 2.50000000E-01	 6.00000000E+00
	 1.00000000E+00	 5.00000000E-01	 7.00000000E+00
[...]
POINT_DATA 522
FIELD U 1
	U 3 522 double
		 0.00000000E+00	 0.00000000E+00	 0.00000000E+00
		 0.00000000E+00	 0.00000000E+00	 0.00000000E+00
		-2.04104000E-05	 1.35632000E-04	 4.88476000E-05
		-1.92249000E-04	 1.74059000E-04	-2.42132000E-04
		 0.00000000E+00	 0.00000000E+00	 0.00000000E+00
		 0.00000000E+00	 0.00000000E+00	 0.00000000E+00
		-1.28657000E-05	-9.22382000E-05	 4.88499000E-05
		-2.90224000E-04	-4.87955000E-05	-2.29527000E-04
		 0.00000000E+00	 0.00000000E+00	 0.00000000E+00
		-1.69932000E-05	-2.71090000E-05	 2.46773000E-05
		-1.07371000E-04	 1.41764000E-04	-9.61320000E-05
		-6.16632000E-05	-1.26235000E-05	-4.48962000E-05
		 0.00000000E+00	 0.00000000E+00	 0.00000000E+00
		 0.00000000E+00	 0.00000000E+00	 0.00000000E+00
		-1.69079000E-05	 3.37645000E-05	 4.84248000E-05
		-2.41049000E-04	 7.65030000E-05	-2.64478000E-04
		 0.00000000E+00	 0.00000000E+00	 0.00000000E+00
		-9.36469000E-06	-9.83536000E-05	 2.13334000E-05
		-1.50905000E-04	-8.28371000E-05	-1.19873000E-04
		-1.03317000E-04	-7.81013000E-05	-3.72732000E-05
		 0.00000000E+00	 0.00000000E+00	 0.00000000E+00
		 1.53583000E-04	 1.89103000E-04	 3.38930000E-04
		 0.00000000E+00	 0.00000000E+00	 0.00000000E+00
		 2.65334000E-04	-3.43623000E-05	 3.26337000E-04
		 0.00000000E+00	 0.00000000E+00	 0.00000000E+00
		 2.90820000E-05	 3.43814000E-06	 9.67462000E-05
		 6.71993000E-05	 1.49635000E-04	 1.93121000E-04
		 0.00000000E+00	 0.00000000E+00	 0.00000000E+00
		 2.09062000E-04	 9.08105000E-05	 3.60464000E-04
		 0.00000000E+00	 0.00000000E+00	 0.00000000E+00
		 8.54204000E-05	-6.35254000E-05	 8.23653000E-05
		 1.25519000E-04	-7.58681000E-05	 2.16943000E-04
		 0.00000000E+00	 0.00000000E+00	 0.00000000E+00
		 0.00000000E+00	 0.00000000E+00	 0.00000000E+00
		-3.84023000E-06	-4.19895000E-04	 4.89074000E-05
		-3.78028000E-04	-3.72587000E-04	-2.42093000E-04
		 0.00000000E+00	 0.00000000E+00	 0.00000000E+00
		 0.00000000E+00	 0.00000000E+00	 0.00000000E+00
		-8.32864000E-06	-2.42584000E-04	 4.89611000E-05
		-3.33717000E-04	-1.99426000E-04	-1.89568000E-04
		 0.00000000E+00	 0.00000000E+00	 0.00000000E+00
		-1.38100000E-06	-2.15783000E-04	 2.11403000E-05
		-1.92583000E-04	-4.08283000E-04	-1.70490000E-04
		-1.28708000E-04	-1.84443000E-04	-4.86700000E-05
		 0.00000000E+00	 0.00000000E+00	 0.00000000E+00
		 3.69379000E-04	-3.57407000E-04	 3.38993000E-04
		 0.00000000E+00	 0.00000000E+00	 0.00000000E+00
		 3.16891000E-04	-1.84816000E-04	 2.86666000E-04
		 0.00000000E+00	 0.00000000E+00	 0.00000000E+00
		 1.25855000E-04	-1.69816000E-04	 9.31242000E-05
		 1.84523000E-04	-4.00941000E-04	 2.67631000E-04
		-1.98494000E-05	 1.93728000E-03	 9.53965000E-05
		-6.75780000E-04	 2.02025000E-03	-1.23990000E-03
		-1.12891000E-05	 1.18095000E-03	 9.65616000E-05
		-8.62168000E-04	 1.26693000E-03	-1.23563000E-03
		-1.94020000E-05	 7.20040000E-04	 7.25969000E-05
		-3.48666000E-04	 1.95398000E-03	-5.34773000E-04
		-4.08504000E-04	 7.81670000E-04	-6.69573000E-04
		-1.58210000E-05	 1.58396000E-03	 9.59599000E-05
		-7.68927000E-04	 1.66880000E-03	-1.27999000E-03
		-1.09702000E-05	 2.46892000E-04	 7.33824000E-05
		-4.36796000E-04	 1.19861000E-03	-5.74295000E-04
		-5.62299000E-04	 3.13112000E-04	-6.58042000E-04
		 6.36554000E-04	 2.03842000E-03	 1.42959000E-03
		 8.38822000E-04	 1.28498000E-03	 1.42802000E-03
		 3.71273000E-04	 7.98656000E-04	 8.14089000E-04
		 3.09113000E-04	 1.96266000E-03	 7.25589000E-04
		 7.37406000E-04	 1.68697000E-03	 1.47061000E-03
		 5.40773000E-04	 3.28249000E-04	 8.04320000E-04
		 4.13999000E-04	 1.20736000E-03	 7.67310000E-04
		-2.51142000E-06	 2.35892000E-04	 9.76173000E-05
		-1.04817000E-03	 3.17531000E-04	-1.23737000E-03
		-6.73244000E-06	 7.32599000E-04	 9.71766000E-05
		-9.55580000E-04	 8.18520000E-04	-1.19238000E-03
		-2.32651000E-06	-3.83187000E-04	 7.43084000E-05
		-5.23272000E-04	 2.51314000E-04	-6.18687000E-04
		-7.13083000E-04	-3.18483000E-04	-6.67583000E-04
		 1.04120000E-03	 3.38200000E-04	 1.43216000E-03
		 9.40423000E-04	 8.37320000E-04	 1.38645000E-03
		 7.07668000E-04	-3.02247000E-04	 8.15969000E-04
		 5.17807000E-04	 2.61901000E-04	 8.13696000E-04
		-1.98666000E-05	 6.45005000E-03	 1.24259000E-04
		-1.23259000E-03	 6.51873000E-03	-2.45600000E-03
		-1.22299000E-05	 5.14524000E-03	 1.32501000E-04
		-1.40431000E-03	 5.21714000E-03	-2.45133000E-03
		-2.13075000E-05	 3.86872000E-03	 1.12439000E-04
		-6.27150000E-04	 6.46198000E-03	-1.12180000E-03
		-9.60721000E-04	 3.94996000E-03	-1.85779000E-03
		-1.62216000E-05	 5.81965000E-03	 1.28736000E-04
		-1.31845000E-03	 5.89101000E-03	-2.49183000E-03
		-1.33085000E-05	 2.83597000E-03	 1.16612000E-04
		-7.07777000E-04	 5.15875000E-03	-1.15371000E-03
		-1.14001000E-03	 2.91620000E-03	-1.85619000E-03
		 1.19215000E-03	 6.54697000E-03	 2.70483000E-03
		 1.37943000E-03	 5.24698000E-03	 2.71611000E-03
		 9.17183000E-04	 3.97078000E-03	 2.08215000E-03
		 5.87275000E-04	 6.47569000E-03	 1.37047000E-03
		 1.28554000E-03	 5.92040000E-03	 2.74944000E-03
		 1.11216000E-03	 2.93892000E-03	 2.08872000E-03
		 6.83333000E-04	 5.17356000E-03	 1.41875000E-03
		-3.39940000E-06	 3.66593000E-03	 1.40150000E-04
		-1.56874000E-03	 3.73901000E-03	-2.44101000E-03
		-7.97089000E-06	 4.42800000E-03	 1.36040000E-04
		-1.48650000E-03	 4.50029000E-03	-2.41169000E-03
		-4.35772000E-06	 1.61598000E-03	 1.20376000E-04
		-7.85894000E-04	 3.68006000E-03	-1.17974000E-03
		-1.32149000E-03	 1.69140000E-03	-1.85020000E-03
		 1.56156000E-03	 3.77038000E-03	 2.72053000E-03
		 1.47014000E-03	 4.53058000E-03	 2.68300000E-03
		 1.31084000E-03	 1.71752000E-03	 2.09018000E-03
		 7.79122000E-04	 3.69593000E-03	 1.46008000E-03
		-2.08743000E-05	 1.35926000E-02	 1.39327000E-04
		-2.02267000E-03	 1.36269000E-02	-3.47576000E-03
		-1.20842000E-05	 1.15239000E-02	 1.51066000E-04
		-2.14239000E-03	 1.15626000E-02	-3.47090000E-03
		-1.78735000E-05	 9.69051000E-03	 1.33789000E-04
		-1.02263000E-03	 1.35944000E-02	-1.57868000E-03
		-1.56238000E-03	 9.73891000E-03	-3.00125000E-03
		-1.63104000E-05	 1.25730000E-02	 1.45163000E-04
		-2.08219000E-03	 1.26106000E-02	-3.54916000E-03
		-1.02264000E-05	 8.05924000E-03	 1.43941000E-04
		-1.07652000E-03	 1.15276000E-02	-1.64518000E-03
		-1.71815000E-03	 8.11594000E-03	-2.99710000E-03
		 1.97993000E-03	 1.36752000E-02	 3.75368000E-03
		 2.11922000E-03	 1.16121000E-02	 3.77223000E-03
		 1.52642000E-03	 9.77741000E-03	 3.26911000E-03
		 9.80548000E-04	 1.36177000E-02	 1.85734000E-03
		 2.04938000E-03	 1.26609000E-02	 3.83846000E-03
		 1.69840000E-03	 8.15496000E-03	 3.28481000E-03
		 1.05275000E-03	 1.15527000E-02	 1.94712000E-03
		-2.58179000E-06	 9.33099000E-03	 1.63444000E-04
		-2.25019000E-03	 9.37708000E-03	-3.45168000E-03
		-7.66989000E-06	 1.04435000E-02	 1.57074000E-04
		-2.19595000E-03	 1.04837000E-02	-3.39494000E-03
		-1.72316000E-06	 6.27390000E-03	 1.53923000E-04
		-1.12844000E-03	 9.33867000E-03	-1.69682000E-03
		-1.85761000E-03	 6.33783000E-03	-2.98184000E-03
		 2.24768000E-03	 9.42407000E-03	 3.77760000E-03
		 2.18281000E-03	 1.05316000E-02	 3.70829000E-03
		 1.85574000E-03	 6.37565000E-03	 3.28903000E-03
		 1.12403000E-03	 9.36289000E-03	 2.02344000E-03
		-3.67361000E-05	 2.27509000E-02	 1.35394000E-04
		-3.21690000E-03	 2.27675000E-02	-4.14077000E-03
		-2.22518000E-05	 1.95286000E-02	 1.53778000E-04
		-3.29296000E-03	 1.95413000E-02	-4.11837000E-03
		-2.75291000E-05	 1.80185000E-02	 1.39308000E-04
		-1.62517000E-03	 2.27497000E-02	-1.92078000E-03
		-2.59740000E-03	 1.80413000E-02	-3.83053000E-03
		-2.92844000E-05	 2.11508000E-02	 1.44812000E-04
		-3.25520000E-03	 2.11630000E-02	-4.21825000E-03
		-1.62152000E-05	 1.53990000E-02	 1.54360000E-04
		-1.65765000E-03	 1.95248000E-02	-1.98957000E-03
		-2.68430000E-03	 1.54228000E-02	-3.81936000E-03
		 3.14126000E-03	 2.28356000E-02	 4.40958000E-03
		 3.24881000E-03	 1.96108000E-02	 4.42399000E-03
		 2.54054000E-03	 1.80986000E-02	 4.10781000E-03
		 1.55100000E-03	 2.27825000E-02	 2.19122000E-03
		 3.19534000E-03	 2.12339000E-02	 4.50571000E-03
		 2.65255000E-03	 1.54819000E-02	 4.12665000E-03
		 1.61320000E-03	 1.95603000E-02	 2.29667000E-03
		-8.16075000E-06	 1.62090000E-02	 1.71365000E-04
		-3.36964000E-03	 1.62260000E-02	-4.10445000E-03
		-1.53022000E-05	 1.78796000E-02	 1.62543000E-04
		-3.33096000E-03	 1.78939000E-02	-4.01767000E-03
		-4.62680000E-06	 1.26814000E-02	 1.69914000E-04
		-1.69040000E-03	 1.62064000E-02	-2.06696000E-03
		-2.76185000E-03	 1.27138000E-02	-3.79982000E-03
		 3.35621000E-03	 1.62923000E-02	 4.44520000E-03
		 3.30236000E-03	 1.79609000E-02	 4.34108000E-03
		 2.75548000E-03	 1.27699000E-02	 4.13797000E-03
		 1.67493000E-03	 1.62414000E-02	 2.40907000E-03
		-7.13968000E-05	 3.29677000E-02	 1.06349000E-04
		-4.28773000E-03	 3.30120000E-02	-5.04333000E-03
		-5.33019000E-05	 2.86691000E-02	 1.30608000E-04
		-4.43853000E-03	 2.87074000E-02	-5.01185000E-03
		-5.10435000E-05	 2.76854000E-02	 1.26247000E-04
		-2.17916000E-03	 3.29674000E-02	-2.41704000E-03
		-3.78890000E-03	 2.77186000E-02	-4.52615000E-03
		-6.21213000E-05	 3.08415000E-02	 1.18549000E-04
		-4.36344000E-03	 3.08811000E-02	-5.09302000E-03
		-3.47004000E-05	 2.38896000E-02	 1.46994000E-04
		-2.24627000E-03	 2.86640000E-02	-2.45557000E-03
		-3.89633000E-03	 2.39158000E-02	-4.49508000E-03
		 4.13942000E-03	 3.31027000E-02	 5.25362000E-03
		 4.32955000E-03	 2.88048000E-02	 5.27071000E-03
		 3.68309000E-03	 2.77966000E-02	 4.77562000E-03
		 2.03487000E-03	 3.30115000E-02	 2.62942000E-03
		 4.23476000E-03	 3.09773000E-02	 5.32748000E-03
		 3.82592000E-03	 2.39974000E-02	 4.78652000E-03
		 2.13901000E-03	 2.87136000E-02	 2.71627000E-03
		-3.38356000E-05	 2.42002000E-02	 1.54600000E-04
		-4.59873000E-03	 2.42294000E-02	-4.99369000E-03
		-4.41491000E-05	 2.64567000E-02	 1.42584000E-04
		-4.51931000E-03	 2.64935000E-02	-4.92682000E-03
		-1.81027000E-05	 1.99633000E-02	 1.66410000E-04
		-2.31397000E-03	 2.41901000E-02	-2.50897000E-03
		-4.01252000E-03	 1.99860000E-02	-4.48489000E-03
		 4.53201000E-03	 2.43282000E-02	 5.30074000E-03
		 4.43070000E-03	 2.65907000E-02	 5.20981000E-03
		 3.97816000E-03	 2.00665000E-02	 4.81566000E-03
		 2.24667000E-03	 2.42415000E-02	 2.81769000E-03
		-1.29093000E-04	 4.53421000E-02	 3.69979000E-05
		-5.13309000E-03	 4.53582000E-02	-6.33999000E-03
		-1.04858000E-04	 4.02682000E-02	 6.63689000E-05
		-5.25715000E-03	 4.02764000E-02	-6.31973000E-03
		-9.62242000E-05	 3.88272000E-02	 7.53445000E-05
		-2.63026000E-03	 4.53306000E-02	-3.08147000E-03
		-4.73628000E-03	 3.88589000E-02	-5.70150000E-03
		-1.16551000E-04	 4.28256000E-02	 5.16236000E-05
		-5.19501000E-03	 4.28358000E-02	-6.37730000E-03
		-7.52842000E-05	 3.40991000E-02	 1.03558000E-04
		-2.68193000E-03	 4.02513000E-02	-3.10108000E-03
		-4.89608000E-03	 3.41247000E-02	-5.67424000E-03
		 4.87104000E-03	 4.54936000E-02	 6.41057000E-03
		 5.04628000E-03	 4.04161000E-02	 6.44918000E-03
		 4.53848000E-03	 3.89709000E-02	 5.85070000E-03
		 2.37094000E-03	 4.53970000E-02	 3.15414000E-03
		 4.95898000E-03	 4.29753000E-02	 6.47734000E-03
		 4.74365000E-03	 3.42435000E-02	 5.87939000E-03
		 2.47186000E-03	 4.03216000E-02	 3.23282000E-03
		-8.01068000E-05	 3.50394000E-02	 9.85301000E-05
		-5.39517000E-03	 3.50383000E-02	-6.27261000E-03
		-9.30571000E-05	 3.76736000E-02	 8.19181000E-05
		-5.32749000E-03	 3.76800000E-02	-6.26434000E-03
		-5.31546000E-05	 2.91887000E-02	 1.32910000E-04
		-2.73604000E-03	 3.50178000E-02	-3.09433000E-03
		-5.06819000E-03	 2.92029000E-02	-5.64202000E-03
		 5.23695000E-03	 3.51769000E-02	 6.46673000E-03
		 5.14207000E-03	 3.78188000E-02	 6.42521000E-03
		 4.96374000E-03	 2.93220000E-02	 5.90567000E-03
		 2.57648000E-03	 3.50879000E-02	 3.29044000E-03
		-2.23856000E-04	 5.94054000E-02	-5.48395000E-05
		-5.64482000E-03	 5.93650000E-02	-6.92036000E-03
		-1.91368000E-04	 5.39958000E-02	-2.72915000E-05
		-5.61271000E-03	 5.39393000E-02	-6.90336000E-03
		-1.73910000E-04	 5.23659000E-02	-7.29512000E-06
		-2.93420000E-03	 5.93873000E-02	-3.46025000E-03
		-5.45822000E-03	 5.23344000E-02	-6.74789000E-03
		-2.07746000E-04	 5.67035000E-02	-4.20269000E-05
		-5.62674000E-03	 5.66539000E-02	-6.92510000E-03
		-1.46104000E-04	 4.70503000E-02	 2.08581000E-05
		-2.90032000E-03	 5.39702000E-02	-3.44656000E-03
		-5.50352000E-03	 4.70095000E-02	-6.73079000E-03
		 5.19697000E-03	 5.95123000E-02	 6.80328000E-03
		 5.22777000E-03	 5.40871000E-02	 6.84240000E-03
		 5.10929000E-03	 5.24834000E-02	 6.72699000E-03
		 2.48600000E-03	 5.94595000E-02	 3.34840000E-03
		 5.21014000E-03	 5.68011000E-02	 6.83397000E-03
		 5.20986000E-03	 4.71601000E-02	 6.76718000E-03
		 2.51672000E-03	 5.40430000E-02	 3.39001000E-03
		-1.59579000E-04	 4.85453000E-02	 6.29298000E-06
		-5.59787000E-03	 4.84795000E-02	-6.83836000E-03
		-1.75110000E-04	 5.12677000E-02	-1.07147000E-05
		-5.60791000E-03	 5.12105000E-02	-6.87601000E-03
		-1.18096000E-04	 4.16523000E-02	 5.39035000E-05
		-2.87334000E-03	 4.85136000E-02	-3.39301000E-03
		-5.56099000E-03	 4.16013000E-02	-6.67197000E-03
		 5.27496000E-03	 4.86312000E-02	 6.84538000E-03
		 5.25434000E-03	 5.13600000E-02	 6.84910000E-03
		 5.32398000E-03	 4.17528000E-02	 6.77554000E-03
		 2.55306000E-03	 4.85887000E-02	 3.40342000E-03
		 0.00000000E+00	 0.00000000E+00	 0.00000000E+00
		 0.00000000E+00	 0.00000000E+00	 0.00000000E+00
		-4.61315000E-05	-3.43059000E-03	-1.67191000E-04
		-2.20948000E-03	-3.62017000E-03	 3.95242000E-03
		 0.00000000E+00	 0.00000000E+00	 0.00000000E+00
		 0.00000000E+00	 0.00000000E+00	 0.00000000E+00
		-7.17477000E-05	-5.37200000E-03	-2.36967000E-04
		-1.78674000E-03	-5.56875000E-03	 3.94952000E-03
		 0.00000000E+00	 0.00000000E+00	 0.00000000E+00
		 5.37128000E-06	-4.82530000E-04	-7.29706000E-05
		-1.13096000E-03	-3.43849000E-03	 1.94365000E-03
		-1.46801000E-03	-8.37384000E-04	 2.13677000E-03
		 0.00000000E+00	 0.00000000E+00	 0.00000000E+00
		 0.00000000E+00	 0.00000000E+00	 0.00000000E+00
		-5.74876000E-05	-4.48570000E-03	-2.03788000E-04
		-1.99228000E-03	-4.67539000E-03	 3.81352000E-03
		 0.00000000E+00	 0.00000000E+00	 0.00000000E+00
		-2.32586000E-05	-1.63577000E-03	-1.02209000E-04
		-9.30261000E-04	-5.37826000E-03	 1.76588000E-03
		-9.01189000E-04	-1.95887000E-03	 2.05975000E-03
		 0.00000000E+00	 0.00000000E+00	 0.00000000E+00
		 2.12128000E-03	-3.62502000E-03	-4.29228000E-03
		 0.00000000E+00	 0.00000000E+00	 0.00000000E+00
		 1.65094000E-03	-5.58764000E-03	-4.42639000E-03
		 0.00000000E+00	 0.00000000E+00	 0.00000000E+00
		 1.48706000E-03	-8.67873000E-04	-2.29698000E-03
		 1.03825000E-03	-3.44020000E-03	-2.27847000E-03
		 0.00000000E+00	 0.00000000E+00	 0.00000000E+00
		 1.88351000E-03	-4.68790000E-03	-4.22511000E-03
		 0.00000000E+00	 0.00000000E+00	 0.00000000E+00
		 8.64047000E-04	-2.01014000E-03	-2.27835000E-03
		 7.86770000E-04	-5.38884000E-03	-2.23981000E-03
		 0.00000000E+00	 0.00000000E+00	 0.00000000E+00
		 0.00000000E+00	 0.00000000E+00	 0.00000000E+00
		-1.03000000E-04	-6.86612000E-03	-2.97760000E-04
		-1.35598000E-03	-7.03150000E-03	 3.82632000E-03
		 0.00000000E+00	 0.00000000E+00	 0.00000000E+00
		 0.00000000E+00	 0.00000000E+00	 0.00000000E+00
		-8.58614000E-05	-6.20126000E-03	-2.66768000E-04
		-1.57312000E-03	-6.38136000E-03	 4.04436000E-03
		 0.00000000E+00	 0.00000000E+00	 0.00000000E+00
		-6.18318000E-05	-2.24672000E-03	-1.38919000E-04
		-7.32323000E-04	-6.85885000E-03	 1.52223000E-03
		-2.85564000E-04	-2.52340000E-03	 2.07094000E-03
		 0.00000000E+00	 0.00000000E+00	 0.00000000E+00
		 1.15726000E-03	-7.05858000E-03	-4.42068000E-03
		 0.00000000E+00	 0.00000000E+00	 0.00000000E+00
		 1.40759000E-03	-6.40800000E-03	-4.57892000E-03
		 0.00000000E+00	 0.00000000E+00	 0.00000000E+00
		 1.69191000E-04	-2.59105000E-03	-2.36384000E-03
		 5.29040000E-04	-6.87635000E-03	-2.11608000E-03
		-1.84558000E-04	-1.38950000E-02	-4.03386000E-04
		-3.52307000E-03	-1.39885000E-02	 5.92847000E-03
		-1.99627000E-04	-1.71432000E-02	-5.05473000E-04
		-3.37102000E-03	-1.72398000E-02	 5.86536000E-03
		-1.12902000E-04	-8.03341000E-03	-2.77329000E-04
		-1.85328000E-03	-1.39278000E-02	 2.75958000E-03
		-2.92598000E-03	-8.20850000E-03	 5.20216000E-03
		-1.92884000E-04	-1.55328000E-02	-4.57702000E-04
		-3.44789000E-03	-1.56266000E-02	 5.82547000E-03
		-1.34361000E-04	-1.06743000E-02	-3.68097000E-04
		-1.78030000E-03	-1.71762000E-02	 2.60764000E-03
		-2.60773000E-03	-1.08526000E-02	 5.14794000E-03
		 3.15641000E-03	-1.39397000E-02	-6.73703000E-03
		 2.96578000E-03	-1.71988000E-02	-6.87582000E-03
		 2.70441000E-03	-8.18612000E-03	-5.76310000E-03
		 1.48456000E-03	-1.39031000E-02	-3.56716000E-03
		 3.06287000E-03	-1.55883000E-02	-6.74003000E-03
		 2.34217000E-03	-1.08404000E-02	-5.88829000E-03
		 1.38428000E-03	-1.71579000E-02	-3.61604000E-03
		-2.19788000E-04	-2.02298000E-02	-6.01823000E-04
		-3.20811000E-03	-2.03122000E-02	 5.72982000E-03
		-2.09748000E-04	-1.86986000E-02	-5.51765000E-04
		-3.28867000E-03	-1.88196000E-02	 5.90875000E-03
		-1.60287000E-04	-1.29835000E-02	-4.51878000E-04
		-1.71933000E-03	-2.02523000E-02	 2.38582000E-03
		-2.30758000E-03	-1.31618000E-02	 5.02961000E-03
		 2.78982000E-03	-2.02860000E-02	-6.93210000E-03
		 2.87746000E-03	-1.87560000E-02	-7.01368000E-03
		 1.99812000E-03	-1.31637000E-02	-5.93400000E-03
		 1.28580000E-03	-2.02433000E-02	-3.58548000E-03
		-2.85114000E-04	-2.67576000E-02	-6.83984000E-04
		-4.62143000E-03	-2.66388000E-02	 5.52059000E-03
		-2.88159000E-04	-3.11411000E-02	-7.55422000E-04
		-4.78474000E-03	-3.11439000E-02	 5.48151000E-03
		-2.45024000E-04	-2.03588000E-02	-5.42296000E-04
		-2.44667000E-03	-2.67200000E-02	 2.42340000E-03
		-4.08073000E-03	-2.03741000E-02	 6.00966000E-03
		-2.86333000E-04	-2.89293000E-02	-7.15907000E-04
		-4.70715000E-03	-2.88854000E-02	 5.41935000E-03
		-2.55141000E-04	-2.41930000E-02	-6.38485000E-04
		-2.56000000E-03	-3.11697000E-02	 2.27287000E-03
		-4.10295000E-03	-2.42224000E-02	 5.95728000E-03
		 4.00424000E-03	-2.66285000E-02	-6.86579000E-03
		 4.19704000E-03	-3.10241000E-02	-7.00349000E-03
		 3.57938000E-03	-2.03228000E-02	-7.08998000E-03
		 1.86120000E-03	-2.67174000E-02	-3.77766000E-03
		 4.09822000E-03	-2.88006000E-02	-6.85745000E-03
		 3.58912000E-03	-2.41472000E-02	-7.23036000E-03
		 1.95722000E-03	-3.11126000E-02	-3.80190000E-03
		-2.90854000E-04	-3.57226000E-02	-8.31512000E-04
		-5.05336000E-03	-3.58595000E-02	 5.37072000E-03
		-2.89680000E-04	-3.34224000E-02	-7.95284000E-04
		-4.92238000E-03	-3.33620000E-02	 5.55394000E-03
		-2.55685000E-04	-2.80427000E-02	-7.32445000E-04
		-2.63921000E-03	-3.58223000E-02	 2.04882000E-03
		-4.15102000E-03	-2.81034000E-02	 5.82299000E-03
		 4.42002000E-03	-3.56329000E-02	-7.07127000E-03
		 4.30789000E-03	-3.32980000E-02	-7.15577000E-03
		 3.59456000E-03	-2.79891000E-02	-7.28611000E-03
		 2.05698000E-03	-3.57165000E-02	-3.75491000E-03
		-2.43492000E-04	-3.72193000E-02	-9.41740000E-04
		-5.14508000E-03	-3.68661000E-02	 2.82796000E-03
		-2.47093000E-04	-4.24109000E-02	-9.29659000E-04
		-5.76682000E-03	-4.25368000E-02	 2.85538000E-03
		-3.15395000E-04	-3.25252000E-02	-8.16398000E-04
		-2.69193000E-03	-3.71073000E-02	 9.11988000E-04
		-5.02272000E-03	-3.23776000E-02	 4.39090000E-03
		-2.45717000E-04	-3.97146000E-02	-9.35397000E-04
		-5.44829000E-03	-3.95495000E-02	 2.84425000E-03
		-3.22750000E-04	-3.74380000E-02	-8.96296000E-04
		-2.88299000E-03	-4.25255000E-02	 9.31651000E-04
		-5.43314000E-03	-3.72560000E-02	 4.42124000E-03
		 4.47319000E-03	-3.69671000E-02	-4.70555000E-03
		 4.96047000E-03	-4.19969000E-02	-4.70729000E-03
		 4.35416000E-03	-3.23224000E-02	-6.01335000E-03
		 2.11520000E-03	-3.71644000E-02	-2.79331000E-03
		 4.71944000E-03	-3.94129000E-02	-4.70926000E-03
		 4.70922000E-03	-3.71939000E-02	-6.10082000E-03
		 2.34762000E-03	-4.22481000E-02	-2.78958000E-03
		-3.77138000E-04	-4.81324000E-02	-9.21728000E-04
		-6.26563000E-03	-4.86483000E-02	 2.84940000E-03
		-3.12083000E-04	-4.51699000E-02	-9.25076000E-04
		-6.01679000E-03	-4.60067000E-02	 2.86797000E-03
		-3.44988000E-04	-4.27212000E-02	-1.00768000E-03
		-3.43217000E-03	-4.84285000E-02	 9.18633000E-04
		-5.70432000E-03	-4.24487000E-02	 4.33379000E-03
		 5.49842000E-03	-4.75628000E-02	-4.68379000E-03