<?xml version="1.0"?>
<VTKFile type="UnstructuredGrid" version="0.1" byte_order="LittleEndian">
	<UnstructuredGrid>
		<Piece NumberOfPoints="522" NumberOfCells="64">
			<Points>
				<DataArray type="Float64" NumberOfComponents="3" format="ascii">
					 1.00000000E+00	 1.00000000E+00	-5.96046000E-08
					 1.00000000E+00	 5.00000000E-01	-5.96046000E-08
					 1.00000000E+00	 5.00000000E-01	 1.00000000E+00
					 1.00000000E+00	 1.00000000E+00	 1.00000000E+00
					 5.00000000E-01	 1.00000000E+00	-5.96046000E-08
					 5.00000000E-01	 5.00000000E-01	-5.96046000E-08
					 5.00000000E-01	 5.00000000E-01	 1.00000000E+00
					 5.00000000E-01	 1.00000000E+00	 1.00000000E+00
					 1.00000000E+00	 7.50000000E-01	-5.96046000E-08
					 1.00000000E+00	 5.00000000E-01	 5.00000000E-01
					 1.00000000E+00	 7.50000000E-01	 1.00000000E+00
					 1.00000000E+00	 1.00000000E+00	 5.00000000E-01
					 7.50000000E-01	 1.00000000E+00	-5.96046000E-08
					 7.50000000E-01	 5.00000000E-01	-5.96046000E-08
					 7.50000000E-01	 5.00000000E-01	 1.00000000E+00
					 7.50000000E-01	 1.00000000E+00	 1.00000000E+00
					 5.00000000E-01	 7.50000000E-01	-5.96046000E-08
					 5.00000000E-01	 5.00000000E-01	 5.00000000E-01
					 5.00000000E-01	 7.50000000E-01	 1.00000000E+00
					 5.00000000E-01	 1.00000000E+00	 5.00000000E-01
					 1.00000000E+00	-1.49012000E-08	-5.96046000E-08
					 1.00000000E+00	-1.49012000E-08	 1.00000000E+00
					 5.00000000E-01	-1.49012000E-08	-5.96046000E-08
					 5.00000000E-01	-1.49012000E-08	 1.00000000E+00
					 1.00000000E+00	 2.50000000E-01	-5.96046000E-08
					 1.00000000E+00	-1.49012000E-08	 5.00000000E-01
					 1.00000000E+00	 2.50000000E-01	 1.00000000E+00
					 7.50000000E-01	-1.49012000E-08	-5.96046000E-08
					 7.50000000E-01	-1.49012000E-08	 1.00000000E+00
					 5.00000000E-01	 2.50000000E-01	-5.96046000E-08
					 5.00000000E-01	-1.49012000E-08	 5.00000000E-01
					 5.00000000E-01	 2.50000000E-01	 1.00000000E+00
					-7.45058000E-09	 1.00000000E+00	-5.96046000E-08
					-7.45058000E-09	 5.00000000E-01	-5.96046000E-08
					-7.45058000E-09	 5.00000000E-01	 1.00000000E+00
					-7.45058000E-09	 1.00000000E+00	 1.00000000E+00
					 2.50000000E-01	 1.00000000E+00	-5.96046000E-08
					 2.50000000E-01	 5.00000000E-01	-5.96046000E-08
					 2.50000000E-01	 5.00000000E-01	 1.00000000E+00
					 2.50000000E-01	 1.00000000E+00	 1.00000000E+00
					-7.45058000E-09	 7.50000000E-01	-5.96046000E-08
					-7.45058000E-09	 5.00000000E-01	 5.00000000E-01
					-7.45058000E-09	 7.50000000E-01	 1.00000000E+00
					-7.45058000E-09	 1.00000000E+00	 5.00000000E-01
					-7.45058000E-09	-1.49012000E-08	-5.96046000E-08
					-7.45058000E-09	-1.49012000E-08	 1.00000000E+00
					 2.50000000E-01	-1.49012000E-08	-5.96046000E-08
					 2.50000000E-01	-1.49012000E-08	 1.00000000E+00
					-7.45058000E-09	 2.50000000E-01	-5.96046000E-08
					-7.45058000E-09	-1.49012000E-08	 5.00000000E-01
					-7.45058000E-09	 2.50000000E-01	 1.00000000E+00
					 1.00000000E+00	 5.00000000E-01	 2.00000000E+00
					 1.00000000E+00	 1.00000000E+00	 2.00000000E+00
					 5.00000000E-01	 5.00000000E-01	 2.00000000E+00
					 5.00000000E-01	 1.00000000E+00	 2.00000000E+00
					 1.00000000E+00	 5.00000000E-01	 1.50000000E+00
					 1.00000000E+00	 7.50000000E-01	 2.00000000E+00
					 1.00000000E+00	 1.00000000E+00	 1.50000000E+00
					 7.50000000E-01	 5.00000000E-01	 2.00000000E+00
					 7.50000000E-01	 1.00000000E+00	 2.00000000E+00
					 5.00000000E-01	 5.00000000E-01	 1.50000000E+00
					 5.00000000E-01	 7.50000000E-01	 2.00000000E+00
					 5.00000000E-01	 1.00000000E+00	 1.50000000E+00
					 1.00000000E+00	-1.49012000E-08	 2.00000000E+00
					 5.00000000E-01	-1.49012000E-08	 2.00000000E+00
					 1.00000000E+00	-1.49012000E-08	 1.50000000E+00
					 1.00000000E+00	 2.50000000E-01	 2.00000000E+00
					 7.50000000E-01	-1.49012000E-08	 2.00000000E+00
					 5.00000000E-01	-1.49012000E-08	 1.50000000E+00
					 5.00000000E-01	 2.50000000E-01	 2.00000000E+00
					-7.45058000E-09	 5.00000000E-01	 2.00000000E+00
					-7.45058000E-09	 1.00000000E+00	 2.00000000E+00
					 2.50000000E-01	 5.00000000E-01	 2.00000000E+00
					 2.50000000E-01	 1.00000000E+00	 2.00000000E+00
					-7.45058000E-09	 5.00000000E-01	 1.50000000E+00
					-7.45058000E-09	 7.50000000E-01	 2.00000000E+00
					-7.45058000E-09	 1.00000000E+00	 1.50000000E+00
					-7.45058000E-09	-1.49012000E-08	 2.00000000E+00
					 2.50000000E-01	-1.49012000E-08	 2.00000000E+00
					-7.45058000E-09	-1.49012000E-08	 1.50000000E+00
					-7.45058000E-09	 2.50000000E-01	 2.00000000E+00
					 1.00000000E+00	 5.00000000E-01	 3.00000000E+00
					 1.00000000E+00	 1.00000000E+00	 3.00000000E+00
					 5.00000000E-01	 5.00000000E-01	 3.00000000E+00
					 5.00000000E-01	 1.00000000E+00	 3.00000000E+00
					 1.00000000E+00	 5.00000000E-01	 2.50000000E+00
					 1.00000000E+00	 7.50000000E-01	 3.00000000E+00
					 1.00000000E+00	 1.00000000E+00	 2.50000000E+00
					 7.50000000E-01	 5.00000000E-01	 3.00000000E+00
					 7.50000000E-01	 1.00000000E+00	 3.00000000E+00
					 5.00000000E-01	 5.00000000E-01	 2.50000000E+00
					 5.00000000E-01	 7.50000000E-01	 3.00000000E+00
					 5.00000000E-01	 1.00000000E+00	 2.50000000E+00
					 1.00000000E+00	-1.49012000E-08	 3.00000000E+00
					 5.00000000E-01	-1.49012000E-08	 3.00000000E+00
					 1.00000000E+00	-1.49012000E-08	 2.50000000E+00
					 1.00000000E+00	 2.50000000E-01	 3.00000000E+00
					 7.50000000E-01	-1.49012000E-08	 3.00000000E+00
					 5.00000000E-01	-1.49012000E-08	 2.50000000E+00
					 5.00000000E-01	 2.50000000E-01	 3.00000000E+00
					-7.45058000E-09	 5.00000000E-01	 3.00000000E+00
					-7.45058000E-09	 1.00000000E+00	 3.00000000E+00
					 2.50000000E-01	 5.00000000E-01	 3.00000000E+00
					 2.50000000E-01	 1.00000000E+00	 3.00000000E+00
					-7.45058000E-09	 5.00000000E-01	 2.50000000E+00
					-7.45058000E-09	 7.50000000E-01	 3.00000000E+00
					-7.45058000E-09	 1.00000000E+00	 2.50000000E+00
					-7.45058000E-09	-1.49012000E-08	 3.00000000E+00
					 2.50000000E-01	-1.49012000E-08	 3.00000000E+00
					-7.45058000E-09	-1.49012000E-08	 2.50000000E+00
					-7.45058000E-09	 2.50000000E-01	 3.00000000E+00
					 1.00000000E+00	 5.00000000E-01	 4.00000000E+00
					 1.00000000E+00	 1.00000000E+00	 4.00000000E+00
					 5.00000000E-01	 5.00000000E-01	 4.00000000E+00
					 5.00000000E-01	 1.00000000E+00	 4.00000000E+00
					 1.00000000E+00	 5.00000000E-01	 3.50000000E+00
					 1.00000000E+00	 7.50000000E-01	 4.00000000E+00
					 1.00000000E+00	 1.00000000E+00	 3.50000000E+00
					 7.50000000E-01	 5.00000000E-01	 4.00000000E+00
					 7.50000000E-01	 1.00000000E+00	 4.00000000E+00
					 5.00000000E-01	 5.00000000E-01	 3.50000000E+00
					 5.00000000E-01	 7.50000000E-01	 4.00000000E+00
					 5.00000000E-01	 1.00000000E+00	 3.50000000E+00
					 1.00000000E+00	-1.49012000E-08	 4.00000000E+00
					 5.00000000E-01	-1.49012000E-08	 4.00000000E+00
					 1.00000000E+00	-1.49012000E-08	 3.50000000E+00
					 1.00000000E+00	 2.50000000E-01	 4.00000000E+00
					 7.50000000E-01	-1.49012000E-08	 4.00000000E+00
					 5.00000000E-01	-1.49012000E-08	 3.50000000E+00
					 5.00000000E-01	 2.50000000E-01	 4.00000000E+00
					-7.45058000E-09	 5.00000000E-01	 4.00000000E+00
					-7.45058000E-09	 1.00000000E+00	 4.00000000E+00
					 2.50000000E-01	 5.00000000E-01	 4.00000000E+00
					 2.50000000E-01	 1.00000000E+00	 4.00000000E+00
					-7.45058000E-09	 5.00000000E-01	 3.50000000E+00
					-7.45058000E-09	 7.50000000E-01	 4.00000000E+00
					-7.45058000E-09	 1.00000000E+00	 3.50000000E+00
					-7.45058000E-09	-1.49012000E-08	 4.00000000E+00
					 2.50000000E-01	-1.49012000E-08	 4.00000000E+00
					-7.45058000E-09	-1.49012000E-08	 3.50000000E+00
					-7.45058000E-09	 2.50000000E-01	 4.00000000E+00
					 1.00000000E+00	 5.00000000E-01	 5.00000000E+00
					 1.00000000E+00	 1.00000000E+00	 5.00000000E+00
					 5.00000000E-01	 5.00000000E-01	 5.00000000E+00
					 5.00000000E-01	 1.00000000E+00	 5.00000000E+00
					 1.00000000E+00	 5.00000000E-01	 4.50000000E+00
					 1.00000000E+00	 7.50000000E-01	 5.00000000E+00
					 1.00000000E+00	 1.00000000E+00	 4.50000000E+00
					 7.50000000E-01	 5.00000000E-01	 5.00000000E+00
					 7.50000000E-01	 1.00000000E+00	 5.00000000E+00
					 5.00000000E-01	 5.00000000E-01	 4.50000000E+00
					 5.00000000E-01	 7.50000000E-01	 5.00000000E+00
					 5.00000000E-01	 1.00000000E+00	 4.50000000E+00
					 1.00000000E+00	-1.49012000E-08	 5.00000000E+00
					 5.00000000E-01	-1.49012000E-08	 5.00000000E+00
					 1.00000000E+00	-1.49012000E-08	 4.50000000E+00
					 1.00000000E+00	 2.50000000E-01	 5.00000000E+00
					 7.50000000E-01	-1.49012000E-08	 5.00000000E+00
					 5.00000000E-01	-1.49012000E-08	 4.50000000E+00
					 5.00000000E-01	 2.50000000E-01	 5.00000000E+00
					-7.45058000E-09	 5.00000000E-01	 5.00000000E+00
					-7.45058000E-09	 1.00000000E+00	 5.00000000E+00
					 2.50000000E-01	 5.00000000E-01	 5.00000000E+00
					 2.50000000E-01	 1.00000000E+00	 5.00000000E+00
					-7.45058000E-09	 5.00000000E-01	 4.50000000E+00
					-7.45058000E-09	 7.50000000E-01	 5.00000000E+00
					-7.45058000E-09	 1.00000000E+00	 4.50000000E+00
					-7.45058000E-09	-1.49012000E-08	 5.00000000E+00
					 2.50000000E-01	-1.49012000E-08	 5.00000000E+00
					-7.45058000E-09	-1.49012000E-08	 4.50000000E+00
					-7.45058000E-09	 2.50000000E-01	 5.00000000E+00
					 1.00000000E+00	 5.00000000E-01	 6.00000000E+00
					 1.00000000E+00	 1.00000000E+00	 6.00000000E+00
					 5.00000000E-01	 5.00000000E-01	 6.00000000E+00
					 5.00000000E-01	 1.00000000E+00	 6.00000000E+00
					 1.00000000E+00	 5.00000000E-01	 5.50000000E+00
					 1.00000000E+00	 7.50000000E-01	 6.00000000E+00
					 1.00000000E+00	 1.00000000E+00	 5.50000000E+00
					 7.50000000E-01	 5.00000000E-01	 6.00000000E+00
					 7.50000000E-01	 1.00000000E+00	 6.00000000E+00
					 5.00000000E-01	 5.00000000E-01	 5.50000000E+00
					 5.00000000E-01	 7.50000000E-01	 6.00000000E+00
					 5.00000000E-01	 1.00000000E+00	 5.50000000E+00
					 1.00000000E+00	-1.49012000E-08	 6.00000000E+00
[...]
			<PointData>
				<DataArray type="Float32" Name="U" NumberOfComponents="3" ComponentName0="D1" ComponentName1="D2" ComponentName2="D3" format="ascii">
					 0.00000000E+00	 0.00000000E+00	 0.00000000E+00
					 0.00000000E+00	 0.00000000E+00	 0.00000000E+00
					-1.98196000E-05	-1.02906000E-03	 1.01808000E-04
					-2.23175000E-04	-7.77898000E-04	 3.01174000E-04
					 0.00000000E+00	 0.00000000E+00	 0.00000000E+00
					 0.00000000E+00	 0.00000000E+00	 0.00000000E+00
					-9.60970000E-06	-1.27320000E-03	 9.81503000E-05
					-3.36417000E-04	-1.21731000E-03	 2.46451000E-04
					 0.00000000E+00	 0.00000000E+00	 0.00000000E+00
					 9.92559000E-06	-4.28122000E-04	 6.69475000E-05
					-9.90270000E-05	-9.27857000E-04	 1.44054000E-04
					-2.40925000E-04	-4.55938000E-04	 3.49533000E-04
					 0.00000000E+00	 0.00000000E+00	 0.00000000E+00
					 0.00000000E+00	 0.00000000E+00	 0.00000000E+00
					-2.28959000E-05	-1.11286000E-03	 1.11533000E-04
					-2.48074000E-04	-1.01248000E-03	 2.28511000E-04
					 0.00000000E+00	 0.00000000E+00	 0.00000000E+00
					 9.69275000E-06	-6.22601000E-04	 5.09305000E-05
					-1.81245000E-04	-1.23722000E-03	 9.45704000E-05
					-2.04487000E-04	-6.42067000E-04	 3.64526000E-04
					 0.00000000E+00	 0.00000000E+00	 0.00000000E+00
					 2.35740000E-04	-8.67152000E-04	-4.93680000E-05
					 0.00000000E+00	 0.00000000E+00	 0.00000000E+00
					 3.08503000E-04	-1.25142000E-03	-8.59894000E-05
					 0.00000000E+00	 0.00000000E+00	 0.00000000E+00
					 2.00418000E-04	-4.23052000E-04	-2.36094000E-04
					 1.01976000E-04	-9.55532000E-04	 5.11326000E-05
					 0.00000000E+00	 0.00000000E+00	 0.00000000E+00
					 2.66470000E-04	-1.05942000E-03	-5.47365000E-05
					 0.00000000E+00	 0.00000000E+00	 0.00000000E+00
					 2.28909000E-04	-5.90078000E-04	-2.49645000E-04
					 1.58365000E-04	-1.27325000E-03	 6.34617000E-05
					 0.00000000E+00	 0.00000000E+00	 0.00000000E+00
					 0.00000000E+00	 0.00000000E+00	 0.00000000E+00
					 1.34812000E-05	-1.69343000E-03	 1.99527000E-05
					-6.49154000E-04	-1.69397000E-03	 2.32288000E-04
					 0.00000000E+00	 0.00000000E+00	 0.00000000E+00
					 0.00000000E+00	 0.00000000E+00	 0.00000000E+00
					 1.07738000E-05	-1.44343000E-03	 5.43304000E-05
					-4.86226000E-04	-1.36802000E-03	 2.30376000E-04
					 0.00000000E+00	 0.00000000E+00	 0.00000000E+00
					 1.00919000E-05	-8.25303000E-04	 1.47489000E-05
					-2.60759000E-04	-1.69057000E-03	 6.34254000E-05
					-2.44769000E-04	-8.99957000E-04	 2.97801000E-04
					 0.00000000E+00	 0.00000000E+00	 0.00000000E+00
					 5.52349000E-04	-1.68771000E-03	-9.13539000E-05
					 0.00000000E+00	 0.00000000E+00	 0.00000000E+00
					 4.11829000E-04	-1.40971000E-03	-1.24005000E-04
					 0.00000000E+00	 0.00000000E+00	 0.00000000E+00
					 2.70158000E-04	-8.52469000E-04	-2.19058000E-04
					 2.38758000E-04	-1.67564000E-03	 4.20855000E-05
					 4.43625000E-05	-8.98693000E-04	 5.91654000E-05
					 3.30065000E-04	-8.12136000E-04	-9.11735000E-04
					 3.69007000E-05	-6.92021000E-04	 2.02711000E-05
					 5.78571000E-05	-6.27294000E-04	-9.41213000E-04
					 2.86609000E-05	-1.18838000E-03	 6.21175000E-05
					 1.84952000E-04	-8.67598000E-04	-5.05018000E-04
					-5.58910000E-05	-1.03511000E-03	-2.43572000E-04
					 4.39326000E-05	-7.70069000E-04	 4.24614000E-05
					 1.89983000E-04	-7.07342000E-04	-8.39862000E-04
					 1.55212000E-05	-1.29712000E-03	 5.16232000E-05
					 6.73791000E-05	-6.86941000E-04	-4.46507000E-04
					-1.86392000E-04	-1.20054000E-03	-3.00824000E-04
					-2.52049000E-04	-7.77867000E-04	 1.06192000E-03
					-7.90978000E-05	-6.63158000E-04	 9.90289000E-04
					 8.19116000E-05	-1.06811000E-03	 4.45784000E-04
					-1.39471000E-04	-8.75588000E-04	 6.32658000E-04
					-1.73034000E-04	-6.99398000E-04	 9.50745000E-04
					 2.08283000E-04	-1.25001000E-03	 3.88965000E-04
					-3.34811000E-05	-6.96554000E-04	 5.09662000E-04
					 3.95541000E-05	-7.17034000E-04	 5.19208000E-06
					-1.09505000E-04	-6.45747000E-04	-1.04407000E-03
					 3.64656000E-05	-6.78067000E-04	 7.09991000E-06
					-2.36235000E-05	-6.18387000E-04	-1.04104000E-03
					 1.36601000E-05	-1.58267000E-03	 9.51453000E-06
					-3.16169000E-05	-7.03178000E-04	-4.20729000E-04
					-4.28950000E-04	-1.58524000E-03	-3.39246000E-04
					-1.52597000E-05	-4.85905000E-04	 9.53181000E-04
					-3.51983000E-05	-5.70328000E-04	 1.06212000E-03
					 3.70203000E-04	-1.50991000E-03	 3.93464000E-04
					 6.16834000E-05	-6.39339000E-04	 4.01026000E-04
					 3.27551000E-05	 1.42270000E-03	 7.93811000E-05
					 7.67052000E-04	 1.47240000E-03	-1.89058000E-03
					 1.42404000E-05	 2.20252000E-03	 6.81137000E-05
					 7.01642000E-04	 2.25751000E-03	-1.99499000E-03
					-9.46084000E-06	-7.09235000E-05	 7.00838000E-05
					 3.76353000E-04	 1.43758000E-03	-9.26316000E-04
					 6.74477000E-04	-1.08785000E-05	-1.39970000E-03
					 2.57229000E-05	 1.82811000E-03	 7.64598000E-05
					 7.18407000E-04	 1.92282000E-03	-1.92916000E-03
					 3.31725000E-07	 5.20769000E-04	 3.24608000E-05
					 3.51068000E-04	 2.19955000E-03	-9.57089000E-04
					 4.79096000E-04	 5.76478000E-04	-1.48207000E-03
					-1.03581000E-03	 1.32489000E-03	 2.07866000E-03
					-7.24475000E-04	 2.34162000E-03	 2.03331000E-03
					-7.02735000E-04	-5.12115000E-05	 1.56476000E-03
					-4.23320000E-04	 1.37827000E-03	 1.06040000E-03
					-8.66891000E-04	 1.93766000E-03	 2.05182000E-03
					-5.04114000E-04	 5.60492000E-04	 1.50866000E-03
					-3.41793000E-04	 2.25698000E-03	 1.05002000E-03
					 1.36455000E-05	 2.89867000E-03	-7.08682000E-06
					 8.01627000E-04	 3.02840000E-03	-1.89396000E-03
					 1.01765000E-05	 2.53287000E-03	 3.04730000E-05
					 7.45926000E-04	 2.63083000E-03	-1.94648000E-03
					 3.58997000E-06	 9.33968000E-04	 1.64474000E-05
					 3.50371000E-04	 2.93829000E-03	-9.57070000E-04
					 3.77544000E-04	 1.02306000E-03	-1.49399000E-03
					-5.37839000E-04	 2.91055000E-03	 2.08121000E-03
					-6.24494000E-04	 2.68811000E-03	 2.02672000E-03
					-3.37387000E-04	 9.85697000E-04	 1.52202000E-03
					-3.11346000E-04	 2.88765000E-03	 1.04387000E-03
					 2.75621000E-05	 6.95371000E-03	 3.12249000E-05
					 5.37408000E-04	 6.89168000E-03	-2.85335000E-03
					 2.70285000E-05	 7.31877000E-03	 2.76303000E-05
					 3.54750000E-04	 7.42564000E-03	-2.83098000E-03
					 2.93566000E-05	 3.87414000E-03	 6.58333000E-05
					 2.49830000E-04	 6.91281000E-03	-1.34518000E-03
					 7.46774000E-04	 3.88199000E-03	-2.47572000E-03
					 1.77099000E-05	 7.15671000E-03	 2.95420000E-05
					 4.58961000E-04	 7.18806000E-03	-2.86544000E-03
					-1.56332000E-06	 4.53900000E-03	 6.18269000E-05
					 1.87405000E-04	 7.37041000E-03	-1.38684000E-03
					 5.76912000E-04	 4.58234000E-03	-2.42366000E-03
					-3.16547000E-04	 7.04451000E-03	 2.90487000E-03
					-3.65034000E-04	 7.39275000E-03	 2.92974000E-03
					-7.59743000E-04	 3.93263000E-03	 2.55529000E-03
					-1.98943000E-04	 6.97719000E-03	 1.39430000E-03
					-3.37901000E-04	 7.17939000E-03	 2.93557000E-03
					-5.75532000E-04	 4.57828000E-03	 2.55971000E-03
					-1.75103000E-04	 7.34813000E-03	 1.45629000E-03
					-5.10462000E-05	 7.61025000E-03	 1.00668000E-04
					 9.88055000E-05	 7.55114000E-03	-2.88277000E-03
					-9.77452000E-06	 7.48832000E-03	 5.06024000E-05
					 2.31914000E-04	 7.53936000E-03	-2.80598000E-03
					-1.09968000E-05	 5.02192000E-03	 5.78424000E-05
					 1.08443000E-04	 7.57515000E-03	-1.38953000E-03
					 4.25297000E-04	 5.04341000E-03	-2.43157000E-03
					-3.54620000E-04	 7.74259000E-03	 2.87292000E-03
					-3.68403000E-04	 7.54651000E-03	 2.88941000E-03
					-4.20779000E-04	 5.08928000E-03	 2.54521000E-03
					-1.52056000E-04	 7.67462000E-03	 1.44394000E-03
					-1.78861000E-05	 1.35469000E-02	-4.95601000E-05
					-8.40140000E-07	 1.35048000E-02	-3.02748000E-03
					-3.05614000E-05	 1.35529000E-02	-5.14905000E-05
					 1.02044000E-04	 1.35815000E-02	-2.96872000E-03
					 3.63988000E-06	 1.02229000E-02	 5.42357000E-06
					 1.65400000E-05	 1.35420000E-02	-1.46759000E-03
					 2.11165000E-04	 1.02403000E-02	-3.01169000E-03
					-9.89067000E-06	 1.35406000E-02	-5.69933000E-05
					 2.24497000E-05	 1.35015000E-02	-3.03800000E-03
					-1.29004000E-05	 1.04385000E-02	-1.61302000E-05
					 3.85170000E-05	 1.35575000E-02	-1.46638000E-03
					 2.00510000E-04	 1.04561000E-02	-3.01898000E-03
					-2.64076000E-04	 1.33135000E-02	 2.82171000E-03
					-1.53510000E-04	 1.35784000E-02	 2.95291000E-03
					-2.61795000E-04	 1.02435000E-02	 2.97466000E-03
					-7.85354000E-05	 1.34286000E-02	 1.38999000E-03
					-2.14539000E-04	 1.34963000E-02	 2.94075000E-03
					-2.64696000E-04	 1.04691000E-02	 2.96831000E-03
					-8.09363000E-05	 1.35788000E-02	 1.43760000E-03
					-8.51776000E-08	 1.37604000E-02	-1.47180000E-07
					 3.02523000E-04	 1.38577000E-02	-2.95689000E-03
					-2.71732000E-05	 1.36558000E-02	-1.98178000E-05
					 2.12994000E-04	 1.36389000E-02	-2.96832000E-03
					-2.39467000E-05	 1.06940000E-02	 4.72242000E-05
					 7.63196000E-05	 1.38206000E-02	-1.48273000E-03
					 1.74649000E-04	 1.07109000E-02	-3.01269000E-03
					-6.49857000E-05	 1.36751000E-02	 2.91749000E-03
					-9.21069000E-05	 1.36504000E-02	 2.93712000E-03
					-2.50395000E-04	 1.07070000E-02	 3.02179000E-03
					-9.12070000E-05	 1.37017000E-02	 1.46240000E-03
					-5.07881000E-05	 1.94542000E-02	 7.01459000E-05
					-2.83154000E-04	 1.93901000E-02	-2.56123000E-03
					-1.53747000E-05	 1.92447000E-02	 6.12875000E-05
					-2.59113000E-04	 1.91567000E-02	-2.55139000E-03
					-6.39620000E-05	 1.65911000E-02	-2.30544000E-05
					-1.59623000E-04	 1.94160000E-02	-1.26856000E-03
					-1.36357000E-04	 1.65929000E-02	-2.77337000E-03
					-2.84735000E-05	 1.93465000E-02	 7.46662000E-05
					-2.57224000E-04	 1.92672000E-02	-2.58179000E-03
					-1.69782000E-05	 1.65013000E-02	-1.24425000E-06
					-1.43354000E-04	 1.92109000E-02	-1.27159000E-03
					-3.18554000E-05	 1.64816000E-02	-2.77807000E-03
					 2.91599000E-04	 1.95585000E-02	 2.73980000E-03
					 2.29054000E-04	 1.92147000E-02	 2.63794000E-03
					 1.19346000E-04	 1.66170000E-02	 2.74492000E-03
					 5.77115000E-05	 1.94949000E-02	 1.35673000E-03
					 2.51786000E-04	 1.93092000E-02	 2.68582000E-03
					 5.28430000E-05	 1.64975000E-02	 2.83792000E-03
					 9.36643000E-05	 1.92392000E-02	 1.34591000E-03
					-4.89546000E-05	 1.90233000E-02	-5.77265000E-06
					-2.69011000E-04	 1.89046000E-02	-2.61528000E-03
					-2.82699000E-05	 1.91066000E-02	 3.45838000E-05
					-2.65553000E-04	 1.90747000E-02	-2.56372000E-03
					 2.76819000E-05	 1.64968000E-02	-1.69949000E-05
					-1.23061000E-04	 1.89618000E-02	-1.33990000E-03
					 7.30035000E-05	 1.65035000E-02	-2.76358000E-03
					 1.38134000E-04	 1.90229000E-02	 2.67678000E-03
					 1.69771000E-04	 1.90758000E-02	 2.62279000E-03
					-5.26277000E-06	 1.64690000E-02	 2.78502000E-03
					 9.16068000E-05	 1.90378000E-02	 1.38129000E-03
					-2.76796000E-05	 2.41689000E-02	 3.42034000E-05
					-1.79218000E-04	 2.42261000E-02	-2.52071000E-03
					-3.36419000E-05	 2.41009000E-02	-1.21354000E-05
					-9.83931000E-05	 2.41231000E-02	-2.52176000E-03
					-5.44806000E-05	 2.18439000E-02	 5.43289000E-05
					-4.64338000E-05	 2.41976000E-02	-1.26493000E-03
					-2.67597000E-04	 2.18883000E-02	-2.47843000E-03
					-3.83095000E-05	 2.41469000E-02	 1.03210000E-05
					-1.33904000E-04	 2.41403000E-02	-2.47743000E-03
					-3.72613000E-05	 2.16790000E-02	 3.37686000E-05
					-6.50126000E-05	 2.41219000E-02	-1.26026000E-03
					-2.33015000E-04	 2.16469000E-02	-2.49991000E-03
					-9.37711000E-05	 2.42156000E-02	 2.53011000E-03
					 2.59571000E-05	 2.41030000E-02	 2.49843000E-03
					 2.10791000E-04	 2.19407000E-02	 2.63275000E-03
					-2.61981000E-05	 2.42034000E-02	 1.34049000E-03
					-3.48576000E-05	 2.41743000E-02	 2.49785000E-03
					 1.38138000E-04	 2.16799000E-02	 2.50617000E-03
					-1.41705000E-05	 2.40901000E-02	 1.28038000E-03
					-3.84245000E-05	 2.40579000E-02	 1.02473000E-04
					-7.99318000E-05	 2.41232000E-02	-2.49902000E-03
					-4.69363000E-05	 2.41029000E-02	 3.71883000E-05
					-8.60974000E-05	 2.41013000E-02	-2.52348000E-03
					-4.05961000E-05	 2.15175000E-02	 3.51038000E-05
					-6.71945000E-05	 2.40946000E-02	-1.17683000E-03
					-2.59577000E-04	 2.14666000E-02	-2.52047000E-03
					 2.23030000E-04	 2.39754000E-02	 2.53916000E-03
					 1.31295000E-04	 2.41011000E-02	 2.54289000E-03
					 1.07945000E-04	 2.14950000E-02	 2.54490000E-03
					 3.95510000E-05	 2.40180000E-02	 1.30433000E-03
					 8.88821000E-05	 2.88490000E-02	-1.32954000E-04
					 3.70460000E-04	 2.86322000E-02	-2.21861000E-03
					-2.23388000E-05	 2.93281000E-02	 1.26314000E-04
					 2.78769000E-04	 2.92042000E-02	-2.45654000E-03
					-4.87355000E-05	 2.64587000E-02	-1.21637000E-05
					 1.45101000E-04	 2.87659000E-02	-1.22824000E-03
					 1.71738000E-04	 2.64182000E-02	-2.43784000E-03
					 1.96139000E-05	 2.90676000E-02	 3.71633000E-05
					 3.32587000E-04	 2.89989000E-02	-2.35814000E-03
					-1.46474000E-05	 2.66904000E-02	 8.14174000E-06
					 1.08439000E-04	 2.92540000E-02	-1.15427000E-03
					 1.68691000E-04	 2.66428000E-02	-2.47874000E-03
					-5.83367000E-04	 2.92664000E-02	 3.11633000E-03
					-4.43919000E-04	 2.92772000E-02	 2.54599000E-03
					-2.26357000E-04	 2.63594000E-02	 2.68916000E-03
					-2.66609000E-04	 2.90500000E-02	 1.41572000E-03
					-4.95555000E-04	 2.92987000E-02	 2.73109000E-03
					-2.26953000E-04	 2.67052000E-02	 2.59922000E-03
					-2.23553000E-04	 2.93094000E-02	 1.31436000E-03
					-1.06022000E-04	 2.95431000E-02	-1.10893000E-04
					 2.29165000E-04	 2.92738000E-02	-2.40339000E-03
					-4.69372000E-05	 2.93919000E-02	 1.19868000E-05
					 2.58669000E-04	 2.93290000E-02	-2.46742000E-03
					 2.36196000E-05	 2.68661000E-02	 6.15318000E-05
					 9.10636000E-05	 2.94115000E-02	-1.30189000E-03
					 1.06213000E-04	 2.68434000E-02	-2.47918000E-03
					-3.66455000E-04	 2.97664000E-02	 2.84015000E-03
					-3.94901000E-04	 2.94335000E-02	 2.73074000E-03
					-2.84073000E-04	 2.68662000E-02	 2.58917000E-03
					-1.58890000E-04	 2.96354000E-02	 1.27990000E-03
					 0.00000000E+00	 0.00000000E+00	 0.00000000E+00
					 0.00000000E+00	 0.00000000E+00	 0.00000000E+00
					-2.60160000E-04	-3.62829000E-03	-1.69965000E-04
					-1.17684000E-03	-3.95260000E-03	 4.00486000E-03
					 0.00000000E+00	 0.00000000E+00	 0.00000000E+00
					 0.00000000E+00	 0.00000000E+00	 0.00000000E+00
					-1.61189000E-04	-4.53480000E-03	-2.28427000E-04
					-6.82549000E-04	-4.59839000E-03	 3.86808000E-03
					 0.00000000E+00	 0.00000000E+00	 0.00000000E+00
					-1.08929000E-05	-6.06742000E-04	-3.59427000E-05
					-7.19257000E-04	-3.69798000E-03	 1.87164000E-03
					-8.51395000E-04	-9.60899000E-04	 2.01833000E-03
					 0.00000000E+00	 0.00000000E+00	 0.00000000E+00
					 0.00000000E+00	 0.00000000E+00	 0.00000000E+00
					-2.25744000E-04	-4.20388000E-03	-1.85198000E-04
					-9.38461000E-04	-4.37315000E-03	 3.87555000E-03
					 0.00000000E+00	 0.00000000E+00	 0.00000000E+00
					-5.48481000E-06	-1.16513000E-03	-9.49386000E-05
					-4.28677000E-04	-4.45628000E-03	 1.76579000E-03
					-2.50940000E-04	-1.44786000E-03	 1.83695000E-03
					 0.00000000E+00	 0.00000000E+00	 0.00000000E+00
					 1.04429000E-03	-4.05173000E-03	-4.15599000E-03
					 0.00000000E+00	 0.00000000E+00	 0.00000000E+00
					 4.56606000E-04	-4.85582000E-03	-4.37327000E-03
					 0.00000000E+00	 0.00000000E+00	 0.00000000E+00
					 9.10950000E-04	-9.65465000E-04	-2.09110000E-03
					 4.09866000E-04	-3.73272000E-03	-2.14410000E-03
					 0.00000000E+00	 0.00000000E+00	 0.00000000E+00
					 7.80740000E-04	-4.54218000E-03	-4.24877000E-03
					 0.00000000E+00	 0.00000000E+00	 0.00000000E+00
					 2.18157000E-04	-1.53149000E-03	-2.07790000E-03
					 1.50671000E-04	-4.62637000E-03	-2.23340000E-03
					 0.00000000E+00	 0.00000000E+00	 0.00000000E+00
					 0.00000000E+00	 0.00000000E+00	 0.00000000E+00
					-1.26540000E-04	-4.81062000E-03	-3.97461000E-04
					-7.76117000E-05	-4.95401000E-03	 3.76500000E-03
					 0.00000000E+00	 0.00000000E+00	 0.00000000E+00
					 0.00000000E+00	 0.00000000E+00	 0.00000000E+00
					-1.16961000E-04	-4.78012000E-03	-3.21183000E-04
					-3.98131000E-04	-4.92984000E-03	 3.93553000E-03
					 0.00000000E+00	 0.00000000E+00	 0.00000000E+00
					-5.46497000E-05	-1.06735000E-03	-1.56147000E-04
					-1.52585000E-04	-4.81754000E-03	 1.50016000E-03
					 4.27436000E-04	-1.31675000E-03	 1.91255000E-03
					 0.00000000E+00	 0.00000000E+00	 0.00000000E+00
					-2.44728000E-04	-4.92817000E-03	-4.38723000E-03
					 0.00000000E+00	 0.00000000E+00	 0.00000000E+00
					 1.13061000E-04	-5.08256000E-03	-4.50328000E-03
					 0.00000000E+00	 0.00000000E+00	 0.00000000E+00
					-5.60129000E-04	-1.34761000E-03	-2.24073000E-03
					-1.15638000E-04	-4.79298000E-03	-2.21345000E-03
					-2.28135000E-04	-1.45314000E-02	-4.28244000E-04
					-2.56852000E-03	-1.46329000E-02	 6.00572000E-03
					-2.51233000E-04	-1.68038000E-02	-5.95351000E-04
					-2.55230000E-03	-1.68147000E-02	 6.01434000E-03
					-1.54446000E-04	-8.58595000E-03	-3.05495000E-04
					-1.44372000E-03	-1.45610000E-02	 2.85628000E-03
					-1.81154000E-03	-8.80816000E-03	 5.34900000E-03
					-2.42869000E-04	-1.56563000E-02	-4.97076000E-04
					-2.56087000E-03	-1.56951000E-02	 5.88281000E-03
					-2.08967000E-04	-1.00384000E-02	-4.14696000E-04
					-1.39742000E-03	-1.68008000E-02	 2.61529000E-03
					-1.50479000E-03	-1.02172000E-02	 5.25056000E-03
					 2.12175000E-03	-1.45122000E-02	-6.94847000E-03
					 1.87046000E-03	-1.68853000E-02	-7.13469000E-03
					 1.38762000E-03	-8.83781000E-03	-5.89153000E-03
					 9.44095000E-04	-1.45169000E-02	-3.78787000E-03
					 1.99150000E-03	-1.56799000E-02	-6.85570000E-03
					 1.06595000E-03	-1.02589000E-02	-6.05686000E-03
					 8.14152000E-04	-1.68231000E-02	-3.79178000E-03
					-3.40116000E-04	-1.89789000E-02	-8.17882000E-04
					-2.46603000E-03	-1.91370000E-02	 5.74371000E-03
					-2.99405000E-04	-1.78888000E-02	-6.83119000E-04
					-2.50481000E-03	-1.79775000E-02	 6.03823000E-03
					-2.46693000E-04	-1.11847000E-02	-5.96975000E-04
					-1.34716000E-03	-1.90263000E-02	 2.24223000E-03
					-1.21398000E-03	-1.13481000E-02	 5.08881000E-03
					 1.78841000E-03	-1.90300000E-02	-7.23869000E-03
					 1.82699000E-03	-1.79051000E-02	-7.36237000E-03
					 6.36603000E-04	-1.13083000E-02	-6.15367000E-03
					 7.03068000E-04	-1.89843000E-02	-3.70775000E-03
					-2.95617000E-04	-2.71323000E-02	-8.08269000E-04
					-4.15631000E-03	-2.68807000E-02	 5.52354000E-03
					-3.68518000E-04	-3.06271000E-02	-7.69590000E-04
					-4.19551000E-03	-3.07474000E-02	 5.42239000E-03
					-3.32849000E-04	-2.07510000E-02	-6.20659000E-04
					-2.13860000E-03	-2.70503000E-02	 2.32437000E-03
					-3.44412000E-03	-2.06859000E-02	 5.98983000E-03
					-3.24184000E-04	-2.88521000E-02	-8.01789000E-04
					-4.16515000E-03	-2.89147000E-02	 5.42217000E-03
					-3.86921000E-04	-2.38474000E-02	-7.25422000E-04
					-2.28951000E-03	-3.07148000E-02	 2.25116000E-03
					-3.44649000E-03	-2.38323000E-02	 5.92531000E-03
					 3.15739000E-03	-2.68054000E-02	-6.96678000E-03
					 3.29786000E-03	-3.05202000E-02	-7.21943000E-03
					 2.90009000E-03	-2.05771000E-02	-7.21822000E-03
					 1.31283000E-03	-2.70129000E-02	-3.81245000E-03
					 3.18600000E-03	-2.87799000E-02	-7.08828000E-03
					 2.75648000E-03	-2.37644000E-02	-7.40028000E-03
					 1.50020000E-03	-3.05865000E-02	-3.91301000E-03
					-3.80276000E-04	-3.44600000E-02	-9.07626000E-04
					-4.31361000E-03	-3.44886000E-02	 5.44278000E-03
					-3.86943000E-04	-3.24946000E-02	-8.47043000E-04
					-4.25621000E-03	-3.25482000E-02	 5.47685000E-03
					-3.61266000E-04	-2.69265000E-02	-8.62088000E-04
					-2.38230000E-03	-3.45038000E-02	 2.11036000E-03
					-3.51974000E-03	-2.69390000E-02	 5.78725000E-03
					 3.82434000E-03	-3.44184000E-02	-7.17720000E-03
					 3.55296000E-03	-3.24062000E-02	-7.22647000E-03
					 2.87467000E-03	-2.69701000E-02	-7.43335000E-03
					 1.64632000E-03	-3.44688000E-02	-3.96763000E-03
					-2.17043000E-04	-3.85779000E-02	-1.10778000E-03
					-3.47908000E-03	-3.82849000E-02	 2.87364000E-03