# vtk DataFile Version 3.0

ASCII
DATASET UNSTRUCTURED_GRID

POINTS 522 double
	 1.00000000E+00	 1.00000000E+00	-5.96046000E-08
	 1.00000000E+00	 5.00000000E-01	-5.96046000E-08
	 1.00000000E+00	 5.00000000E-01	 1.00000000E+00
	 1.00000000E+00	 1.00000000E+00	 1.00000000E+00
	 5.00000000E-01	 1.00000000E+00	-5.96046000E-08
	 5.00000000E-01	 5.00000000E-01	-5.96046000E-08
	 5.00000000E-01	 5.00000000E-01	 1.00000000E+00
	 5.00000000E-01	 1.00000000E+00	 1.00000000E+00
	 1.00000000E+00	 7.50000000E-01	-5.96046000E-08
	 1.00000000E+00	 5.00000000E-01	 5.00000000E-01
	 1.00000000E+00	 7.50000000E-01	 1.00000000E+00
	 1.00000000E+00	 1.00000000E+00	 5.00000000E-01
	 7.50000000E-01	 1.00000000E+00	-5.96046000E-08
	 7.50000000E-01	 5.00000000E-01	-5.96046000E-08
	 7.50000000E-01	 5.00000000E-01	 1.00000000E+00
	 7.50000000E-01	 1.00000000E+00	 1.00000000E+00
	 5.00000000E-01	 7.50000000E-01	-5.96046000E-08
	 5.00000000E-01	 5.00000000E-01	 5.00000000E-01
	 5.00000000E-01	 7.50000000E-01	 1.00000000E+00
	 5.00000000E-01	 1.00000000E+00	 5.00000000E-01
	 1.00000000E+00	-1.49012000E-08	-5.96046000E-08
	 1.00000000E+00	-1.49012000E-08	 1.00000000E+00
	 5.00000000E-01	-1.49012000E-08	-5.96046000E-08
	 5.00000000E-01	-1.49012000E-08	 1.00000000E+00
	 1.00000000E+00	 2.50000000E-01	-5.96046000E-08
	 1.00000000E+00	-1.49012000E-08	 5.00000000E-01
	 1.00000000E+00	 2.50000000E-01	 1.00000000E+00
	 7.50000000E-01	-1.49012000E-08	-5.96046000E-08
	 7.50000000E-01	-1.49012000E-08	 1.00000000E+00
	 5.00000000E-01	 2.50000000E-01	-5.96046000E-08
	 5.00000000E-01	-1.49012000E-08	 5.00000000E-01
	 5.00000000E-01	 2.50000000E-01	 1.00000000E+00
	-7.45058000E-09	 1.00000000E+00	-5.96046000E-08
	-7.45058000E-09	 5.00000000E-01	-5.96046000E-08
	-7.45058000E-09	 5.00000000E-01	 1.00000000E+00
	-7.45058000E-09	 1.00000000E+00	 1.00000000E+00
	 2.50000000E-01	 1.00000000E+00	-5.96046000E-08
	 2.50000000E-01	 5.00000000E-01	-5.96046000E-08
	 2.50000000E-01	 5.00000000E-01	 1.00000000E+00
	 2.50000000E-01	 1.00000000E+00	 1.00000000E+00
	-7.45058000E-09	 7.50000000E-01	-5.96046000E-08
	-7.45058000E-09	 5.00000000E-01	 5.00000000E-01
	-7.45058000E-09	 7.50000000E-01	 1.00000000E+00
	-7.45058000E-09	 1.00000000E+00	 5.00000000E-01
	-7.45058000E-09	-1.49012000E-08	-5.96046000E-08
	-7.45058000E-09	-1.49012000E-08	 1.00000000E+00
	 2.50000000E-01	-1.49012000E-08	-5.96046000E-08
	 2.50000000E-01	-1.49012000E-08	 1.00000000E+00
	-7.45058000E-09	 2.50000000E-01	-5.96046000E-08
	-7.45058000E-09	-1.49012000E-08	 5.00000000E-01
	-7.45058000E-09	 2.50000000E-01	 1.00000000E+00
	 1.00000000E+00	 5.00000000E-01	 2.00000000E+00
	 1.00000000E+00	 1.00000000E+00	 2.00000000E+00
	 5.00000000E-01	 5.00000000E-01	 2.00000000E+00
	 5.00000000E-01	 1.00000000E+00	 2.00000000E+00
	 1.00000000E+00	 5.00000000E-01	 1.50000000E+00
	 1.00000000E+00	 7.50000000E-01	 2.00000000E+00
	 1.00000000E+00	 1.00000000E+00	 1.50000000E+00
	 7.50000000E-01	 5.00000000E-01	 2.00000000E+00
	 7.50000000E-01	 1.00000000E+00	 2.00000000E+00
	 5.00000000E-01	 5.00000000E-01	 1.50000000E+00
	 5.00000000E-01	 7.50000000E-01	 2.00000000E+00
	 5.00000000E-01	 1.00000000E+00	 1.50000000E+00
	 1.00000000E+00	-1.49012000E-08	 2.00000000E+00
	 5.00000000E-01	-1.49012000E-08	 2.00000000E+00
	 1.00000000E+00	-1.49012000E-08	 1.50000000E+00
	 1.00000000E+00	 2.50000000E-01	 2.00000000E+00
	 7.50000000E-01	-1.49012000E-08	 2.00000000E+00
	 5.00000000E-01	-1.49012000E-08	 1.50000000E+00
	 5.00000000E-01	 2.50000000E-01	 2.00000000E+00
	-7.45058000E-09	 5.00000000E-01	 2.00000000E+00
	-7.45058000E-09	 1.00000000E+00	 2.00000000E+00
	 2.50000000E-01	 5.00000000E-01	 2.00000000E+00
	 2.50000000E-01	 1.00000000E+00	 2.00000000E+00
	-7.45058000E-09	 5.00000000E-01	 1.50000000E+00
	-7.45058000E-09	 7.50000000E-01	 2.00000000E+00
	-7.45058000E-09	 1.00000000E+00	 1.50000000E+00
	-7.45058000E-09	-1.49012000E-08	 2.00000000E+00
	 2.50000000E-01	-1.49012000E-08	 2.00000000E+00
	-7.45058000E-09	-1.49012000E-08	 1.50000000E+00
	-7.45058000E-09	 2.50000000E-01	 2.00000000E+00
	 1.00000000E+00	 5.00000000E-01	 3.00000000E+00
	 1.00000000E+00	 1.00000000E+00	 3.00000000E+00
	 5.00000000E-01	 5.00000000E-01	 3.00000000E+00
	 5.00000000E-01	 1.00000000E+00	 3.00000000E+00
	 1.00000000E+00	 5.00000000E-01	 2.50000000E+00
	 1.00000000E+00	 7.50000000E-01	 3.00000000E+00
	 1.00000000E+00	 1.00000000E+00	 2.50000000E+00
	 7.50000000E-01	 5.00000000E-01	 3.00000000E+00
	 7.50000000E-01	 1.00000000E+00	 3.00000000E+00
	 5.00000000E-01	 5.00000000E-01	 2.50000000E+00
	 5.00000000E-01	 7.50000000E-01	 3.00000000E+00
	 5.00000000E-01	 1.00000000E+00	 2.50000000E+00
	 1.00000000E+00	-1.49012000E-08	 3.00000000E+00
	 5.00000000E-01	-1.49012000E-08	 3.00000000E+00
	 1.00000000E+00	-1.49012000E-08	 2.50000000E+00
	 1.00000000E+00	 2.50000000E-01	 3.00000000E+00
	 7.50000000E-01	-1.49012000E-08	 3.00000000E+00
	 5.00000000E-01	-1.49012000E-08	 2.50000000E+00
	 5.00000000E-01	 2.50000000E-01	 3.00000000E+00
	-7.45058000E-09	 5.00000000E-01	 3.00000000E+00
	-7.45058000E-09	 1.00000000E+00	 3.00000000E+00
	 2.50000000E-01	 5.00000000E-01	 3.00000000E+00
	 2.50000000E-01	 1.00000000E+00	 3.00000000E+00
	-7.45058000E-09	 5.00000000E-01	 2.50000000E+00
	-7.45058000E-09	 7.50000000E-01	 3.00000000E+00
	-7.45058000E-09	 1.00000000E+00	 2.50000000E+00
	-7.45058000E-09	-1.49012000E-08	 3.00000000E+00
	 2.50000000E-01	-1.49012000E-08	 3.00000000E+00
	-7.45058000E-09	-1.49012000E-08	 2.50000000E+00
	-7.45058000E-09	 2.50000000E-01	 3.00000000E+00
	 1.00000000E+00	 5.00000000E-01	 4.00000000E+00
	 1.00000000E+00	 1.00000000E+00	 4.00000000E+00
	 5.00000000E-01	 5.00000000E-01	 4.00000000E+00
	 5.00000000E-01	 1.00000000E+00	 4.00000000E+00
	 1.00000000E+00	 5.00000000E-01	 3.50000000E+00
	 1.00000000E+00	 7.50000000E-01	 4.00000000E+00
	 1.00000000E+00	 1.00000000E+00	 3.50000000E+00
	 7.50000000E-01	 5.00000000E-01	 4.00000000E+00
	 7.50000000E-01	 1.00000000E+00	 4.00000000E+00
	 5.00000000E-01	 5.00000000E-01	 3.50000000E+00
	 5.00000000E-01	 7.50000000E-01	 4.00000000E+00
	 5.00000000E-01	 1.00000000E+00	 3.50000000E+00
	 1.00000000E+00	-1.49012000E-08	 4.00000000E+00
	 5.00000000E-01	-1.49012000E-08	 4.00000000E+00
	 1.00000000E+00	-1.49012000E-08	 3.50000000E+00
	 1.00000000E+00	 2.50000000E-01	 4.00000000E+00
	 7.50000000E-01	-1.49012000E-08	 4.00000000E+00
	 5.00000000E-01	-1.49012000E-08	 3.50000000E+00
	 5.00000000E-01	 2.50000000E-01	 4.00000000E+00
	-7.45058000E-09	 5.00000000E-01	 4.00000000E+00
	-7.45058000E-09	 1.00000000E+00	 4.00000000E+00
	 2.50000000E-01	 5.00000000E-01	 4.00000000E+00
	 2.50000000E-01	 1.00000000E+00	 4.00000000E+00
	-7.45058000E-09	 5.00000000E-01	 3.50000000E+00
	-7.45058000E-09	 7.50000000E-01	 4.00000000E+00
	-7.45058000E-09	 1.00000000E+00	 3.50000000E+00
	-7.45058000E-09	-1.49012000E-08	 4.00000000E+00
	 2.50000000E-01	-1.49012000E-08	 4.00000000E+00
	-7.45058000E-09	-1.49012000E-08	 3.50000000E+00
	-7.45058000E-09	 2.50000000E-01	 4.00000000E+00
	 1.00000000E+00	 5.00000000E-01	 5.00000000E+00
	 1.00000000E+00	 1.00000000E+00	 5.00000000E+00
	 5.00000000E-01	 5.00000000E-01	 5.00000000E+00
	 5.00000000E-01	 1.00000000E+00	 5.00000000E+00
	 1.00000000E+00	 5.00000000E-01	 4.50000000E+00
	 1.00000000E+00	 7.50000000E-01	 5.00000000E+00
	 1.00000000E+00	 1.00000000E+00	 4.50000000E+00
	 7.50000000E-01	 5.00000000E-01	 5.00000000E+00
	 7.50000000E-01	 1.00000000E+00	 5.00000000E+00
	 5.00000000E-01	 5.00000000E-01	 4.50000000E+00
	 5.00000000E-01	 7.50000000E-01	 5.00000000E+00
	 5.00000000E-01	 1.00000000E+00	 4.50000000E+00
	 1.00000000E+00	-1.49012000E-08	 5.00000000E+00
	 5.00000000E-01	-1.49012000E-08	 5.00000000E+00
	 1.00000000E+00	-1.49012000E-08	 4.50000000E+00
	 1.00000000E+00	 2.50000000E-01	 5.00000000E+00
	 7.50000000E-01	-1.49012000E-08	 5.00000000E+00
	 5.00000000E-01	-1.49012000E-08	 4.50000000E+00
	 5.00000000E-01	 2.50000000E-01	 5.00000000E+00
	-7.45058000E-09	 5.00000000E-01	 5.00000000E+00
	-7.45058000E-09	 1.00000000E+00	 5.00000000E+00
	 2.50000000E-01	 5.00000000E-01	 5.00000000E+00
	 2.50000000E-01	 1.00000000E+00	 5.00000000E+00
	-7.45058000E-09	 5.00000000E-01	 4.50000000E+00
	-7.45058000E-09	 7.50000000E-01	 5.00000000E+00
	-7.45058000E-09	 1.00000000E+00	 4.50000000E+00
	-7.45058000E-09	-1.49012000E-08	 5.00000000E+00
	 2.50000000E-01	-1.49012000E-08	 5.00000000E+00
	-7.45058000E-09	-1.49012000E-08	 4.50000000E+00
	-7.45058000E-09	 2.50000000E-01	 5.00000000E+00
	 1.00000000E+00	 5.00000000E-01	 6.00000000E+00
	 1.00000000E+00	 1.00000000E+00	 6.00000000E+00
	 5.00000000E-01	 5.00000000E-01	 6.00000000E+00
	 5.00000000E-01	 1.00000000E+00	 6.00000000E+00
	 1.00000000E+00	 5.00000000E-01	 5.50000000E+00
	 1.00000000E+00	 7.50000000E-01	 6.00000000E+00
	 1.00000000E+00	 1.00000000E+00	 5.50000000E+00
	 7.50000000E-01	 5.00000000E-01	 6.00000000E+00
	 7.50000000E-01	 1.00000000E+00	 6.00000000E+00
	 5.00000000E-01	 5.00000000E-01	 5.50000000E+00
	 5.00000000E-01	 7.50000000E-01	 6.00000000E+00
	 5.00000000E-01	 1.00000000E+00	 5.50000000E+00
	 1.00000000E+00	-1.49012000E-08	 6.00000000E+00
	 5.00000000E-01	-1.49012000E-08	 6.00000000E+00
	 1.00000000E+00	-1.49012000E-08	 5.50000000E+00
	 1.00000000E+00	 2.50000000E-01	 6.00000000E+00
	 7.50000000E-01	-1.49012000E-08	 6.00000000E+00
	 5.00000000E-01	-1.49012000E-08	 5.50000000E+00
	 5.00000000E-01	 2.50000000E-01	 6.00000000E+00
	-7.45058000E-09	 5.00000000E-01	 6.00000000E+00
	-7.45058000E-09	 1.00000000E+00	 6.00000000E+00
	 2.50000000E-01	 5.00000000E-01	 6.00000000E+00
	 2.50000000E-01	 1.00000000E+00	 6.00000000E+00
	-7.45058000E-09	 5.00000000E-01	 5.50000000E+00
	-7.45058000E-09	 7.50000000E-01	 6.00000000E+00
	-7.45058000E-09	 1.00000000E+00	 5.50000000E+00
	-7.45058000E-09	-1.49012000E-08	 6.00000000E+00
	 2.50000000E-01	-1.49012000E-08	 6.00000000E+00
	-7.45058000E-09	-1.49012000E-08	 5.50000000E+00
	-7.45058000E-09	 2.50000000E-01	 6.00000000E+00
	 1.00000000E+00	 5.00000000E-01	 7.00000000E+00
[...]
POINT_DATA 522
FIELD U 1
	U 3 522 double
		 0.00000000E+00	 0.00000000E+00	 0.00000000E+00
		 0.00000000E+00	 0.00000000E+00	 0.00000000E+00
		 3.44139000E-06	 2.32116000E-03	-1.77725000E-05
		-1.08321000E-03	 2.35877000E-03	-9.44951000E-04
		 0.00000000E+00	 0.00000000E+00	 0.00000000E+00
		 0.00000000E+00	 0.00000000E+00	 0.00000000E+00
		 2.42274000E-06	 1.17485000E-03	-1.54266000E-05
		-1.19595000E-03	 1.22255000E-03	-9.55821000E-04
		 0.00000000E+00	 0.00000000E+00	 0.00000000E+00
		 3.66004000E-06	 8.94601000E-04	-9.09059000E-06
		-5.41673000E-04	 2.31970000E-03	-3.57727000E-04
		-4.35820000E-04	 9.51460000E-04	-5.02357000E-04
		 0.00000000E+00	 0.00000000E+00	 0.00000000E+00
		 0.00000000E+00	 0.00000000E+00	 0.00000000E+00
		 3.11757000E-06	 1.76569000E-03	-1.66509000E-05
		-1.13968000E-03	 1.81123000E-03	-1.05843000E-03
		 0.00000000E+00	 0.00000000E+00	 0.00000000E+00
		 1.30524000E-06	 3.53744000E-04	-6.83460000E-06
		-5.95490000E-04	 1.17799000E-03	-4.69060000E-04
		-6.00695000E-04	 4.33918000E-04	-4.89148000E-04
		 0.00000000E+00	 0.00000000E+00	 0.00000000E+00
		 1.08939000E-03	 2.36111000E-03	 9.11286000E-04
		 0.00000000E+00	 0.00000000E+00	 0.00000000E+00
		 1.20127000E-03	 1.22489000E-03	 9.26125000E-04
		 0.00000000E+00	 0.00000000E+00	 0.00000000E+00
		 4.42018000E-04	 9.47467000E-04	 4.84122000E-04
		 5.48248000E-04	 2.32042000E-03	 3.22727000E-04
		 0.00000000E+00	 0.00000000E+00	 0.00000000E+00
		 1.14576000E-03	 1.81416000E-03	 1.02669000E-03
		 0.00000000E+00	 0.00000000E+00	 0.00000000E+00
		 6.02989000E-04	 4.31564000E-04	 4.75197000E-04
		 6.00497000E-04	 1.17929000E-03	 4.38572000E-04
		 0.00000000E+00	 0.00000000E+00	 0.00000000E+00
		 0.00000000E+00	 0.00000000E+00	 0.00000000E+00
		 1.19201000E-06	-7.65435000E-05	-1.25573000E-05
		-1.29660000E-03	-2.60539000E-05	-9.40573000E-04
		 0.00000000E+00	 0.00000000E+00	 0.00000000E+00
		 0.00000000E+00	 0.00000000E+00	 0.00000000E+00
		 1.60952000E-06	 5.69092000E-04	-1.39742000E-05
		-1.24484000E-03	 6.14657000E-04	-8.43103000E-04
		 0.00000000E+00	 0.00000000E+00	 0.00000000E+00
		-5.55717000E-07	-3.09366000E-04	-5.52242000E-06
		-6.50243000E-04	-7.06174000E-05	-5.66094000E-04
		-7.19990000E-04	-2.08283000E-04	-4.99120000E-04
		 0.00000000E+00	 0.00000000E+00	 0.00000000E+00
		 1.30065000E-03	-2.52574000E-05	 9.15976000E-04
		 0.00000000E+00	 0.00000000E+00	 0.00000000E+00
		 1.24921000E-03	 6.16281000E-04	 8.15893000E-04
		 0.00000000E+00	 0.00000000E+00	 0.00000000E+00
		 7.19254000E-04	-2.10528000E-04	 4.87395000E-04
		 6.53149000E-04	-6.99746000E-05	 5.41226000E-04
		-1.14913000E-05	 6.05104000E-03	-2.28941000E-05
		-2.19420000E-03	 6.08495000E-03	-1.58043000E-03
		-6.53404000E-06	 3.83401000E-03	-2.59317000E-05
		-2.25884000E-03	 3.86343000E-03	-1.58878000E-03
		-7.13000000E-07	 4.06178000E-03	-2.20245000E-05
		-1.10119000E-03	 6.05988000E-03	-7.28830000E-04
		-1.67858000E-03	 4.11533000E-03	-1.29474000E-03
		-8.89108000E-06	 4.95259000E-03	-2.48696000E-05
		-2.22705000E-03	 4.98096000E-03	-1.64796000E-03
		 8.07915000E-07	 2.34608000E-03	-2.18920000E-05
		-1.13393000E-03	 3.83978000E-03	-7.97678000E-04
		-1.75976000E-03	 2.39119000E-03	-1.29907000E-03
		 2.17251000E-03	 6.10354000E-03	 1.53331000E-03
		 2.24752000E-03	 3.87947000E-03	 1.53570000E-03
		 1.67787000E-03	 4.12674000E-03	 1.25178000E-03
		 1.07851000E-03	 6.06921000E-03	 6.82692000E-04
		 2.21084000E-03	 4.99874000E-03	 1.59684000E-03
		 1.76288000E-03	 2.40071000E-03	 1.25592000E-03
		 1.12142000E-03	 3.84817000E-03	 7.45406000E-04
		-2.24196000E-06	 1.54386000E-03	-2.69845000E-05
		-2.34035000E-03	 1.56387000E-03	-1.58495000E-03
		-4.30981000E-06	 2.69611000E-03	-2.64628000E-05
		-2.30016000E-03	 2.72507000E-03	-1.52729000E-03
		 1.77900000E-06	 5.38384000E-04	-2.02051000E-05
		-1.16859000E-03	 1.54412000E-03	-8.55949000E-04
		-1.85939000E-03	 5.76123000E-04	-1.29368000E-03
		 2.33798000E-03	 1.57708000E-03	 1.53005000E-03
		 2.29348000E-03	 2.73941000E-03	 1.47358000E-03
		 1.86535000E-03	 5.82593000E-04	 1.25356000E-03
		 1.16477000E-03	 1.55122000E-03	 8.01431000E-04
		-4.62307000E-05	 1.05298000E-02	-3.02408000E-05
		-2.97960000E-03	 1.05171000E-02	-1.86164000E-03
		-3.64738000E-05	 7.60890000E-03	-3.46492000E-05
		-2.94935000E-03	 7.59144000E-03	-1.88175000E-03
		-2.77203000E-05	 8.24425000E-03	-2.48853000E-05
		-1.51277000E-03	 1.05250000E-02	-8.75061000E-04
		-2.63460000E-03	 8.25525000E-03	-1.79207000E-03
		-4.16993000E-05	 9.06899000E-03	-3.27995000E-05
		-2.96442000E-03	 9.05289000E-03	-1.91146000E-03
		-2.00451000E-05	 5.61932000E-03	-2.94165000E-05
		-1.49359000E-03	 7.60120000E-03	-9.24977000E-04
		-2.66502000E-03	 5.62620000E-03	-1.80661000E-03
		 2.89058000E-03	 1.05402000E-02	 1.79961000E-03
		 2.87742000E-03	 7.61080000E-03	 1.81072000E-03
		 2.58100000E-03	 8.27633000E-03	 1.73932000E-03
		 1.42129000E-03	 1.05356000E-02	 8.13983000E-04
		 2.88378000E-03	 9.07375000E-03	 1.84453000E-03
		 2.62592000E-03	 5.64501000E-03	 1.74527000E-03
		 1.42107000E-03	 7.60982000E-03	 8.55201000E-04
		-2.69411000E-05	 4.70305000E-03	-3.84107000E-05
		-2.93527000E-03	 4.67545000E-03	-1.87083000E-03
		-3.13280000E-05	 6.15437000E-03	-3.62497000E-05
		-2.94293000E-03	 6.13464000E-03	-1.85513000E-03
		-1.26416000E-05	 2.95265000E-03	-3.25047000E-05
		-1.47892000E-03	 4.68990000E-03	-9.44340000E-04
		-2.71049000E-03	 2.94990000E-03	-1.80013000E-03
		 2.87981000E-03	 4.69632000E-03	 1.79217000E-03
		 2.87954000E-03	 6.15414000E-03	 1.78079000E-03
		 2.68507000E-03	 2.96866000E-03	 1.73316000E-03
		 1.42472000E-03	 4.69991000E-03	 8.66925000E-04
		-8.11355000E-05	 1.42738000E-02	-4.34690000E-05
		-3.25904000E-03	 1.41941000E-02	-1.23640000E-03
		-7.13894000E-05	 1.11900000E-02	-4.74288000E-05
		-3.07638000E-03	 1.11015000E-02	-1.24791000E-03
		-6.50641000E-05	 1.26650000E-02	-3.70946000E-05
		-1.66734000E-03	 1.42572000E-02	-6.35716000E-04
		-3.20348000E-03	 1.26197000E-02	-1.66297000E-03
		-7.67920000E-05	 1.27110000E-02	-4.55573000E-05
		-3.16813000E-03	 1.26233000E-02	-1.23117000E-03
		-5.46015000E-05	 9.58439000E-03	-4.11851000E-05
		-1.57524000E-03	 1.11702000E-02	-6.31157000E-04
		-3.08858000E-03	 9.53009000E-03	-1.68528000E-03
		 3.10388000E-03	 1.42176000E-02	 1.15042000E-03
		 2.93818000E-03	 1.11161000E-02	 1.15404000E-03
		 3.07902000E-03	 1.26441000E-02	 1.58939000E-03
		 1.50697000E-03	 1.42695000E-02	 5.49001000E-04
		 3.02135000E-03	 1.26412000E-02	 1.14108000E-03
		 2.98231000E-03	 9.54768000E-03	 1.60286000E-03
		 1.43405000E-03	 1.11766000E-02	 5.36550000E-04
		-6.13963000E-05	 8.26016000E-03	-5.27764000E-05
		-2.90887000E-03	 8.17113000E-03	-1.24507000E-03
		-6.59541000E-05	 9.70280000E-03	-4.96421000E-05
		-2.99297000E-03	 9.61471000E-03	-1.26820000E-03
		-4.41670000E-05	 6.59498000E-03	-4.55832000E-05
		-1.48588000E-03	 8.23894000E-03	-6.11169000E-04
		-2.99445000E-03	 6.53265000E-03	-1.67247000E-03
		 2.78683000E-03	 8.18382000E-03	 1.14042000E-03
		 2.86331000E-03	 9.62799000E-03	 1.16974000E-03
		 2.90561000E-03	 6.55004000E-03	 1.58053000E-03
		 1.36337000E-03	 8.24411000E-03	 5.05949000E-04
		-9.25970000E-05	 1.49473000E-02	-5.35848000E-05
		-2.82310000E-03	 1.48932000E-02	-1.75057000E-04
		-8.64696000E-05	 1.22769000E-02	-5.75953000E-05
		-2.70394000E-03	 1.22187000E-02	-1.61090000E-04
		-8.96068000E-05	 1.50184000E-02	-4.89781000E-05
		-1.45602000E-03	 1.49360000E-02	-1.99138000E-04
		-3.10916000E-03	 1.49489000E-02	-6.63253000E-04
		-8.95941000E-05	 1.35976000E-02	-5.55576000E-05
		-2.76345000E-03	 1.35398000E-02	-1.19752000E-04
		-8.15765000E-05	 1.20897000E-02	-5.28144000E-05
		-1.39527000E-03	 1.22643000E-02	-1.47713000E-04
		-2.93002000E-03	 1.20124000E-02	-6.59870000E-04
		 2.64095000E-03	 1.49073000E-02	 6.87520000E-05
		 2.53283000E-03	 1.22291000E-02	 4.72989000E-05
		 2.93567000E-03	 1.49678000E-02	 5.65954000E-04
		 1.27161000E-03	 1.49433000E-02	 9.25912000E-05
		 2.58715000E-03	 1.35515000E-02	 9.16593000E-06
		 2.77058000E-03	 1.20241000E-02	 5.55486000E-04
		 1.22296000E-03	 1.22691000E-02	 3.29429000E-05
		-8.03671000E-05	 9.71017000E-03	-6.21072000E-05
		-2.58809000E-03	 9.65508000E-03	-1.82108000E-04
		-8.33421000E-05	 1.09787000E-02	-5.98674000E-05
		-2.64594000E-03	 1.09206000E-02	-1.98447000E-04
		-7.35617000E-05	 9.31802000E-03	-5.82741000E-05
		-1.33614000E-03	 9.69855000E-03	-1.31262000E-04
		-2.76072000E-03	 9.24364000E-03	-6.70632000E-04
		 2.42749000E-03	 9.66488000E-03	 5.98740000E-05
		 2.48001000E-03	 1.09304000E-02	 8.07893000E-05
		 2.61449000E-03	 9.25341000E-03	 5.55875000E-04
		 1.17545000E-03	 9.70324000E-03	 7.46840000E-06
		-9.23882000E-05	 1.37911000E-02	-6.50913000E-05
		-2.14525000E-03	 1.38294000E-02	-1.34145000E-04
		-8.88409000E-05	 1.16869000E-02	-6.18196000E-05
		-2.23995000E-03	 1.17286000E-02	-1.12490000E-04
		-9.41862000E-05	 1.43743000E-02	-5.85668000E-05
		-1.12102000E-03	 1.37960000E-02	-1.80111000E-04
		-2.47449000E-03	 1.43646000E-02	 1.99282000E-06
		-9.10902000E-05	 1.27514000E-02	-6.35202000E-05
		-2.19294000E-03	 1.27936000E-02	-8.08995000E-05
		-8.95869000E-05	 1.19964000E-02	-6.08096000E-05
		-1.16425000E-03	 1.16931000E-02	-1.27281000E-04
		-2.46346000E-03	 1.19879000E-02	 2.33014000E-05
		 1.95898000E-03	 1.38344000E-02	 3.70011000E-06
		 2.06050000E-03	 1.17375000E-02	-1.13133000E-05
		 2.28643000E-03	 1.43738000E-02	-1.18724000E-04
		 9.36069000E-04	 1.37987000E-02	 4.98757000E-05
		 2.00928000E-03	 1.28005000E-02	-4.63212000E-05
		 2.28387000E-03	 1.19979000E-02	-1.43867000E-04
		 9.86354000E-04	 1.16977000E-02	 3.57443000E-06
		-8.28682000E-05	 9.49321000E-03	-5.83010000E-05
		-2.32999000E-03	 9.52967000E-03	-1.27560000E-04
		-8.61113000E-05	 1.06034000E-02	-6.00673000E-05
		-2.28519000E-03	 1.06437000E-02	-1.39213000E-04
		-8.37458000E-05	 9.62676000E-03	-6.25339000E-05
		-1.20437000E-03	 9.49725000E-03	-1.11451000E-04
		-2.44846000E-03	 9.61884000E-03	-1.53054000E-06
		 2.16172000E-03	 9.54385000E-03	 1.08338000E-05
		 2.11069000E-03	 1.06551000E-02	 1.89313000E-05
		 2.27936000E-03	 9.63139000E-03	-1.21822000E-04
		 1.03825000E-03	 9.50463000E-03	-5.24328000E-06
		-6.92396000E-05	 1.42284000E-02	-7.83600000E-05
		-1.65829000E-03	 1.42992000E-02	-1.17275000E-03
		-6.70234000E-05	 1.25519000E-02	-6.54934000E-05
		-1.82678000E-03	 1.26304000E-02	-1.16064000E-03
		-8.32055000E-05	 1.36465000E-02	-7.28025000E-05
		-8.66725000E-04	 1.42411000E-02	-6.35412000E-04
		-1.86745000E-03	 1.37049000E-02	-5.98178000E-04
		-6.82626000E-05	 1.34097000E-02	-7.09477000E-05
		-1.74234000E-03	 1.34873000E-02	-1.14679000E-03
		-8.04434000E-05	 1.17801000E-02	-6.26761000E-05
		-9.48472000E-04	 1.25687000E-02	-6.00020000E-04
		-2.02670000E-03	 1.18443000E-02	-5.78730000E-04
		 1.52119000E-03	 1.43070000E-02	 1.01806000E-03
		 1.69491000E-03	 1.26370000E-02	 1.03025000E-03
		 1.70011000E-03	 1.37085000E-02	 4.52658000E-04
		 7.28816000E-04	 1.42449000E-02	 4.79165000E-04
		 1.60766000E-03	 1.34944000E-02	 1.00690000E-03
		 1.86503000E-03	 1.18509000E-02	 4.52541000E-04
		 8.15388000E-04	 1.25716000E-02	 4.69446000E-04
		-6.38802000E-05	 1.07134000E-02	-5.30295000E-05
		-1.98754000E-03	 1.07920000E-02	-1.13533000E-03
		-6.56157000E-05	 1.16563000E-02	-6.02213000E-05
		-1.90812000E-03	 1.17345000E-02	-1.17775000E-03
		-7.57760000E-05	 9.76178000E-03	-5.28004000E-05
		-1.02618000E-03	 1.07318000E-02	-5.50948000E-04
		-2.18178000E-03	 9.81949000E-03	-5.76707000E-04
		 1.86201000E-03	 1.07966000E-02	 1.02858000E-03
		 1.77935000E-03	 1.17405000E-02	 1.05633000E-03
		 2.02879000E-03	 9.82985000E-03	 4.69351000E-04
		 8.99170000E-04	 1.07330000E-02	 4.45500000E-04
		-5.55304000E-05	 1.73267000E-02	-7.79904000E-05
		-1.58951000E-03	 1.73363000E-02	-1.74952000E-03
		-5.63191000E-05	 1.57655000E-02	-7.29717000E-05
		-1.61688000E-03	 1.57778000E-02	-1.74157000E-03
		-5.86015000E-05	 1.56114000E-02	-7.90018000E-05
		-8.24184000E-04	 1.73301000E-02	-8.88943000E-04
		-1.57949000E-03	 1.56365000E-02	-1.58503000E-03
		-5.57820000E-05	 1.65525000E-02	-7.52848000E-05
		-1.59948000E-03	 1.65652000E-02	-1.75510000E-03
		-5.75523000E-05	 1.40359000E-02	-6.96935000E-05
		-8.31287000E-04	 1.57724000E-02	-8.85327000E-04
		-1.68076000E-03	 1.40673000E-02	-1.57701000E-03
		 1.48300000E-03	 1.73603000E-02	 1.59765000E-03
		 1.51208000E-03	 1.57953000E-02	 1.60051000E-03
		 1.46595000E-03	 1.56520000E-02	 1.43201000E-03
		 7.14336000E-04	 1.73440000E-02	 7.34001000E-04
		 1.49441000E-03	 1.65859000E-02	 1.60903000E-03
		 1.57157000E-03	 1.40777000E-02	 1.44143000E-03
		 7.21413000E-04	 1.57817000E-02	 7.40715000E-04
		-5.55938000E-05	 1.41487000E-02	-6.98580000E-05
		-1.62158000E-03	 1.41738000E-02	-1.68807000E-03
		-5.62823000E-05	 1.49533000E-02	-7.11491000E-05
		-1.62247000E-03	 1.49745000E-02	-1.72662000E-03
		-5.54112000E-05	 1.23621000E-02	-6.17279000E-05
		-8.32651000E-04	 1.41618000E-02	-8.43809000E-04
		-1.76632000E-03	 1.23967000E-02	-1.53269000E-03
		 1.52020000E-03	 1.41799000E-02	 1.55430000E-03
		 1.51926000E-03	 1.49877000E-02	 1.58953000E-03
		 1.66269000E-03	 1.23985000E-02	 1.41203000E-03
		 7.24156000E-04	 1.41637000E-02	 7.05957000E-04
		 0.00000000E+00	 0.00000000E+00	 0.00000000E+00
		 0.00000000E+00	 0.00000000E+00	 0.00000000E+00
		-3.33257000E-05	-4.55819000E-03	 1.92815000E-04
		-4.32547000E-04	-4.77527000E-03	 3.89463000E-03
		 0.00000000E+00	 0.00000000E+00	 0.00000000E+00
		 0.00000000E+00	 0.00000000E+00	 0.00000000E+00
		-3.34201000E-06	-4.74870000E-03	 1.92159000E-04
		 6.81380000E-06	-4.98637000E-03	 3.95253000E-03
		 0.00000000E+00	 0.00000000E+00	 0.00000000E+00
		-3.09374000E-05	-1.19868000E-03	 9.50883000E-05
		-2.33061000E-04	-4.58767000E-03	 1.96393000E-03
		-5.61851000E-04	-1.54322000E-03	 2.07994000E-03
		 0.00000000E+00	 0.00000000E+00	 0.00000000E+00
		 0.00000000E+00	 0.00000000E+00	 0.00000000E+00
		-1.80548000E-05	-4.72811000E-03	 1.91413000E-04
		-2.09481000E-04	-4.95582000E-03	 3.92652000E-03
		 0.00000000E+00	 0.00000000E+00	 0.00000000E+00
		-1.43550000E-07	-1.41039000E-03	 8.81421000E-05
		 6.13339000E-07	-4.78535000E-03	 1.99170000E-03
		 3.15938000E-05	-1.76274000E-03	 2.03005000E-03
		 0.00000000E+00	 0.00000000E+00	 0.00000000E+00
		 3.64772000E-04	-4.68553000E-03	-3.51708000E-03
		 0.00000000E+00	 0.00000000E+00	 0.00000000E+00
		-1.34814000E-05	-4.89019000E-03	-3.57717000E-03
		 0.00000000E+00	 0.00000000E+00	 0.00000000E+00
		 4.98042000E-04	-1.46720000E-03	-1.88117000E-03
		 1.66520000E-04	-4.54331000E-03	-1.58167000E-03
		 0.00000000E+00	 0.00000000E+00	 0.00000000E+00
		 1.72127000E-04	-4.86156000E-03	-3.55271000E-03
		 0.00000000E+00	 0.00000000E+00	 0.00000000E+00
		-3.17820000E-05	-1.68576000E-03	-1.84452000E-03
		-8.62867000E-06	-4.73743000E-03	-1.61206000E-03
		 0.00000000E+00	 0.00000000E+00	 0.00000000E+00
		 0.00000000E+00	 0.00000000E+00	 0.00000000E+00
		 2.69018000E-05	-4.53635000E-03	 1.90552000E-04
		 4.48594000E-04	-4.75496000E-03	 3.89363000E-03
		 0.00000000E+00	 0.00000000E+00	 0.00000000E+00
		 0.00000000E+00	 0.00000000E+00	 0.00000000E+00
		 1.17241000E-05	-4.71744000E-03	 1.90680000E-04
		 2.24270000E-04	-4.93947000E-03	 3.93739000E-03
		 0.00000000E+00	 0.00000000E+00	 0.00000000E+00
		 3.08557000E-05	-1.13423000E-03	 9.40716000E-05
		 2.38668000E-04	-4.56726000E-03	 1.95065000E-03
		 6.25087000E-04	-1.47948000E-03	 2.07911000E-03
		 0.00000000E+00	 0.00000000E+00	 0.00000000E+00
		-3.97778000E-04	-4.65863000E-03	-3.52045000E-03
		 0.00000000E+00	 0.00000000E+00	 0.00000000E+00
		-2.02513000E-04	-4.84869000E-03	-3.56404000E-03
		 0.00000000E+00	 0.00000000E+00	 0.00000000E+00
		-5.64132000E-04	-1.40105000E-03	-1.88276000E-03
		-1.85783000E-04	-4.51958000E-03	-1.57402000E-03
		-3.46338000E-05	-1.49701000E-02	 3.23514000E-04
		-4.61086000E-04	-1.51144000E-02	 6.06309000E-03
		-8.62593000E-06	-1.53140000E-02	 3.23802000E-04
		-2.72627000E-04	-1.54517000E-02	 6.09338000E-03
		-3.50531000E-05	-9.27813000E-03	 2.68502000E-04
		-2.49663000E-04	-1.50267000E-02	 3.15499000E-03
		-4.14561000E-04	-9.50161000E-03	 5.20266000E-03
		-2.22651000E-05	-1.51592000E-02	 3.22187000E-04
		-3.66041000E-04	-1.52955000E-02	 6.06108000E-03
		-8.44549000E-06	-9.51461000E-03	 2.67046000E-04
		-1.33945000E-04	-1.53655000E-02	 3.15473000E-03
		-9.41895000E-05	-9.72894000E-03	 5.23136000E-03
		 3.93312000E-04	-1.49953000E-02	-5.42432000E-03
		 2.49701000E-04	-1.53366000E-02	-5.45189000E-03
		 3.42534000E-04	-9.39335000E-03	-4.67461000E-03
		 1.80659000E-04	-1.49672000E-02	-2.51058000E-03
		 3.21730000E-04	-1.51830000E-02	-5.42174000E-03
		 7.65160000E-05	-9.62072000E-03	-4.70607000E-03
		 1.20151000E-04	-1.53090000E-02	-2.50574000E-03
		 1.44161000E-05	-1.54922000E-02	 3.25544000E-04
		-4.72579000E-05	-1.56026000E-02	 6.06434000E-03
		 2.33623000E-06	-1.54149000E-02	 3.26475000E-04
		-1.59202000E-04	-1.55752000E-02	 6.12531000E-03
		 1.88411000E-05	-9.45034000E-03	 2.66384000E-04
		-2.58936000E-05	-1.55266000E-02	 3.09881000E-03
		 2.46560000E-04	-9.65235000E-03	 5.20100000E-03
		 9.83650000E-05	-1.55027000E-02	-5.42030000E-03
		 1.73057000E-04	-1.54391000E-02	-5.48171000E-03
		-1.99447000E-04	-9.55071000E-03	-4.67501000E-03
		 6.08857000E-05	-1.54784000E-02	-2.44539000E-03
		 2.32547000E-06	-2.74271000E-02	 3.84563000E-04
		-8.12053000E-04	-2.73714000E-02	 6.29057000E-03
		 2.79738000E-05	-2.82788000E-02	 4.10125000E-04
		-9.07976000E-04	-2.83271000E-02	 6.35188000E-03
		-2.27588000E-05	-2.11776000E-02	 3.59871000E-04
		-4.00481000E-04	-2.74136000E-02	 3.30182000E-03
		-5.90017000E-04	-2.12445000E-02	 6.43121000E-03
		 1.59991000E-05	-2.78407000E-02	 4.02008000E-04
		-8.63290000E-04	-2.78489000E-02	 6.27195000E-03
		 1.45148000E-06	-2.17268000E-02	 3.68527000E-04
		-4.63096000E-04	-2.83218000E-02	 3.28063000E-03
		-5.38287000E-04	-2.18009000E-02	 6.47731000E-03
		 7.79277000E-04	-2.73080000E-02	-5.50359000E-03
		 9.58907000E-04	-2.81685000E-02	-5.54830000E-03
		 5.36730000E-04	-2.11330000E-02	-5.71425000E-03
		 3.92570000E-04	-2.73860000E-02	-2.52112000E-03
		 8.67548000E-04	-2.77183000E-02	-5.47841000E-03
		 5.40910000E-04	-2.16713000E-02	-5.74416000E-03
		 4.94446000E-04	-2.82468000E-02	-2.48005000E-03
		 4.81812000E-05	-2.92792000E-02	 4.31563000E-04
		-1.08982000E-03	-2.94420000E-02	 6.33577000E-03
		 3.87725000E-05	-2.87756000E-02	 4.18054000E-04
		-1.00021000E-03	-2.87533000E-02	 6.44535000E-03
		 3.34319000E-05	-2.22505000E-02	 3.77092000E-04
		-4.90203000E-04	-2.93845000E-02	 3.17888000E-03
		-4.99714000E-04	-2.23427000E-02	 6.45228000E-03
		 1.13726000E-03	-2.91866000E-02	-5.51659000E-03
		 1.04717000E-03	-2.86571000E-02	-5.62727000E-03
		 5.23888000E-04	-2.21784000E-02	-5.70440000E-03
		 5.86915000E-04	-2.92639000E-02	-2.36020000E-03
		 1.29322000E-04	-3.73829000E-02	 4.57163000E-04
		-1.43315000E-03	-3.70754000E-02	 4.05722000E-03
		 1.49823000E-04	-3.92689000E-02	 5.19864000E-04
		-2.04709000E-03	-3.94038000E-02	 4.13310000E-03
		 2.34023000E-05	-3.30822000E-02	 4.15665000E-04
		-6.56024000E-04	-3.72972000E-02	 2.29461000E-03
		-1.09430000E-03	-3.29938000E-02	 5.42949000E-03
		 1.40161000E-04	-3.82260000E-02	 4.89074000E-04
		-1.73058000E-03	-3.80811000E-02	 4.03312000E-03
		 4.17497000E-05	-3.44277000E-02	 4.13994000E-04
		-8.24889000E-04	-3.93913000E-02	 2.29900000E-03
		-1.48230000E-03	-3.42704000E-02	 5.54423000E-03
		 1.52781000E-03	-3.71194000E-02	-3.13775000E-03
		 2.05500000E-03	-3.88404000E-02	-3.08736000E-03
		 1.11858000E-03	-3.28864000E-02	-4.58888000E-03
		 8.30689000E-04	-3.73242000E-02	-1.37847000E-03
		 1.79428000E-03	-3.79067000E-02	-3.05014000E-03
		 1.49877000E-03	-3.41807000E-02	-4.60644000E-03
		 1.08936000E-03	-3.91017000E-02	-1.25827000E-03
		 3.28250000E-05	-4.16734000E-02	 5.76811000E-04
		-2.51654000E-03	-4.21725000E-02	 4.17702000E-03
		 9.33325000E-05	-4.03676000E-02	 5.49059000E-04
		-2.28090000E-03	-4.12063000E-02	 4.23461000E-03
		 3.67540000E-05	-3.61197000E-02	 3.82158000E-04
		-1.35869000E-03	-4.19600000E-02	 2.27118000E-03
		-1.69811000E-03	-3.58452000E-02	 5.53039000E-03
		 2.58989000E-03	-4.10930000E-02	-3.01680000E-03