<?xml version="1.0"?>
<VTKFile type="UnstructuredGrid" version="0.1" byte_order="LittleEndian">
	<UnstructuredGrid>
		<Piece NumberOfPoints="522" NumberOfCells="64">
			<Points>
				<DataArray type="Float64" NumberOfComponents="3" format="ascii">
					 1.00000000E+00	 1.00000000E+00	-5.96046000E-08
					 1.00000000E+00	 5.00000000E-01	-5.96046000E-08
					 1.00000000E+00	 5.00000000E-01	 1.00000000E+00
					 1.00000000E+00	 1.00000000E+00	 1.00000000E+00
					 5.00000000E-01	 1.00000000E+00	-5.96046000E-08
					 5.00000000E-01	 5.00000000E-01	-5.96046000E-08
					 5.00000000E-01	 5.00000000E-01	 1.00000000E+00
					 5.00000000E-01	 1.00000000E+00	 1.00000000E+00
					 1.00000000E+00	 7.50000000E-01	-5.96046000E-08
					 1.00000000E+00	 5.00000000E-01	 5.00000000E-01
					 1.00000000E+00	 7.50000000E-01	 1.00000000E+00
					 1.00000000E+00	 1.00000000E+00	 5.00000000E-01
					 7.50000000E-01	 1.00000000E+00	-5.96046000E-08
					 7.50000000E-01	 5.00000000E-01	-5.96046000E-08
					 7.50000000E-01	 5.00000000E-01	 1.00000000E+00
					 7.50000000E-01	 1.00000000E+00	 1.00000000E+00
					 5.00000000E-01	 7.50000000E-01	-5.96046000E-08
					 5.00000000E-01	 5.00000000E-01	 5.00000000E-01
					 5.00000000E-01	 7.50000000E-01	 1.00000000E+00
					 5.00000000E-01	 1.00000000E+00	 5.00000000E-01
					 1.00000000E+00	-1.49012000E-08	-5.96046000E-08
					 1.00000000E+00	-1.49012000E-08	 1.00000000E+00
					 5.00000000E-01	-1.49012000E-08	-5.96046000E-08
					 5.00000000E-01	-1.49012000E-08	 1.00000000E+00
					 1.00000000E+00	 2.50000000E-01	-5.96046000E-08
					 1.00000000E+00	-1.49012000E-08	 5.00000000E-01
					 1.00000000E+00	 2.50000000E-01	 1.00000000E+00
					 7.50000000E-01	-1.49012000E-08	-5.96046000E-08
					 7.50000000E-01	-1.49012000E-08	 1.00000000E+00
					 5.00000000E-01	 2.50000000E-01	-5.96046000E-08
					 5.00000000E-01	-1.49012000E-08	 5.00000000E-01
					 5.00000000E-01	 2.50000000E-01	 1.00000000E+00
					-7.45058000E-09	 1.00000000E+00	-5.96046000E-08
					-7.45058000E-09	 5.00000000E-01	-5.96046000E-08
					-7.45058000E-09	 5.00000000E-01	 1.00000000E+00
					-7.45058000E-09	 1.00000000E+00	 1.00000000E+00
					 2.50000000E-01	 1.00000000E+00	-5.96046000E-08
					 2.50000000E-01	 5.00000000E-01	-5.96046000E-08
					 2.50000000E-01	 5.00000000E-01	 1.00000000E+00
					 2.50000000E-01	 1.00000000E+00	 1.00000000E+00
					-7.45058000E-09	 7.50000000E-01	-5.96046000E-08
					-7.45058000E-09	 5.00000000E-01	 5.00000000E-01
					-7.45058000E-09	 7.50000000E-01	 1.00000000E+00
					-7.45058000E-09	 1.00000000E+00	 5.00000000E-01
					-7.45058000E-09	-1.49012000E-08	-5.96046000E-08
					-7.45058000E-09	-1.49012000E-08	 1.00000000E+00
					 2.50000000E-01	-1.49012000E-08	-5.96046000E-08
					 2.50000000E-01	-1.49012000E-08	 1.00000000E+00
					-7.45058000E-09	 2.50000000E-01	-5.96046000E-08
					-7.45058000E-09	-1.49012000E-08	 5.00000000E-01
					-7.45058000E-09	 2.50000000E-01	 1.00000000E+00
					 1.00000000E+00	 5.00000000E-01	 2.00000000E+00
					 1.00000000E+00	 1.00000000E+00	 2.00000000E+00
					 5.00000000E-01	 5.00000000E-01	 2.00000000E+00
					 5.00000000E-01	 1.00000000E+00	 2.00000000E+00
					 1.00000000E+00	 5.00000000E-01	 1.50000000E+00
					 1.00000000E+00	 7.50000000E-01	 2.00000000E+00
					 1.00000000E+00	 1.00000000E+00	 1.50000000E+00
					 7.50000000E-01	 5.00000000E-01	 2.00000000E+00
					 7.50000000E-01	 1.00000000E+00	 2.00000000E+00
					 5.00000000E-01	 5.00000000E-01	 1.50000000E+00
					 5.00000000E-01	 7.50000000E-01	 2.00000000E+00
					 5.00000000E-01	 1.00000000E+00	 1.50000000E+00
					 1.00000000E+00	-1.49012000E-08	 2.00000000E+00
					 5.00000000E-01	-1.49012000E-08	 2.00000000E+00
					 1.00000000E+00	-1.49012000E-08	 1.50000000E+00
					 1.00000000E+00	 2.50000000E-01	 2.00000000E+00
					 7.50000000E-01	-1.49012000E-08	 2.00000000E+00
					 5.00000000E-01	-1.49012000E-08	 1.50000000E+00
					 5.00000000E-01	 2.50000000E-01	 2.00000000E+00
					-7.45058000E-09	 5.00000000E-01	 2.00000000E+00
					-7.45058000E-09	 1.00000000E+00	 2.00000000E+00
					 2.50000000E-01	 5.00000000E-01	 2.00000000E+00
					 2.50000000E-01	 1.00000000E+00	 2.00000000E+00
					-7.45058000E-09	 5.00000000E-01	 1.50000000E+00
					-7.45058000E-09	 7.50000000E-01	 2.00000000E+00
					-7.45058000E-09	 1.00000000E+00	 1.50000000E+00
					-7.45058000E-09	-1.49012000E-08	 2.00000000E+00
					 2.50000000E-01	-1.49012000E-08	 2.00000000E+00
					-7.45058000E-09	-1.49012000E-08	 1.50000000E+00
					-7.45058000E-09	 2.50000000E-01	 2.00000000E+00
					 1.00000000E+00	 5.00000000E-01	 3.00000000E+00
					 1.00000000E+00	 1.00000000E+00	 3.00000000E+00
					 5.00000000E-01	 5.00000000E-01	 3.00000000E+00
					 5.00000000E-01	 1.00000000E+00	 3.00000000E+00
					 1.00000000E+00	 5.00000000E-01	 2.50000000E+00
					 1.00000000E+00	 7.50000000E-01	 3.00000000E+00
					 1.00000000E+00	 1.00000000E+00	 2.50000000E+00
					 7.50000000E-01	 5.00000000E-01	 3.00000000E+00
					 7.50000000E-01	 1.00000000E+00	 3.00000000E+00
					 5.00000000E-01	 5.00000000E-01	 2.50000000E+00
					 5.00000000E-01	 7.50000000E-01	 3.00000000E+00
					 5.00000000E-01	 1.00000000E+00	 2.50000000E+00
					 1.00000000E+00	-1.49012000E-08	 3.00000000E+00
					 5.00000000E-01	-1.49012000E-08	 3.00000000E+00
					 1.00000000E+00	-1.49012000E-08	 2.50000000E+00
					 1.00000000E+00	 2.50000000E-01	 3.00000000E+00
					 7.50000000E-01	-1.49012000E-08	 3.00000000E+00
					 5.00000000E-01	-1.49012000E-08	 2.50000000E+00
					 5.00000000E-01	 2.50000000E-01	 3.00000000E+00
					-7.45058000E-09	 5.00000000E-01	 3.00000000E+00
					-7.45058000E-09	 1.00000000E+00	 3.00000000E+00
					 2.50000000E-01	 5.00000000E-01	 3.00000000E+00
					 2.50000000E-01	 1.00000000E+00	 3.00000000E+00
					-7.45058000E-09	 5.00000000E-01	 2.50000000E+00
					-7.45058000E-09	 7.50000000E-01	 3.00000000E+00
					-7.45058000E-09	 1.00000000E+00	 2.50000000E+00
					-7.45058000E-09	-1.49012000E-08	 3.00000000E+00
					 2.50000000E-01	-1.49012000E-08	 3.00000000E+00
					-7.45058000E-09	-1.49012000E-08	 2.50000000E+00
					-7.45058000E-09	 2.50000000E-01	 3.00000000E+00
					 1.00000000E+00	 5.00000000E-01	 4.00000000E+00
					 1.00000000E+00	 1.00000000E+00	 4.00000000E+00
					 5.00000000E-01	 5.00000000E-01	 4.00000000E+00
					 5.00000000E-01	 1.00000000E+00	 4.00000000E+00
					 1.00000000E+00	 5.00000000E-01	 3.50000000E+00
					 1.00000000E+00	 7.50000000E-01	 4.00000000E+00
					 1.00000000E+00	 1.00000000E+00	 3.50000000E+00
					 7.50000000E-01	 5.00000000E-01	 4.00000000E+00
					 7.50000000E-01	 1.00000000E+00	 4.00000000E+00
					 5.00000000E-01	 5.00000000E-01	 3.50000000E+00
					 5.00000000E-01	 7.50000000E-01	 4.00000000E+00
					 5.00000000E-01	 1.00000000E+00	 3.50000000E+00
					 1.00000000E+00	-1.49012000E-08	 4.00000000E+00
					 5.00000000E-01	-1.49012000E-08	 4.00000000E+00
					 1.00000000E+00	-1.49012000E-08	 3.50000000E+00
					 1.00000000E+00	 2.50000000E-01	 4.00000000E+00
					 7.50000000E-01	-1.49012000E-08	 4.00000000E+00
					 5.00000000E-01	-1.49012000E-08	 3.50000000E+00
					 5.00000000E-01	 2.50000000E-01	 4.00000000E+00
					-7.45058000E-09	 5.00000000E-01	 4.00000000E+00
					-7.45058000E-09	 1.00000000E+00	 4.00000000E+00
					 2.50000000E-01	 5.00000000E-01	 4.00000000E+00
					 2.50000000E-01	 1.00000000E+00	 4.00000000E+00
					-7.45058000E-09	 5.00000000E-01	 3.50000000E+00
					-7.45058000E-09	 7.50000000E-01	 4.00000000E+00
					-7.45058000E-09	 1.00000000E+00	 3.50000000E+00
					-7.45058000E-09	-1.49012000E-08	 4.00000000E+00
					 2.50000000E-01	-1.49012000E-08	 4.00000000E+00
					-7.45058000E-09	-1.49012000E-08	 3.50000000E+00
					-7.45058000E-09	 2.50000000E-01	 4.00000000E+00
					 1.00000000E+00	 5.00000000E-01	 5.00000000E+00
					 1.00000000E+00	 1.00000000E+00	 5.00000000E+00
					 5.00000000E-01	 5.00000000E-01	 5.00000000E+00
					 5.00000000E-01	 1.00000000E+00	 5.00000000E+00
					 1.00000000E+00	 5.00000000E-01	 4.50000000E+00
					 1.00000000E+00	 7.50000000E-01	 5.00000000E+00
					 1.00000000E+00	 1.00000000E+00	 4.50000000E+00
					 7.50000000E-01	 5.00000000E-01	 5.00000000E+00
					 7.50000000E-01	 1.00000000E+00	 5.00000000E+00
					 5.00000000E-01	 5.00000000E-01	 4.50000000E+00
					 5.00000000E-01	 7.50000000E-01	 5.00000000E+00
					 5.00000000E-01	 1.00000000E+00	 4.50000000E+00
					 1.00000000E+00	-1.49012000E-08	 5.00000000E+00
					 5.00000000E-01	-1.49012000E-08	 5.00000000E+00
					 1.00000000E+00	-1.49012000E-08	 4.50000000E+00
					 1.00000000E+00	 2.50000000E-01	 5.00000000E+00
					 7.50000000E-01	-1.49012000E-08	 5.00000000E+00
					 5.00000000E-01	-1.49012000E-08	 4.50000000E+00
					 5.00000000E-01	 2.50000000E-01	 5.00000000E+00
					-7.45058000E-09	 5.00000000E-01	 5.00000000E+00
					-7.45058000E-09	 1.00000000E+00	 5.00000000E+00
					 2.50000000E-01	 5.00000000E-01	 5.00000000E+00
					 2.50000000E-01	 1.00000000E+00	 5.00000000E+00
					-7.45058000E-09	 5.00000000E-01	 4.50000000E+00
					-7.45058000E-09	 7.50000000E-01	 5.00000000E+00
					-7.45058000E-09	 1.00000000E+00	 4.50000000E+00
					-7.45058000E-09	-1.49012000E-08	 5.00000000E+00
					 2.50000000E-01	-1.49012000E-08	 5.00000000E+00
					-7.45058000E-09	-1.49012000E-08	 4.50000000E+00
					-7.45058000E-09	 2.50000000E-01	 5.00000000E+00
					 1.00000000E+00	 5.00000000E-01	 6.00000000E+00
					 1.00000000E+00	 1.00000000E+00	 6.00000000E+00
					 5.00000000E-01	 5.00000000E-01	 6.00000000E+00
					 5.00000000E-01	 1.00000000E+00	 6.00000000E+00
					 1.00000000E+00	 5.00000000E-01	 5.50000000E+00
					 1.00000000E+00	 7.50000000E-01	 6.00000000E+00
					 1.00000000E+00	 1.00000000E+00	 5.50000000E+00
					 7.50000000E-01	 5.00000000E-01	 6.00000000E+00
					 7.50000000E-01	 1.00000000E+00	 6.00000000E+00
					 5.00000000E-01	 5.00000000E-01	 5.50000000E+00
					 5.00000000E-01	 7.50000000E-01	 6.00000000E+00
					 5.00000000E-01	 1.00000000E+00	 5.50000000E+00
					 1.00000000E+00	-1.49012000E-08	 6.00000000E+00
[...]
			<PointData>
				<DataArray type="Float32" Name="U" NumberOfComponents="3" ComponentName0="D1" ComponentName1="D2" ComponentName2="D3" format="ascii">
					 0.00000000E+00	 0.00000000E+00	 0.00000000E+00
					 0.00000000E+00	 0.00000000E+00	 0.00000000E+00
					-2.57665000E-06	-1.57037000E-03	-2.29492000E-05
					-1.23428000E-04	-1.70527000E-03	 1.72290000E-03
					 0.00000000E+00	 0.00000000E+00	 0.00000000E+00
					 0.00000000E+00	 0.00000000E+00	 0.00000000E+00
					-6.86977000E-06	-1.54462000E-03	-2.82089000E-05
					 1.65865000E-04	-1.68494000E-03	 1.71792000E-03
					 0.00000000E+00	 0.00000000E+00	 0.00000000E+00
					-9.14842000E-07	-2.74319000E-04	-1.10637000E-05
					-6.43135000E-05	-1.59324000E-03	 8.47719000E-04
					-2.15526000E-04	-4.22875000E-04	 7.99138000E-04
					 0.00000000E+00	 0.00000000E+00	 0.00000000E+00
					 0.00000000E+00	 0.00000000E+00	 0.00000000E+00
					-4.76453000E-06	-1.60107000E-03	-2.56004000E-05
					 2.22944000E-05	-1.73916000E-03	 1.73706000E-03
					 0.00000000E+00	 0.00000000E+00	 0.00000000E+00
					-5.73836000E-06	-3.45727000E-04	-1.18959000E-05
					 7.80019000E-05	-1.56916000E-03	 8.59652000E-04
					 4.64028000E-05	-4.94674000E-04	 7.65944000E-04
					 0.00000000E+00	 0.00000000E+00	 0.00000000E+00
					 1.23318000E-04	-1.69797000E-03	-1.77005000E-03
					 0.00000000E+00	 0.00000000E+00	 0.00000000E+00
					-1.73691000E-04	-1.68573000E-03	-1.77506000E-03
					 0.00000000E+00	 0.00000000E+00	 0.00000000E+00
					 2.18370000E-04	-4.22954000E-04	-8.21300000E-04
					 6.03764000E-05	-1.58853000E-03	-8.93744000E-04
					 0.00000000E+00	 0.00000000E+00	 0.00000000E+00
					-2.58423000E-05	-1.73624000E-03	-1.78972000E-03
					 0.00000000E+00	 0.00000000E+00	 0.00000000E+00
					-5.25342000E-05	-5.00577000E-04	-7.91258000E-04
					-8.97719000E-05	-1.56960000E-03	-9.16200000E-04
					 0.00000000E+00	 0.00000000E+00	 0.00000000E+00
					 0.00000000E+00	 0.00000000E+00	 0.00000000E+00
					-1.04646000E-05	-1.22965000E-03	-3.05603000E-05
					 4.44358000E-04	-1.36789000E-03	 1.71468000E-03
					 0.00000000E+00	 0.00000000E+00	 0.00000000E+00
					 0.00000000E+00	 0.00000000E+00	 0.00000000E+00
					-8.78587000E-06	-1.43175000E-03	-2.98675000E-05
					 3.03367000E-04	-1.56769000E-03	 1.68095000E-03
					 0.00000000E+00	 0.00000000E+00	 0.00000000E+00
					-9.86976000E-06	-1.75552000E-04	-1.35441000E-05
					 2.19479000E-04	-1.25386000E-03	 8.90922000E-04
					 2.96527000E-04	-3.29648000E-04	 7.93871000E-04
					 0.00000000E+00	 0.00000000E+00	 0.00000000E+00
					-4.59433000E-04	-1.37520000E-03	-1.77592000E-03
					 0.00000000E+00	 0.00000000E+00	 0.00000000E+00
					-3.14877000E-04	-1.57134000E-03	-1.74058000E-03
					 0.00000000E+00	 0.00000000E+00	 0.00000000E+00
					-3.11401000E-04	-3.40753000E-04	-8.24191000E-04
					-2.38775000E-04	-1.25862000E-03	-9.52164000E-04
					-2.48279000E-05	-7.45306000E-03	-6.03462000E-05
					 2.69566000E-04	-7.67453000E-03	 4.08575000E-03
					-2.68929000E-05	-6.93648000E-03	-6.55216000E-05
					 7.02970000E-04	-7.16527000E-03	 4.06703000E-03
					-1.08545000E-05	-3.88147000E-03	-3.63288000E-05
					 1.23566000E-04	-7.51152000E-03	 1.99793000E-03
					 3.02648000E-05	-4.06659000E-03	 2.80952000E-03
					-2.60908000E-05	-7.24678000E-03	-6.42174000E-05
					 4.85379000E-04	-7.47298000E-03	 4.11858000E-03
					-1.35333000E-05	-3.65647000E-03	-4.50792000E-05
					 3.38686000E-04	-6.99987000E-03	 2.03124000E-03
					 3.92322000E-04	-3.84513000E-03	 2.78711000E-03
					-3.24576000E-04	-7.64852000E-03	-4.20742000E-03
					-7.61491000E-04	-7.13306000E-03	-4.19880000E-03
					-5.23715000E-05	-4.05576000E-03	-2.88509000E-03
					-1.74851000E-04	-7.49964000E-03	-2.11820000E-03
					-5.42503000E-04	-7.44290000E-03	-4.24866000E-03
					-4.19030000E-04	-3.83522000E-03	-2.87755000E-03
					-3.93925000E-04	-6.98317000E-03	-2.16244000E-03
					-2.83708000E-05	-5.98919000E-03	-6.91422000E-05
					 1.13463000E-03	-6.22084000E-03	 4.07826000E-03
					-2.73772000E-05	-6.51523000E-03	-6.64068000E-05
					 9.19501000E-04	-6.74543000E-03	 4.01374000E-03
					-1.57763000E-05	-3.06882000E-03	-5.03208000E-05
					 5.53202000E-04	-6.05459000E-03	 2.09287000E-03
					 7.43417000E-04	-3.26504000E-03	 2.79802000E-03
					-1.19447000E-03	-6.18171000E-03	-4.21690000E-03
					-9.78740000E-04	-6.71084000E-03	-4.14639000E-03
					-7.73828000E-04	-3.25565000E-03	-2.89662000E-03
					-6.10417000E-04	-6.03241000E-03	-2.23175000E-03
					-4.79391000E-05	-1.92504000E-02	-1.62923000E-04
					 7.95102000E-04	-1.95456000E-02	 7.19297000E-03
					-5.43131000E-05	-1.81391000E-02	-1.50848000E-04
					 1.30734000E-03	-1.84488000E-02	 7.20798000E-03
					-3.70014000E-05	-1.25043000E-02	-1.01138000E-04
					 3.77838000E-04	-1.93307000E-02	 3.47415000E-03
					 5.37681000E-04	-1.27680000E-02	 5.59090000E-03
					-5.11955000E-05	-1.87596000E-02	-1.58422000E-04
					 1.05096000E-03	-1.90663000E-02	 7.23990000E-03
					-4.22922000E-05	-1.16844000E-02	-9.81411000E-05
					 6.27099000E-04	-1.82265000E-02	 3.52907000E-03
					 1.01878000E-03	-1.19533000E-02	 5.58465000E-03
					-8.98434000E-04	-1.94400000E-02	-7.52499000E-03
					-1.41678000E-03	-1.83342000E-02	-7.51635000E-03
					-6.18494000E-04	-1.27092000E-02	-5.79431000E-03
					-4.75938000E-04	-1.92774000E-02	-3.80118000E-03
					-1.15779000E-03	-1.89539000E-02	-7.56329000E-03
					-1.10690000E-03	-1.18866000E-02	-5.78388000E-03
					-7.35611000E-04	-1.81675000E-02	-3.83230000E-03
					-5.58409000E-05	-1.65283000E-02	-1.31107000E-04
					 1.81933000E-03	-1.68347000E-02	 7.22479000E-03
					-5.64443000E-05	-1.74000000E-02	-1.41443000E-04
					 1.56225000E-03	-1.77098000E-02	 7.17560000E-03
					-4.50035000E-05	-1.03810000E-02	-9.22720000E-05
					 8.79243000E-04	-1.66147000E-02	 3.58756000E-03
					 1.50796000E-03	-1.06469000E-02	 5.59875000E-03
					-1.92659000E-03	-1.67192000E-02	-7.49405000E-03
					-1.67256000E-03	-1.75947000E-02	-7.46587000E-03
					-1.59878000E-03	-1.05743000E-02	-5.78790000E-03
					-9.89289000E-04	-1.65561000E-02	-3.85102000E-03
					-4.81591000E-05	-3.84873000E-02	-3.85119000E-04
					 1.75413000E-03	-3.87636000E-02	 1.00238000E-02
					-4.94396000E-05	-3.64923000E-02	-3.37344000E-04
					 2.11705000E-03	-3.67868000E-02	 1.01000000E-02
					-5.13640000E-05	-2.79409000E-02	-2.56161000E-04
					 8.56902000E-04	-3.85762000E-02	 4.67266000E-03
					 1.18095000E-03	-2.82252000E-02	 8.74208000E-03
					-4.88542000E-05	-3.75332000E-02	-3.61218000E-04
					 1.93526000E-03	-3.78244000E-02	 1.01540000E-02
					-5.56274000E-05	-2.64602000E-02	-2.29500000E-04
					 1.03418000E-03	-3.65927000E-02	 4.82441000E-03
					 1.65025000E-03	-2.67660000E-02	 8.78752000E-03
					-1.86279000E-03	-3.85503000E-02	-1.08026000E-02
					-2.22244000E-03	-3.65560000E-02	-1.07829000E-02
					-1.29234000E-03	-2.80663000E-02	-9.26366000E-03
					-9.56582000E-04	-3.84760000E-02	-5.44399000E-03
					-2.04346000E-03	-3.75969000E-02	-1.08864000E-02
					-1.76357000E-03	-2.65945000E-02	-9.25505000E-03
					-1.13490000E-03	-3.64784000E-02	-5.50081000E-03
					-4.68432000E-05	-3.41510000E-02	-2.82982000E-04
					 2.47332000E-03	-3.44507000E-02	 1.01282000E-02
					-4.91733000E-05	-3.53674000E-02	-3.12263000E-04
					 2.29355000E-03	-3.56622000E-02	 1.00538000E-02
					-5.53979000E-05	-2.45291000E-02	-1.93705000E-04
					 1.21434000E-03	-3.42560000E-02	 4.92805000E-03
					 2.10927000E-03	-2.48366000E-02	 8.80664000E-03
					-2.56734000E-03	-3.42150000E-02	-1.07014000E-02
					-2.39447000E-03	-3.54302000E-02	-1.06844000E-02
					-2.21535000E-03	-2.46650000E-02	-9.20135000E-03
					-1.30794000E-03	-3.41373000E-02	-5.49640000E-03
					-3.33661000E-05	-6.30837000E-02	-7.10484000E-04
					 3.22400000E-03	-6.32902000E-02	 1.11665000E-02
					-2.45343000E-05	-5.97780000E-02	-6.19111000E-04
					 3.33317000E-03	-5.99854000E-02	 1.12753000E-02
					-4.09513000E-05	-5.04327000E-02	-5.42169000E-04
					 1.59435000E-03	-6.31723000E-02	 5.08787000E-03
					 2.47174000E-03	-5.06733000E-02	 1.07974000E-02
					-2.82793000E-05	-6.14425000E-02	-6.65242000E-04
					 3.27944000E-03	-6.16509000E-02	 1.13253000E-02
					-3.88138000E-05	-4.78047000E-02	-4.71272000E-04
					 1.65503000E-03	-5.98709000E-02	 5.29157000E-03
					 2.69393000E-03	-4.80569000E-02	 1.08980000E-02
					-3.29958000E-03	-6.29921000E-02	-1.25881000E-02
					-3.38960000E-03	-5.96760000E-02	-1.25151000E-02
					-2.56716000E-03	-5.04152000E-02	-1.18871000E-02
					-1.66357000E-03	-6.30309000E-02	-6.50995000E-03
					-3.34474000E-03	-6.13408000E-02	-1.26560000E-02
					-2.78074000E-03	-4.77808000E-02	-1.18459000E-02
					-1.70678000E-03	-5.97173000E-02	-6.53064000E-03
					-1.65180000E-05	-5.63639000E-02	-5.23989000E-04
					 3.44330000E-03	-5.65780000E-02	 1.13526000E-02
					-2.07799000E-05	-5.80829000E-02	-5.71785000E-04
					 3.38742000E-03	-5.82900000E-02	 1.12276000E-02
					-3.44661000E-05	-4.49618000E-02	-3.95978000E-04
					 1.71568000E-03	-5.64622000E-02	 5.46625000E-03
					 2.91012000E-03	-4.52244000E-02	 1.09448000E-02
					-3.48024000E-03	-5.62637000E-02	-1.24037000E-02
					-3.43492000E-03	-5.79821000E-02	-1.23740000E-02
					-2.98356000E-03	-4.49405000E-02	-1.17424000E-02
					-1.74990000E-03	-5.63008000E-02	-6.51521000E-03
					-3.09302000E-05	-8.87777000E-02	-1.03374000E-03
					 4.50188000E-03	-8.89706000E-02	 1.11923000E-02
					-9.21213000E-06	-8.42433000E-02	-9.18165000E-04
					 4.54041000E-03	-8.44258000E-02	 1.13130000E-02
					-2.93815000E-05	-7.59231000E-02	-8.73772000E-04
					 2.23268000E-03	-8.88707000E-02	 4.99546000E-03
					 3.91306000E-03	-7.61270000E-02	 1.12424000E-02
					-2.03498000E-05	-8.65146000E-02	-9.76905000E-04
					 4.52147000E-03	-8.67011000E-02	 1.13281000E-02
					-1.45645000E-05	-7.19631000E-02	-7.68227000E-04
					 2.26581000E-03	-8.43320000E-02	 5.18999000E-03
					 3.97281000E-03	-7.21597000E-02	 1.13549000E-02
					-4.55918000E-03	-8.86260000E-02	-1.32708000E-02
					-4.55991000E-03	-8.40860000E-02	-1.31601000E-02
					-3.97356000E-03	-7.57980000E-02	-1.29925000E-02
					-2.29414000E-03	-8.87009000E-02	-7.06728000E-03
					-4.55882000E-03	-8.63567000E-02	-1.32916000E-02
					-4.00552000E-03	-7.18288000E-02	-1.28951000E-02
					-2.28487000E-03	-8.41626000E-02	-7.02953000E-03
					 1.26338000E-05	-7.96785000E-02	-7.93207000E-04
					 4.59048000E-03	-7.98601000E-02	 1.14334000E-02
					 1.87365000E-06	-8.19630000E-02	-8.56502000E-04
					 4.56572000E-03	-8.21439000E-02	 1.12995000E-02
					-8.45836000E-07	-6.79475000E-02	-6.58122000E-04
					 2.30150000E-03	-7.97686000E-02	 5.38586000E-03
					 4.04098000E-03	-6.81445000E-02	 1.14571000E-02
					-4.57234000E-03	-7.95130000E-02	-1.30301000E-02
					-4.56762000E-03	-8.18060000E-02	-1.30223000E-02
					-4.04688000E-03	-6.78100000E-02	-1.27784000E-02
					-2.27793000E-03	-7.95908000E-02	-6.97619000E-03
					-2.30769000E-05	-1.14251000E-01	-1.36598000E-03
					 5.31926000E-03	-1.14425000E-01	 1.09200000E-02
					 1.99944000E-05	-1.08924000E-01	-1.22555000E-03
					 5.34136000E-03	-1.09086000E-01	 1.10703000E-02
					-3.05770000E-05	-1.01565000E-01	-1.19745000E-03
					 2.64500000E-03	-1.14335000E-01	 4.72867000E-03
					 4.96794000E-03	-1.01749000E-01	 1.10813000E-02
					-4.47741000E-06	-1.11589000E-01	-1.29470000E-03
					 5.32787000E-03	-1.11754000E-01	 1.10342000E-02
					 3.47455000E-06	-9.65743000E-02	-1.07094000E-03
					 2.68000000E-03	-1.09003000E-01	 4.91431000E-03
					 4.99818000E-03	-9.67443000E-02	 1.12141000E-02
					-5.35812000E-03	-1.14087000E-01	-1.36503000E-02
					-5.30569000E-03	-1.08756000E-01	-1.35185000E-02
					-5.01799000E-03	-1.01405000E-01	-1.34899000E-02
					-2.68927000E-03	-1.14175000E-01	-7.45774000E-03
					-5.33423000E-03	-1.11420000E-01	-1.36231000E-02
					-4.99289000E-03	-9.64112000E-02	-1.33685000E-02
					-2.64182000E-03	-1.08845000E-01	-7.36353000E-03
					 6.03294000E-05	-1.03602000E-01	-1.08807000E-03
					 5.37838000E-03	-1.03763000E-01	 1.12118000E-02
					 4.37688000E-05	-1.06260000E-01	-1.15844000E-03
					 5.36258000E-03	-1.06422000E-01	 1.11035000E-02
					 3.63753000E-05	-9.15710000E-02	-9.33268000E-04
					 2.71822000E-03	-1.03681000E-01	 5.09245000E-03
					 5.04357000E-03	-9.17405000E-02	 1.13491000E-02
					-5.27160000E-03	-1.03419000E-01	-1.33839000E-02
					-5.28599000E-03	-1.06089000E-01	-1.34176000E-02
					-4.98433000E-03	-9.13931000E-02	-1.32268000E-02
					-2.60164000E-03	-1.03512000E-01	-7.26527000E-03
					 2.64554000E-05	-1.39093000E-01	-1.69581000E-03
					 5.66409000E-03	-1.39292000E-01	 1.05398000E-02
					 3.29136000E-05	-1.33482000E-01	-1.52897000E-03
					 5.65945000E-03	-1.33689000E-01	 1.07285000E-02
					-7.25015000E-06	-1.26776000E-01	-1.53583000E-03
					 2.85148000E-03	-1.39194000E-01	 4.41019000E-03
					 5.54440000E-03	-1.26946000E-01	 1.07231000E-02
					 3.28498000E-05	-1.36282000E-01	-1.60743000E-03
					 5.66379000E-03	-1.36489000E-01	 1.06416000E-02
					 2.83911000E-05	-1.21232000E-01	-1.37842000E-03
					 2.85221000E-03	-1.33589000E-01	 4.59455000E-03
					 5.56480000E-03	-1.21407000E-01	 1.08975000E-02
					-5.64470000E-03	-1.38911000E-01	-1.38814000E-02
					-5.60252000E-03	-1.33275000E-01	-1.37390000E-02
					-5.57535000E-03	-1.26610000E-01	-1.37629000E-02
					-2.80722000E-03	-1.39003000E-01	-7.78614000E-03
					-5.62291000E-03	-1.36084000E-01	-1.38090000E-02
					-5.51519000E-03	-1.21053000E-01	-1.36224000E-02
					-2.78994000E-03	-1.33377000E-01	-7.63943000E-03
					 3.72217000E-05	-1.27880000E-01	-1.41050000E-03
					 5.68508000E-03	-1.28070000E-01	 1.08708000E-02
					 3.27053000E-05	-1.30685000E-01	-1.46398000E-03
					 5.67071000E-03	-1.30885000E-01	 1.07990000E-02
					 6.20052000E-05	-1.15697000E-01	-1.25332000E-03
					 2.86218000E-03	-1.27978000E-01	 4.73463000E-03
					 5.60241000E-03	-1.15868000E-01	 1.10392000E-02
					-5.59325000E-03	-1.27673000E-01	-1.36470000E-02
					-5.59837000E-03	-1.30474000E-01	-1.36826000E-02
					-5.47491000E-03	-1.15517000E-01	-1.35138000E-02
					-2.78428000E-03	-1.27775000E-01	-7.54229000E-03
					 0.00000000E+00	 0.00000000E+00	 0.00000000E+00
					 0.00000000E+00	 0.00000000E+00	 0.00000000E+00
					 8.54585000E-05	-7.91434000E-03	-5.69284000E-05
					-1.17171000E-03	-8.41476000E-03	 7.56472000E-03
					 0.00000000E+00	 0.00000000E+00	 0.00000000E+00
					 0.00000000E+00	 0.00000000E+00	 0.00000000E+00
					 8.81991000E-05	-8.66910000E-03	 8.84844000E-07
					-1.91584000E-04	-9.21185000E-03	 7.71795000E-03
					 0.00000000E+00	 0.00000000E+00	 0.00000000E+00
					 2.64642000E-05	-1.69282000E-03	-1.94149000E-05
					-5.43119000E-04	-7.99053000E-03	 3.68426000E-03
					-1.22583000E-03	-2.36304000E-03	 3.86531000E-03
					 0.00000000E+00	 0.00000000E+00	 0.00000000E+00
					 0.00000000E+00	 0.00000000E+00	 0.00000000E+00
					 8.56845000E-05	-8.45851000E-03	-2.87719000E-05
					-6.75313000E-04	-8.97925000E-03	 7.60988000E-03
					 0.00000000E+00	 0.00000000E+00	 0.00000000E+00
					 2.26112000E-05	-2.30302000E-03	 1.03639000E-05
					-5.07567000E-05	-8.75835000E-03	 3.75304000E-03
					-7.76467000E-05	-2.98452000E-03	 3.79138000E-03
					 0.00000000E+00	 0.00000000E+00	 0.00000000E+00
					 1.33031000E-03	-8.27071000E-03	-7.69873000E-03
					 0.00000000E+00	 0.00000000E+00	 0.00000000E+00
					 3.66341000E-04	-9.05280000E-03	-7.74031000E-03
					 0.00000000E+00	 0.00000000E+00	 0.00000000E+00
					 1.26723000E-03	-2.31247000E-03	-3.90737000E-03
					 7.11073000E-04	-7.91697000E-03	-3.80438000E-03
					 0.00000000E+00	 0.00000000E+00	 0.00000000E+00
					 8.41008000E-04	-8.82598000E-03	-7.68990000E-03
					 0.00000000E+00	 0.00000000E+00	 0.00000000E+00
					 1.19253000E-04	-2.91876000E-03	-3.77106000E-03
					 2.26964000E-04	-8.67866000E-03	-3.75995000E-03
					 0.00000000E+00	 0.00000000E+00	 0.00000000E+00
					 0.00000000E+00	 0.00000000E+00	 0.00000000E+00
					 9.88270000E-05	-8.47479000E-03	 7.71051000E-05
					 8.05620000E-04	-8.97714000E-03	 7.69901000E-03
					 0.00000000E+00	 0.00000000E+00	 0.00000000E+00
					 0.00000000E+00	 0.00000000E+00	 0.00000000E+00
					 9.15360000E-05	-8.73829000E-03	 3.36820000E-05
					 2.98582000E-04	-9.25859000E-03	 7.74704000E-03
					 0.00000000E+00	 0.00000000E+00	 0.00000000E+00
					 3.15630000E-05	-1.89017000E-03	 5.31343000E-05
					 4.52573000E-04	-8.54963000E-03	 3.74372000E-03
					 1.09667000E-03	-2.56352000E-03	 3.93914000E-03
					 0.00000000E+00	 0.00000000E+00	 0.00000000E+00
					-6.05514000E-04	-8.81050000E-03	-7.56672000E-03
					 0.00000000E+00	 0.00000000E+00	 0.00000000E+00
					-1.16318000E-04	-9.09817000E-03	-7.70267000E-03
					 0.00000000E+00	 0.00000000E+00	 0.00000000E+00
					-1.03405000E-03	-2.47871000E-03	-3.83550000E-03
					-2.52264000E-04	-8.46934000E-03	-3.59702000E-03
					 2.77155000E-04	-2.99045000E-02	-2.70941000E-04
					-1.31352000E-03	-3.03497000E-02	 1.27149000E-02
					 2.89826000E-04	-3.12169000E-02	-1.91869000E-04
					-7.57556000E-04	-3.16671000E-02	 1.28449000E-02
					 1.73154000E-04	-1.75533000E-02	-1.35873000E-04
					-5.18423000E-04	-3.00674000E-02	 6.15637000E-03
					-1.22076000E-03	-1.80939000E-02	 1.05463000E-02
					 2.82747000E-04	-3.06195000E-02	-2.34076000E-04
					-1.03514000E-03	-3.10638000E-02	 1.27404000E-02
					 1.78671000E-04	-1.85522000E-02	-6.59222000E-05
					-2.27379000E-04	-3.13814000E-02	 6.22161000E-03
					-4.24123000E-04	-1.90909000E-02	 1.06730000E-02
					 1.86165000E-03	-2.99897000E-02	-1.32762000E-02
					 1.32493000E-03	-3.13008000E-02	-1.32476000E-02
					 1.55458000E-03	-1.78445000E-02	-1.08473000E-02
					 1.07016000E-03	-2.98916000E-02	-6.70352000E-03
					 1.59353000E-03	-3.07066000E-02	-1.32248000E-02
					 7.75519000E-04	-1.88293000E-02	-1.08323000E-02
					 8.07979000E-04	-3.12040000E-02	-6.60681000E-03
					 2.99684000E-04	-3.19916000E-02	-9.89986000E-05
					-1.70838000E-04	-3.24181000E-02	 1.28838000E-02
					 2.94909000E-04	-3.16588000E-02	-1.46109000E-04
					-4.63395000E-04	-3.21341000E-02	 1.29635000E-02
					 1.89494000E-04	-1.87596000E-02	 2.46148000E-05
					 5.64073000E-05	-3.21391000E-02	 6.19212000E-03
					 4.01229000E-04	-1.92843000E-02	 1.07083000E-02
					 7.88389000E-04	-3.20606000E-02	-1.31014000E-02
					 1.05636000E-03	-3.17395000E-02	-1.32786000E-02
					-1.21478000E-05	-1.90239000E-02	-1.06820000E-02
					 5.48193000E-04	-3.19692000E-02	-6.38992000E-03
					 5.49881000E-04	-5.91470000E-02	-6.59040000E-04
					-1.52547000E-03	-5.93944000E-02	 1.43754000E-02
					 5.60761000E-04	-6.11540000E-02	-5.64576000E-04
					-1.40970000E-03	-6.15027000E-02	 1.45059000E-02
					 4.06979000E-04	-4.40496000E-02	-4.49709000E-04
					-4.86246000E-04	-5.92591000E-02	 6.81713000E-03
					-1.41928000E-03	-4.44226000E-02	 1.39252000E-02
					 5.56995000E-04	-6.01657000E-02	-6.07897000E-04
					-1.47011000E-03	-6.04732000E-02	 1.43915000E-02
					 4.16960000E-04	-4.57147000E-02	-3.63955000E-04
					-4.48743000E-04	-6.13211000E-02	 6.86591000E-03
					-1.09704000E-03	-4.61005000E-02	 1.40637000E-02
					 2.58378000E-03	-5.89652000E-02	-1.56810000E-02
					 2.52983000E-03	-6.09735000E-02	-1.56574000E-02
					 2.22064000E-03	-4.39935000E-02	-1.48331000E-02
					 1.57243000E-03	-5.90486000E-02	-8.12552000E-03
					 2.55500000E-03	-5.99745000E-02	-1.56229000E-02
					 1.92913000E-03	-4.56471000E-02	-1.48037000E-02
					 1.54696000E-03	-6.10626000E-02	-8.01621000E-03
					 5.66999000E-04	-6.30777000E-02	-4.70819000E-04
					-1.38723000E-03	-6.35442000E-02	 1.45578000E-02
					 5.63440000E-04	-6.21397000E-02	-5.20406000E-04
					-1.40124000E-03	-6.24180000E-02	 1.46323000E-02
					 4.34546000E-04	-4.70746000E-02	-2.72910000E-04
					-3.76722000E-04	-6.33049000E-02	 6.83643000E-03
					-8.06451000E-04	-4.74917000E-02	 1.41010000E-02
					 2.48177000E-03	-6.29302000E-02	-1.55503000E-02
					 2.50558000E-03	-6.19516000E-02	-1.56989000E-02
					 1.63478000E-03	-4.70070000E-02	-1.46644000E-02
					 1.51307000E-03	-6.30132000E-02	-7.82288000E-03
					 9.29097000E-04	-8.86285000E-02	-1.07199000E-03
					-2.06845000E-03	-8.86765000E-02	 1.34299000E-02