# vtk DataFile Version 3.0

ASCII
DATASET UNSTRUCTURED_GRID

POINTS 522 double
	 1.00000000E+00	 1.00000000E+00	-5.96046000E-08
	 1.00000000E+00	 5.00000000E-01	-5.96046000E-08
	 1.00000000E+00	 5.00000000E-01	 1.00000000E+00
	 1.00000000E+00	 1.00000000E+00	 1.00000000E+00
	 5.00000000E-01	 1.00000000E+00	-5.96046000E-08
	 5.00000000E-01	 5.00000000E-01	-5.96046000E-08
	 5.00000000E-01	 5.00000000E-01	 1.00000000E+00
	 5.00000000E-01	 1.00000000E+00	 1.00000000E+00
	 1.00000000E+00	 7.50000000E-01	-5.96046000E-08
	 1.00000000E+00	 5.00000000E-01	 5.00000000E-01
	 1.00000000E+00	 7.50000000E-01	 1.00000000E+00
	 1.00000000E+00	 1.00000000E+00	 5.00000000E-01
	 7.50000000E-01	 1.00000000E+00	-5.96046000E-08
	 7.50000000E-01	 5.00000000E-01	-5.96046000E-08
	 7.50000000E-01	 5.00000000E-01	 1.00000000E+00
	 7.50000000E-01	 1.00000000E+00	 1.00000000E+00
	 5.00000000E-01	 7.50000000E-01	-5.96046000E-08
	 5.00000000E-01	 5.00000000E-01	 5.00000000E-01
	 5.00000000E-01	 7.50000000E-01	 1.00000000E+00
	 5.00000000E-01	 1.00000000E+00	 5.00000000E-01
	 1.00000000E+00	-1.49012000E-08	-5.96046000E-08
	 1.00000000E+00	-1.49012000E-08	 1.00000000E+00
	 5.00000000E-01	-1.49012000E-08	-5.96046000E-08
	 5.00000000E-01	-1.49012000E-08	 1.00000000E+00
	 1.00000000E+00	 2.50000000E-01	-5.96046000E-08
	 1.00000000E+00	-1.49012000E-08	 5.00000000E-01
	 1.00000000E+00	 2.50000000E-01	 1.00000000E+00
	 7.50000000E-01	-1.49012000E-08	-5.96046000E-08
	 7.50000000E-01	-1.49012000E-08	 1.00000000E+00
	 5.00000000E-01	 2.50000000E-01	-5.96046000E-08
	 5.00000000E-01	-1.49012000E-08	 5.00000000E-01
	 5.00000000E-01	 2.50000000E-01	 1.00000000E+00
	-7.45058000E-09	 1.00000000E+00	-5.96046000E-08
	-7.45058000E-09	 5.00000000E-01	-5.96046000E-08
	-7.45058000E-09	 5.00000000E-01	 1.00000000E+00
	-7.45058000E-09	 1.00000000E+00	 1.00000000E+00
	 2.50000000E-01	 1.00000000E+00	-5.96046000E-08
	 2.50000000E-01	 5.00000000E-01	-5.96046000E-08
	 2.50000000E-01	 5.00000000E-01	 1.00000000E+00
	 2.50000000E-01	 1.00000000E+00	 1.00000000E+00
	-7.45058000E-09	 7.50000000E-01	-5.96046000E-08
	-7.45058000E-09	 5.00000000E-01	 5.00000000E-01
	-7.45058000E-09	 7.50000000E-01	 1.00000000E+00
	-7.45058000E-09	 1.00000000E+00	 5.00000000E-01
	-7.45058000E-09	-1.49012000E-08	-5.96046000E-08
	-7.45058000E-09	-1.49012000E-08	 1.00000000E+00
	 2.50000000E-01	-1.49012000E-08	-5.96046000E-08
	 2.50000000E-01	-1.49012000E-08	 1.00000000E+00
	-7.45058000E-09	 2.50000000E-01	-5.96046000E-08
	-7.45058000E-09	-1.49012000E-08	 5.00000000E-01
	-7.45058000E-09	 2.50000000E-01	 1.00000000E+00
	 1.00000000E+00	 5.00000000E-01	 2.00000000E+00
	 1.00000000E+00	 1.00000000E+00	 2.00000000E+00
	 5.00000000E-01	 5.00000000E-01	 2.00000000E+00
	 5.00000000E-01	 1.00000000E+00	 2.00000000E+00
	 1.00000000E+00	 5.00000000E-01	 1.50000000E+00
	 1.00000000E+00	 7.50000000E-01	 2.00000000E+00
	 1.00000000E+00	 1.00000000E+00	 1.50000000E+00
	 7.50000000E-01	 5.00000000E-01	 2.00000000E+00
	 7.50000000E-01	 1.00000000E+00	 2.00000000E+00
	 5.00000000E-01	 5.00000000E-01	 1.50000000E+00
	 5.00000000E-01	 7.50000000E-01	 2.00000000E+00
	 5.00000000E-01	 1.00000000E+00	 1.50000000E+00
	 1.00000000E+00	-1.49012000E-08	 2.00000000E+00
	 5.00000000E-01	-1.49012000E-08	 2.00000000E+00
	 1.00000000E+00	-1.49012000E-08	 1.50000000E+00
	 1.00000000E+00	 2.50000000E-01	 2.00000000E+00
	 7.50000000E-01	-1.49012000E-08	 2.00000000E+00
	 5.00000000E-01	-1.49012000E-08	 1.50000000E+00
	 5.00000000E-01	 2.50000000E-01	 2.00000000E+00
	-7.45058000E-09	 5.00000000E-01	 2.00000000E+00
	-7.45058000E-09	 1.00000000E+00	 2.00000000E+00
	 2.50000000E-01	 5.00000000E-01	 2.00000000E+00
	 2.50000000E-01	 1.00000000E+00	 2.00000000E+00
	-7.45058000E-09	 5.00000000E-01	 1.50000000E+00
	-7.45058000E-09	 7.50000000E-01	 2.00000000E+00
	-7.45058000E-09	 1.00000000E+00	 1.50000000E+00
	-7.45058000E-09	-1.49012000E-08	 2.00000000E+00
	 2.50000000E-01	-1.49012000E-08	 2.00000000E+00
	-7.45058000E-09	-1.49012000E-08	 1.50000000E+00
	-7.45058000E-09	 2.50000000E-01	 2.00000000E+00
	 1.00000000E+00	 5.00000000E-01	 3.00000000E+00
	 1.00000000E+00	 1.00000000E+00	 3.00000000E+00
	 5.00000000E-01	 5.00000000E-01	 3.00000000E+00
	 5.00000000E-01	 1.00000000E+00	 3.00000000E+00
	 1.00000000E+00	 5.00000000E-01	 2.50000000E+00
	 1.00000000E+00	 7.50000000E-01	 3.00000000E+00
	 1.00000000E+00	 1.00000000E+00	 2.50000000E+00
	 7.50000000E-01	 5.00000000E-01	 3.00000000E+00
	 7.50000000E-01	 1.00000000E+00	 3.00000000E+00
	 5.00000000E-01	 5.00000000E-01	 2.50000000E+00
	 5.00000000E-01	 7.50000000E-01	 3.00000000E+00
	 5.00000000E-01	 1.00000000E+00	 2.50000000E+00
	 1.00000000E+00	-1.49012000E-08	 3.00000000E+00
	 5.00000000E-01	-1.49012000E-08	 3.00000000E+00
	 1.00000000E+00	-1.49012000E-08	 2.50000000E+00
	 1.00000000E+00	 2.50000000E-01	 3.00000000E+00
	 7.50000000E-01	-1.49012000E-08	 3.00000000E+00
	 5.00000000E-01	-1.49012000E-08	 2.50000000E+00
	 5.00000000E-01	 2.50000000E-01	 3.00000000E+00
	-7.45058000E-09	 5.00000000E-01	 3.00000000E+00
	-7.45058000E-09	 1.00000000E+00	 3.00000000E+00
	 2.50000000E-01	 5.00000000E-01	 3.00000000E+00
	 2.50000000E-01	 1.00000000E+00	 3.00000000E+00
	-7.45058000E-09	 5.00000000E-01	 2.50000000E+00
	-7.45058000E-09	 7.50000000E-01	 3.00000000E+00
	-7.45058000E-09	 1.00000000E+00	 2.50000000E+00
	-7.45058000E-09	-1.49012000E-08	 3.00000000E+00
	 2.50000000E-01	-1.49012000E-08	 3.00000000E+00
	-7.45058000E-09	-1.49012000E-08	 2.50000000E+00
	-7.45058000E-09	 2.50000000E-01	 3.00000000E+00
	 1.00000000E+00	 5.00000000E-01	 4.00000000E+00
	 1.00000000E+00	 1.00000000E+00	 4.00000000E+00
	 5.00000000E-01	 5.00000000E-01	 4.00000000E+00
	 5.00000000E-01	 1.00000000E+00	 4.00000000E+00
	 1.00000000E+00	 5.00000000E-01	 3.50000000E+00
	 1.00000000E+00	 7.50000000E-01	 4.00000000E+00
	 1.00000000E+00	 1.00000000E+00	 3.50000000E+00
	 7.50000000E-01	 5.00000000E-01	 4.00000000E+00
	 7.50000000E-01	 1.00000000E+00	 4.00000000E+00
	 5.00000000E-01	 5.00000000E-01	 3.50000000E+00
	 5.00000000E-01	 7.50000000E-01	 4.00000000E+00
	 5.00000000E-01	 1.00000000E+00	 3.50000000E+00
	 1.00000000E+00	-1.49012000E-08	 4.00000000E+00
	 5.00000000E-01	-1.49012000E-08	 4.00000000E+00
	 1.00000000E+00	-1.49012000E-08	 3.50000000E+00
	 1.00000000E+00	 2.50000000E-01	 4.00000000E+00
	 7.50000000E-01	-1.49012000E-08	 4.00000000E+00
	 5.00000000E-01	-1.49012000E-08	 3.50000000E+00
	 5.00000000E-01	 2.50000000E-01	 4.00000000E+00
	-7.45058000E-09	 5.00000000E-01	 4.00000000E+00
	-7.45058000E-09	 1.00000000E+00	 4.00000000E+00
	 2.50000000E-01	 5.00000000E-01	 4.00000000E+00
	 2.50000000E-01	 1.00000000E+00	 4.00000000E+00
	-7.45058000E-09	 5.00000000E-01	 3.50000000E+00
	-7.45058000E-09	 7.50000000E-01	 4.00000000E+00
	-7.45058000E-09	 1.00000000E+00	 3.50000000E+00
	-7.45058000E-09	-1.49012000E-08	 4.00000000E+00
	 2.50000000E-01	-1.49012000E-08	 4.00000000E+00
	-7.45058000E-09	-1.49012000E-08	 3.50000000E+00
	-7.45058000E-09	 2.50000000E-01	 4.00000000E+00
	 1.00000000E+00	 5.00000000E-01	 5.00000000E+00
	 1.00000000E+00	 1.00000000E+00	 5.00000000E+00
	 5.00000000E-01	 5.00000000E-01	 5.00000000E+00
	 5.00000000E-01	 1.00000000E+00	 5.00000000E+00
	 1.00000000E+00	 5.00000000E-01	 4.50000000E+00
	 1.00000000E+00	 7.50000000E-01	 5.00000000E+00
	 1.00000000E+00	 1.00000000E+00	 4.50000000E+00
	 7.50000000E-01	 5.00000000E-01	 5.00000000E+00
	 7.50000000E-01	 1.00000000E+00	 5.00000000E+00
	 5.00000000E-01	 5.00000000E-01	 4.50000000E+00
	 5.00000000E-01	 7.50000000E-01	 5.00000000E+00
	 5.00000000E-01	 1.00000000E+00	 4.50000000E+00
	 1.00000000E+00	-1.49012000E-08	 5.00000000E+00
	 5.00000000E-01	-1.49012000E-08	 5.00000000E+00
	 1.00000000E+00	-1.49012000E-08	 4.50000000E+00
	 1.00000000E+00	 2.50000000E-01	 5.00000000E+00
	 7.50000000E-01	-1.49012000E-08	 5.00000000E+00
	 5.00000000E-01	-1.49012000E-08	 4.50000000E+00
	 5.00000000E-01	 2.50000000E-01	 5.00000000E+00
	-7.45058000E-09	 5.00000000E-01	 5.00000000E+00
	-7.45058000E-09	 1.00000000E+00	 5.00000000E+00
	 2.50000000E-01	 5.00000000E-01	 5.00000000E+00
	 2.50000000E-01	 1.00000000E+00	 5.00000000E+00
	-7.45058000E-09	 5.00000000E-01	 4.50000000E+00
	-7.45058000E-09	 7.50000000E-01	 5.00000000E+00
	-7.45058000E-09	 1.00000000E+00	 4.50000000E+00
	-7.45058000E-09	-1.49012000E-08	 5.00000000E+00
	 2.50000000E-01	-1.49012000E-08	 5.00000000E+00
	-7.45058000E-09	-1.49012000E-08	 4.50000000E+00
	-7.45058000E-09	 2.50000000E-01	 5.00000000E+00
	 1.00000000E+00	 5.00000000E-01	 6.00000000E+00
	 1.00000000E+00	 1.00000000E+00	 6.00000000E+00
	 5.00000000E-01	 5.00000000E-01	 6.00000000E+00
	 5.00000000E-01	 1.00000000E+00	 6.00000000E+00
	 1.00000000E+00	 5.00000000E-01	 5.50000000E+00
	 1.00000000E+00	 7.50000000E-01	 6.00000000E+00
	 1.00000000E+00	 1.00000000E+00	 5.50000000E+00
	 7.50000000E-01	 5.00000000E-01	 6.00000000E+00
	 7.50000000E-01	 1.00000000E+00	 6.00000000E+00
	 5.00000000E-01	 5.00000000E-01	 5.50000000E+00
	 5.00000000E-01	 7.50000000E-01	 6.00000000E+00
	 5.00000000E-01	 1.00000000E+00	 5.50000000E+00
	 1.00000000E+00	-1.49012000E-08	 6.00000000E+00
	 5.00000000E-01	-1.49012000E-08	 6.00000000E+00
	 1.00000000E+00	-1.49012000E-08	 5.50000000E+00
	 1.00000000E+00	 2.50000000E-01	 6.00000000E+00
	 7.50000000E-01	-1.49012000E-08	 6.00000000E+00
	 5.00000000E-01	-1.49012000E-08	 5.50000000E+00
	 5.00000000E-01	 2.50000000E-01	 6.00000000E+00
	-7.45058000E-09	 5.00000000E-01	 6.00000000E+00
	-7.45058000E-09	 1.00000000E+00	 6.00000000E+00
	 2.50000000E-01	 5.00000000E-01	 6.00000000E+00
	 2.50000000E-01	 1.00000000E+00	 6.00000000E+00
	-7.45058000E-09	 5.00000000E-01	 5.50000000E+00
	-7.45058000E-09	 7.50000000E-01	 6.00000000E+00
	-7.45058000E-09	 1.00000000E+00	 5.50000000E+00
	-7.45058000E-09	-1.49012000E-08	 6.00000000E+00
	 2.50000000E-01	-1.49012000E-08	 6.00000000E+00
	-7.45058000E-09	-1.49012000E-08	 5.50000000E+00
	-7.45058000E-09	 2.50000000E-01	 6.00000000E+00
	 1.00000000E+00	 5.00000000E-01	 7.00000000E+00
[...]
POINT_DATA 522
FIELD U 1
	U 3 522 double
		 0.00000000E+00	 0.00000000E+00	 0.00000000E+00
		 0.00000000E+00	 0.00000000E+00	 0.00000000E+00
		-1.38823000E-05	 1.04409000E-03	 6.55396000E-05
		 1.14701000E-03	 1.25548000E-03	-2.60788000E-03
		 0.00000000E+00	 0.00000000E+00	 0.00000000E+00
		 0.00000000E+00	 0.00000000E+00	 0.00000000E+00
		-4.77771000E-06	 1.96285000E-03	 5.33785000E-05
		 6.86046000E-04	 2.18195000E-03	-2.62571000E-03
		 0.00000000E+00	 0.00000000E+00	 0.00000000E+00
		-8.37343000E-06	-2.41354000E-04	 3.07676000E-05
		 5.69839000E-04	 1.07555000E-03	-1.38481000E-03
		 6.80362000E-04	-5.10106000E-06	-1.13793000E-03
		 0.00000000E+00	 0.00000000E+00	 0.00000000E+00
		 0.00000000E+00	 0.00000000E+00	 0.00000000E+00
		-8.93173000E-06	 1.57640000E-03	 5.93109000E-05
		 9.13957000E-04	 1.78738000E-03	-2.52887000E-03
		 0.00000000E+00	 0.00000000E+00	 0.00000000E+00
		 7.51386000E-07	 2.50086000E-04	 2.46829000E-05
		 3.38868000E-04	 1.99543000E-03	-1.31379000E-03
		 3.06510000E-04	 4.70054000E-04	-1.09132000E-03
		 0.00000000E+00	 0.00000000E+00	 0.00000000E+00
		-1.17384000E-03	 1.29636000E-03	 2.73595000E-03
		 0.00000000E+00	 0.00000000E+00	 0.00000000E+00
		-6.92733000E-04	 2.21906000E-03	 2.72988000E-03
		 0.00000000E+00	 0.00000000E+00	 0.00000000E+00
		-6.96694000E-04	 2.17506000E-05	 1.20349000E-03
		-5.97423000E-04	 1.09764000E-03	 1.51382000E-03
		 0.00000000E+00	 0.00000000E+00	 0.00000000E+00
		-9.29728000E-04	 1.82615000E-03	 2.64539000E-03
		 0.00000000E+00	 0.00000000E+00	 0.00000000E+00
		-3.02662000E-04	 4.93358000E-04	 1.14514000E-03
		-3.47652000E-04	 2.01496000E-03	 1.41909000E-03
		 0.00000000E+00	 0.00000000E+00	 0.00000000E+00
		 0.00000000E+00	 0.00000000E+00	 0.00000000E+00
		 2.24705000E-06	 2.42285000E-03	 4.23368000E-05
		 2.06087000E-04	 2.62254000E-03	-2.63087000E-03
		 0.00000000E+00	 0.00000000E+00	 0.00000000E+00
		 0.00000000E+00	 0.00000000E+00	 0.00000000E+00
		-1.12220000E-06	 2.26299000E-03	 4.73663000E-05
		 4.47730000E-04	 2.47550000E-03	-2.68843000E-03
		 0.00000000E+00	 0.00000000E+00	 0.00000000E+00
		 7.95641000E-06	 3.67647000E-04	 2.22159000E-05
		 1.05356000E-04	 2.44770000E-03	-1.26064000E-03
		-1.01364000E-04	 5.76198000E-04	-1.14682000E-03
		 0.00000000E+00	 0.00000000E+00	 0.00000000E+00
		-1.96925000E-04	 2.65328000E-03	 2.71382000E-03
		 0.00000000E+00	 0.00000000E+00	 0.00000000E+00
		-4.46300000E-04	 2.51036000E-03	 2.78046000E-03
		 0.00000000E+00	 0.00000000E+00	 0.00000000E+00
		 1.21237000E-04	 5.94877000E-04	 1.19510000E-03
		-9.95595000E-05	 2.46323000E-03	 1.34459000E-03
		-3.17975000E-05	 8.83814000E-03	 1.01959000E-04
		 2.19017000E-03	 8.99379000E-03	-5.92445000E-03
		-1.89913000E-05	 1.08113000E-02	 6.58287000E-05
		 1.73520000E-03	 1.09869000E-02	-5.97863000E-03
		-2.21266000E-05	 4.02125000E-03	 9.01809000E-05
		 1.07306000E-03	 8.85630000E-03	-2.94274000E-03
		 1.67003000E-03	 4.22312000E-03	-4.29079000E-03
		-2.47538000E-05	 9.88030000E-03	 8.36267000E-05
		 1.96400000E-03	 1.00526000E-02	-5.87980000E-03
		-1.24209000E-05	 5.45715000E-03	 6.77780000E-05
		 8.58282000E-04	 1.08400000E-02	-2.91411000E-03
		 1.17943000E-03	 5.66635000E-03	-4.31804000E-03
		-2.25142000E-03	 9.10182000E-03	 6.12048000E-03
		-1.76953000E-03	 1.10871000E-02	 6.10231000E-03
		-1.71339000E-03	 4.29204000E-03	 4.46644000E-03
		-1.13661000E-03	 8.91181000E-03	 3.14462000E-03
		-2.01018000E-03	 1.01550000E-02	 6.03952000E-03
		-1.20107000E-03	 5.72948000E-03	 4.44890000E-03
		-8.95541000E-04	 1.08899000E-02	 3.04413000E-03
		-1.02806000E-05	 1.23423000E-02	 3.63010000E-05
		 1.28645000E-03	 1.25163000E-02	-5.99036000E-03
		-1.40957000E-05	 1.16338000E-02	 4.95768000E-05
		 1.51146000E-03	 1.18090000E-02	-6.08270000E-03
		-5.70495000E-06	 6.40165000E-03	 4.97880000E-05
		 6.40456000E-04	 1.23725000E-02	-2.84016000E-03
		 6.79865000E-04	 6.60378000E-03	-4.33137000E-03
		-1.30173000E-03	 1.26080000E-02	 6.05548000E-03
		-1.53555000E-03	 1.19077000E-02	 6.17358000E-03
		-6.85981000E-04	 6.66049000E-03	 4.42672000E-03
		-6.59523000E-04	 1.24157000E-02	 2.91162000E-03
		-6.63402000E-05	 2.35671000E-02	 5.99330000E-05
		 2.63067000E-03	 2.35538000E-02	-8.10552000E-03
		-5.02579000E-05	 2.61805000E-02	 1.03648000E-06
		 2.48638000E-03	 2.61757000E-02	-8.19984000E-03
		-4.59900000E-05	 1.54984000E-02	 9.45132000E-05
		 1.28142000E-03	 2.35433000E-02	-3.95639000E-03
		 2.53538000E-03	 1.55659000E-02	-7.23864000E-03
		-5.85498000E-05	 2.48913000E-02	 2.90931000E-05
		 2.55899000E-03	 2.48845000E-02	-8.14945000E-03
		-3.11501000E-05	 1.78981000E-02	 4.30396000E-05
		 1.21932000E-03	 2.61621000E-02	-4.02403000E-03
		 2.21086000E-03	 1.79857000E-02	-7.32527000E-03
		-2.76209000E-03	 2.37163000E-02	 8.22014000E-03
		-2.58697000E-03	 2.63374000E-02	 8.19728000E-03
		-2.62471000E-03	 1.57078000E-02	 7.41881000E-03
		-1.41376000E-03	 2.36219000E-02	 4.07527000E-03
		-2.67518000E-03	 2.50461000E-02	 8.20222000E-03
		-2.27066000E-03	 1.81212000E-02	 7.40281000E-03
		-1.31988000E-03	 2.62398000E-02	 4.02481000E-03
		-3.47153000E-05	 2.86392000E-02	-5.50319000E-05
		 2.36394000E-03	 2.86485000E-02	-8.22037000E-03
		-4.20991000E-05	 2.74299000E-02	-2.63315000E-05
		 2.42608000E-03	 2.74263000E-02	-8.25728000E-03
		-1.90958000E-05	 1.99789000E-02	-2.53961000E-06
		 1.16067000E-03	 2.86288000E-02	-4.01911000E-03
		 1.91004000E-03	 2.00790000E-02	-7.33563000E-03
		-2.43472000E-03	 2.88105000E-02	 8.10618000E-03
		-2.51140000E-03	 2.75894000E-02	 8.20091000E-03
		-1.94522000E-03	 2.02080000E-02	 7.32293000E-03
		-1.23038000E-03	 2.87056000E-02	 3.90732000E-03
		-8.30929000E-05	 4.09085000E-02	-5.38442000E-05
		 2.40940000E-03	 4.08027000E-02	-8.32620000E-03
		-6.97679000E-05	 4.34281000E-02	-9.84762000E-05
		 2.47005000E-03	 4.33220000E-02	-8.37575000E-03
		-8.03329000E-05	 3.22613000E-02	 4.15114000E-06
		 1.16438000E-03	 4.08654000E-02	-4.16123000E-03
		 2.55733000E-03	 3.21958000E-02	-8.37268000E-03
		-7.68768000E-05	 4.21596000E-02	-7.53575000E-05
		 2.43971000E-03	 4.20532000E-02	-8.37343000E-03
		-6.52262000E-05	 3.48906000E-02	-4.90658000E-05
		 1.20092000E-03	 4.33859000E-02	-4.23212000E-03
		 2.55338000E-03	 3.48267000E-02	-8.44925000E-03
		-2.57534000E-03	 4.09629000E-02	 8.21970000E-03
		-2.61107000E-03	 4.34836000E-02	 8.17941000E-03
		-2.71828000E-03	 3.23599000E-02	 8.37982000E-03
		-1.33037000E-03	 4.09445000E-02	 4.05342000E-03
		-2.59371000E-03	 4.22145000E-02	 8.22397000E-03
		-2.68556000E-03	 3.49938000E-02	 8.34997000E-03
		-1.34073000E-03	 4.34661000E-02	 4.03514000E-03
		-5.50059000E-05	 4.59890000E-02	-1.45171000E-04
		 2.54531000E-03	 4.58933000E-02	-8.41832000E-03
		-6.24438000E-05	 4.47012000E-02	-1.21982000E-04
		 2.50778000E-03	 4.45972000E-02	-8.37354000E-03
		-4.91244000E-05	 3.74992000E-02	-1.03040000E-04
		 1.24222000E-03	 4.59508000E-02	-4.29972000E-03
		 2.57245000E-03	 3.74518000E-02	-8.48039000E-03
		-2.65862000E-03	 4.60599000E-02	 8.12763000E-03
		-2.63544000E-03	 4.47600000E-02	 8.12948000E-03
		-2.67429000E-03	 3.76242000E-02	 8.27266000E-03
		-1.35292000E-03	 4.60347000E-02	 4.00934000E-03
		-8.40664000E-05	 5.75684000E-02	-1.55529000E-04
		 2.02102000E-03	 5.74780000E-02	-8.17634000E-03
		-7.42004000E-05	 5.96816000E-02	-1.92103000E-04
		 2.05384000E-03	 5.95957000E-02	-8.21480000E-03
		-8.23662000E-05	 4.92784000E-02	-1.04505000E-04
		 9.66907000E-04	 5.75254000E-02	-4.12608000E-03
		 2.24397000E-03	 4.91800000E-02	-8.23410000E-03
		-7.93405000E-05	 5.86225000E-02	-1.73984000E-04
		 2.03782000E-03	 5.85354000E-02	-8.23240000E-03
		-7.07168000E-05	 5.16201000E-02	-1.44848000E-04
		 9.89867000E-04	 5.96400000E-02	-4.20003000E-03
		 2.28861000E-03	 5.15243000E-02	-8.27023000E-03
		-2.18792000E-03	 5.76249000E-02	 7.86425000E-03
		-2.20230000E-03	 5.97418000E-02	 7.82966000E-03
		-2.40719000E-03	 4.93349000E-02	 8.02530000E-03
		-1.13483000E-03	 5.75977000E-02	 3.81508000E-03
		-2.19565000E-03	 5.86827000E-02	 7.88328000E-03
		-2.43036000E-03	 5.16778000E-02	 7.98039000E-03
		-1.13830000E-03	 5.97127000E-02	 3.81573000E-03
		-6.37622000E-05	 6.18240000E-02	-2.30039000E-04
		 2.09073000E-03	 6.17365000E-02	-8.24953000E-03
		-6.88009000E-05	 6.07506000E-02	-2.10679000E-04
		 2.07196000E-03	 6.06654000E-02	-8.19602000E-03
		-5.82994000E-05	 5.39972000E-02	-1.86696000E-04
		 1.01453000E-03	 6.17816000E-02	-4.27202000E-03
		 2.33963000E-03	 5.39036000E-02	-8.31625000E-03
		-2.21955000E-03	 6.18843000E-02	 7.78874000E-03
		-2.21047000E-03	 6.08109000E-02	 7.77388000E-03
		-2.45808000E-03	 5.40595000E-02	 7.94229000E-03
		-1.14245000E-03	 6.18564000E-02	 3.81180000E-03
		-8.09303000E-05	 7.40448000E-02	-2.77226000E-04
		 1.43865000E-03	 7.39380000E-02	-7.92306000E-03
		-7.72658000E-05	 7.56159000E-02	-2.96616000E-04
		 1.54233000E-03	 7.55041000E-02	-7.94875000E-03
		-8.49832000E-05	 6.58771000E-02	-2.13888000E-04
		 6.80349000E-04	 7.40058000E-02	-4.04094000E-03
		 1.73881000E-03	 6.57772000E-02	-8.10312000E-03
		-7.94868000E-05	 7.48183000E-02	-2.86299000E-04
		 1.49003000E-03	 7.47071000E-02	-7.97921000E-03
		-7.78336000E-05	 6.77258000E-02	-2.42962000E-04
		 7.33110000E-04	 7.55741000E-02	-4.10611000E-03
		 1.79882000E-03	 6.76266000E-02	-8.14014000E-03
		-1.60145000E-03	 7.40604000E-02	 7.37009000E-03
		-1.69766000E-03	 7.56294000E-02	 7.35700000E-03
		-1.90896000E-03	 6.59125000E-02	 7.67490000E-03
		-8.42206000E-04	 7.40650000E-02	 3.48699000E-03
		-1.64983000E-03	 7.48323000E-02	 7.40810000E-03
		-1.95512000E-03	 6.77636000E-02	 7.65398000E-03
		-8.87636000E-04	 7.56360000E-02	 3.51331000E-03
		-7.16330000E-05	 7.72813000E-02	-3.21130000E-04
		 1.64536000E-03	 7.71686000E-02	-7.96569000E-03
		-7.46370000E-05	 7.64352000E-02	-3.08235000E-04
		 1.59370000E-03	 7.63234000E-02	-7.92364000E-03
		-6.93298000E-05	 6.96297000E-02	-2.74935000E-04
		 7.86823000E-04	 7.72381000E-02	-4.16087000E-03
		 1.86128000E-03	 6.95284000E-02	-8.16196000E-03
		-1.78965000E-03	 7.72965000E-02	 7.32478000E-03
		-1.74381000E-03	 7.64490000E-02	 7.30839000E-03
		-2.00133000E-03	 6.96678000E-02	 7.61212000E-03
		-9.30298000E-04	 7.73022000E-02	 3.51916000E-03
		-6.33992000E-05	 8.90130000E-02	-3.92405000E-04
		 1.02566000E-03	 8.89219000E-02	-7.29004000E-03
		-6.53355000E-05	 9.01515000E-02	-4.00437000E-04
		 1.12300000E-03	 9.00548000E-02	-7.29567000E-03
		-7.23883000E-05	 8.18017000E-02	-3.38333000E-04
		 4.83529000E-04	 8.89802000E-02	-3.83892000E-03
		 1.18585000E-03	 8.17038000E-02	-7.60736000E-03
		-6.40230000E-05	 8.95719000E-02	-3.96274000E-04
		 1.07481000E-03	 8.94753000E-02	-7.30831000E-03
		-7.24060000E-05	 8.31214000E-02	-3.49888000E-04
		 5.29988000E-04	 9.01155000E-02	-3.86477000E-03
		 1.30571000E-03	 8.30152000E-02	-7.61921000E-03
		-1.15158000E-03	 8.90218000E-02	 6.50512000E-03
		-1.25274000E-03	 9.01547000E-02	 6.49439000E-03
		-1.33155000E-03	 8.18137000E-02	 6.93273000E-03
		-6.10004000E-04	 8.90312000E-02	 3.05331000E-03
		-1.20162000E-03	 8.95753000E-02	 6.51612000E-03
		-1.45067000E-03	 8.31275000E-02	 6.92136000E-03
		-6.60126000E-04	 9.01666000E-02	 3.06345000E-03
		-6.56814000E-05	 9.13828000E-02	-4.08573000E-04
		 1.21313000E-03	 9.12834000E-02	-7.31726000E-03
		-6.62482000E-05	 9.07529000E-02	-4.04268000E-04
		 1.16766000E-03	 9.06562000E-02	-7.27954000E-03
		-7.05962000E-05	 8.45512000E-02	-3.66382000E-04
		 5.74712000E-04	 9.13443000E-02	-3.90719000E-03
		 1.42026000E-03	 8.44443000E-02	-7.63711000E-03
		-1.34411000E-03	 9.13841000E-02	 6.49935000E-03
		-1.29956000E-03	 9.07558000E-02	 6.47035000E-03
		-1.56130000E-03	 8.45579000E-02	 6.90595000E-03
		-7.05845000E-04	 9.13964000E-02	 3.08943000E-03
		-5.44978000E-05	 1.02331000E-01	-4.80795000E-04
		 9.77396000E-04	 1.02277000E-01	-7.08904000E-03
		-4.67855000E-05	 1.03377000E-01	-4.90641000E-04
		 9.91605000E-04	 1.03329000E-01	-7.10816000E-03
		-5.71813000E-05	 9.57538000E-02	-4.38216000E-04
		 4.59026000E-04	 1.02303000E-01	-3.79613000E-03
		 9.72709000E-04	 9.56881000E-02	-7.11878000E-03
		-5.16707000E-05	 1.02850000E-01	-4.86884000E-04
		 9.82670000E-04	 1.02801000E-01	-7.09279000E-03
		-5.64927000E-05	 9.68083000E-02	-4.46823000E-04
		 4.67337000E-04	 1.03352000E-01	-3.80795000E-03
		 1.02372000E-03	 9.67428000E-02	-7.13089000E-03
		-1.07605000E-03	 1.02363000E-01	 6.11844000E-03
		-1.08174000E-03	 1.03405000E-01	 6.11816000E-03
		-1.08067000E-03	 9.57835000E-02	 6.23680000E-03
		-5.65243000E-04	 1.02346000E-01	 2.83163000E-03
		-1.07802000E-03	 1.02879000E-01	 6.11054000E-03
		-1.13424000E-03	 9.68321000E-02	 6.23127000E-03
		-5.59599000E-04	 1.03388000E-01	 2.82436000E-03
		-3.81186000E-05	 1.04443000E-01	-4.89935000E-04
		 9.91587000E-04	 1.04389000E-01	-7.13975000E-03
		-4.16773000E-05	 1.03914000E-01	-4.91601000E-04
		 9.92965000E-04	 1.03864000E-01	-7.12261000E-03
		-5.45762000E-05	 9.79092000E-02	-4.48034000E-04
		 4.74619000E-04	 1.04415000E-01	-3.82827000E-03
		 1.06035000E-03	 9.78395000E-02	-7.15803000E-03
		-1.07194000E-03	 1.04470000E-01	 6.15173000E-03
		-1.07735000E-03	 1.03941000E-01	 6.13116000E-03
		-1.17167000E-03	 9.79318000E-02	 6.25563000E-03
		-5.51723000E-04	 1.04455000E-01	 2.84617000E-03
		 0.00000000E+00	 0.00000000E+00	 0.00000000E+00
		 0.00000000E+00	 0.00000000E+00	 0.00000000E+00
		 3.05394000E-05	-7.98935000E-04	-1.73266000E-04
		-1.55023000E-03	-1.05162000E-03	 2.79428000E-03
		 0.00000000E+00	 0.00000000E+00	 0.00000000E+00
		 0.00000000E+00	 0.00000000E+00	 0.00000000E+00
		 4.32826000E-06	-2.10671000E-03	-1.81900000E-04
		-1.04358000E-03	-2.36328000E-03	 2.79109000E-03
		 0.00000000E+00	 0.00000000E+00	 0.00000000E+00
		 2.94512000E-05	 4.44660000E-04	-8.16381000E-05
		-7.64405000E-04	-8.44039000E-04	 1.46814000E-03
		-8.66512000E-04	 1.83972000E-04	 1.20187000E-03
		 0.00000000E+00	 0.00000000E+00	 0.00000000E+00
		 0.00000000E+00	 0.00000000E+00	 0.00000000E+00
		 1.79218000E-05	-1.53508000E-03	-1.76415000E-04
		-1.29290000E-03	-1.78410000E-03	 2.66922000E-03
		 0.00000000E+00	 0.00000000E+00	 0.00000000E+00
		 2.14527000E-06	-2.37808000E-04	-7.83425000E-05
		-5.19343000E-04	-2.15034000E-03	 1.33927000E-03
		-4.71583000E-04	-4.72327000E-04	 1.14614000E-03
		 0.00000000E+00	 0.00000000E+00	 0.00000000E+00
		 1.60913000E-03	-1.07508000E-03	-3.14129000E-03
		 0.00000000E+00	 0.00000000E+00	 0.00000000E+00
		 1.05577000E-03	-2.39085000E-03	-3.15525000E-03
		 0.00000000E+00	 0.00000000E+00	 0.00000000E+00
		 9.24635000E-04	 1.38536000E-04	-1.37337000E-03
		 8.24236000E-04	-8.53962000E-04	-1.81453000E-03
		 0.00000000E+00	 0.00000000E+00	 0.00000000E+00
		 1.32928000E-03	-1.80910000E-03	-3.02165000E-03
		 0.00000000E+00	 0.00000000E+00	 0.00000000E+00
		 4.78117000E-04	-5.19366000E-04	-1.31063000E-03
		 5.27777000E-04	-2.16285000E-03	-1.70290000E-03
		 0.00000000E+00	 0.00000000E+00	 0.00000000E+00
		 0.00000000E+00	 0.00000000E+00	 0.00000000E+00
		-2.40713000E-05	-2.89723000E-03	-1.86313000E-04
		-5.20059000E-04	-3.12860000E-03	 2.78271000E-03
		 0.00000000E+00	 0.00000000E+00	 0.00000000E+00
		 0.00000000E+00	 0.00000000E+00	 0.00000000E+00
		-9.75658000E-06	-2.58136000E-03	-1.85079000E-04
		-7.83653000E-04	-2.82320000E-03	 2.87708000E-03
		 0.00000000E+00	 0.00000000E+00	 0.00000000E+00
		-2.63132000E-05	-5.04139000E-04	-8.40459000E-05
		-2.73080000E-04	-2.92949000E-03	 1.23901000E-03
		-3.40041000E-05	-7.18618000E-04	 1.19999000E-03
		 0.00000000E+00	 0.00000000E+00	 0.00000000E+00
		 4.76084000E-04	-3.15677000E-03	-3.15543000E-03
		 0.00000000E+00	 0.00000000E+00	 0.00000000E+00
		 7.67401000E-04	-2.85580000E-03	-3.24789000E-03
		 0.00000000E+00	 0.00000000E+00	 0.00000000E+00
		-1.70028000E-05	-7.67063000E-04	-1.37624000E-03
		 2.27357000E-04	-2.94397000E-03	-1.61094000E-03
		 3.07444000E-05	-9.19393000E-03	-3.70980000E-04
		-3.06856000E-03	-9.47024000E-03	 6.40530000E-03
		 1.42441000E-05	-1.20158000E-02	-4.19948000E-04
		-2.55590000E-03	-1.22953000E-02	 6.37757000E-03
		 3.26053000E-05	-3.94853000E-03	-2.67189000E-04
		-1.51393000E-03	-9.26575000E-03	 3.07591000E-03
		-2.30364000E-03	-4.22463000E-03	 4.63566000E-03
		 2.32547000E-05	-1.06682000E-02	-3.96227000E-04
		-2.81031000E-03	-1.09488000E-02	 6.28751000E-03
		 8.60412000E-06	-5.99684000E-03	-2.90232000E-04
		-1.26675000E-03	-1.20853000E-02	 2.93376000E-03
		-1.75743000E-03	-6.27011000E-03	 4.61675000E-03
		 3.13822000E-03	-9.39488000E-03	-7.15629000E-03
		 2.58771000E-03	-1.22448000E-02	-7.22658000E-03
		 2.37212000E-03	-4.20832000E-03	-5.17532000E-03
		 1.57640000E-03	-9.22469000E-03	-3.82157000E-03
		 2.86521000E-03	-1.08931000E-02	-7.08567000E-03
		 1.77955000E-03	-6.26612000E-03	-5.20288000E-03
		 1.30053000E-03	-1.20600000E-02	-3.77316000E-03
		-1.59363000E-05	-1.43371000E-02	-4.59930000E-04
		-2.03843000E-03	-1.45815000E-02	 6.31447000E-03
		 1.81759000E-07	-1.32377000E-02	-4.41487000E-04
		-2.29606000E-03	-1.35376000E-02	 6.47519000E-03
		-2.11944000E-05	-7.48752000E-03	-3.06988000E-04
		-1.04060000E-03	-1.43870000E-02	 2.75434000E-03
		-1.20240000E-03	-7.73558000E-03	 4.59559000E-03
		 2.04072000E-03	-1.45654000E-02	-7.24441000E-03
		 2.31562000E-03	-1.34729000E-02	-7.37219000E-03
		 1.17514000E-03	-7.74921000E-03	-5.21419000E-03
		 1.01817000E-03	-1.43819000E-02	-3.67141000E-03
		-1.00207000E-05	-2.55178000E-02	-6.41414000E-04
		-4.05734000E-03	-2.56071000E-02	 8.47668000E-03
		-1.37143000E-05	-2.94554000E-02	-7.45046000E-04
		-3.89738000E-03	-2.96533000E-02	 8.41841000E-03
		 1.99177000E-05	-1.65645000E-02	-4.92425000E-04
		-2.02903000E-03	-2.55440000E-02	 3.85511000E-03
		-3.67182000E-03	-1.67702000E-02	 7.76077000E-03
		-9.58608000E-06	-2.75045000E-02	-6.90053000E-04
		-3.97968000E-03	-2.76635000E-02	 8.40289000E-03
		 8.90865000E-06	-2.00533000E-02	-5.73961000E-04
		-1.98193000E-03	-2.95417000E-02	 3.71418000E-03
		-3.30601000E-03	-2.02795000E-02	 7.72615000E-03
		 4.00849000E-03	-2.54955000E-02	-9.74669000E-03
		 3.87456000E-03	-2.94654000E-02	-9.93013000E-03
		 3.71381000E-03	-1.66499000E-02	-8.75336000E-03
		 1.99836000E-03	-2.54938000E-02	-5.12698000E-03
		 3.94157000E-03	-2.74943000E-02	-9.79912000E-03
		 3.33436000E-03	-2.01646000E-02	-8.88389000E-03
		 1.93206000E-03	-2.94538000E-02	-5.22503000E-03
		-3.33688000E-05	-3.32721000E-02	-8.47646000E-04
		-3.86849000E-03	-3.35937000E-02	 8.26804000E-03
		-2.14549000E-05	-3.13941000E-02	-7.99019000E-04
		-3.88472000E-03	-3.15202000E-02	 8.45414000E-03
		-5.70843000E-06	-2.31970000E-02	-6.47891000E-04
		-1.91673000E-03	-3.34245000E-02	 3.47606000E-03
		-3.00319000E-03	-2.34433000E-02	 7.60820000E-03
		 3.76417000E-03	-3.33309000E-02	-1.00119000E-02
		 3.82150000E-03	-3.14034000E-02	-1.00745000E-02
		 2.96220000E-03	-2.33187000E-02	-8.91660000E-03
		 1.85269000E-03	-3.33042000E-02	-5.21702000E-03
		-6.37369000E-05	-4.41074000E-02	-9.58977000E-04
		-4.30578000E-03	-4.39616000E-02	 7.53387000E-03
		-6.98760000E-05	-4.85163000E-02	-1.06984000E-03
		-4.65299000E-03	-4.88218000E-02	 7.42791000E-03
		-6.98256000E-05	-3.50277000E-02	-8.03159000E-04
		-2.18715000E-03	-4.40651000E-02	 3.27335000E-03
		-4.24737000E-03	-3.50907000E-02	 8.25245000E-03
		-6.52140000E-05	-4.62466000E-02	-1.01342000E-03
		-4.46907000E-03	-4.62718000E-02	 7.49138000E-03
		-7.87640000E-05	-3.92960000E-02	-9.59312000E-04
		-2.23909000E-03	-4.86870000E-02	 3.17344000E-03
		-4.40258000E-03	-3.92999000E-02	 8.21245000E-03
		 4.01737000E-03	-4.39418000E-02	-9.44492000E-03
		 4.22135000E-03	-4.82022000E-02	-9.55864000E-03
		 4.08979000E-03	-3.49216000E-02	-9.85315000E-03
		 1.97659000E-03	-4.40624000E-02	-5.18897000E-03
		 4.12341000E-03	-4.60356000E-02	-9.51116000E-03
		 4.18250000E-03	-3.91578000E-02	-1.00227000E-02
		 2.06346000E-03	-4.83707000E-02	-5.31199000E-03
		-2.21002000E-04	-5.31651000E-02	-1.18411000E-03
		-4.88602000E-03	-5.38410000E-02	 7.31138000E-03
		-1.42803000E-04	-5.07733000E-02	-1.12744000E-03
		-4.76792000E-03	-5.17809000E-02	 7.35887000E-03
		-1.19671000E-04	-4.36624000E-02	-1.14380000E-03
		-2.66744000E-03	-5.35064000E-02	 3.06659000E-03
		-4.42893000E-03	-4.35650000E-02	 8.04877000E-03
		 4.44820000E-03	-5.27119000E-02	-9.66791000E-03