# vtk DataFile Version 3.0

ASCII
DATASET UNSTRUCTURED_GRID

POINTS 522 double
	 1.00000000E+00	 1.00000000E+00	-5.96046000E-08
	 1.00000000E+00	 5.00000000E-01	-5.96046000E-08
	 1.00000000E+00	 5.00000000E-01	 1.00000000E+00
	 1.00000000E+00	 1.00000000E+00	 1.00000000E+00
	 5.00000000E-01	 1.00000000E+00	-5.96046000E-08
	 5.00000000E-01	 5.00000000E-01	-5.96046000E-08
	 5.00000000E-01	 5.00000000E-01	 1.00000000E+00
	 5.00000000E-01	 1.00000000E+00	 1.00000000E+00
	 1.00000000E+00	 7.50000000E-01	-5.96046000E-08
	 1.00000000E+00	 5.00000000E-01	 5.00000000E-01
	 1.00000000E+00	 7.50000000E-01	 1.00000000E+00
	 1.00000000E+00	 1.00000000E+00	 5.00000000E-01
	 7.50000000E-01	 1.00000000E+00	-5.96046000E-08
	 7.50000000E-01	 5.00000000E-01	-5.96046000E-08
	 7.50000000E-01	 5.00000000E-01	 1.00000000E+00
	 7.50000000E-01	 1.00000000E+00	 1.00000000E+00
	 5.00000000E-01	 7.50000000E-01	-5.96046000E-08
	 5.00000000E-01	 5.00000000E-01	 5.00000000E-01
	 5.00000000E-01	 7.50000000E-01	 1.00000000E+00
	 5.00000000E-01	 1.00000000E+00	 5.00000000E-01
	 1.00000000E+00	-1.49012000E-08	-5.96046000E-08
	 1.00000000E+00	-1.49012000E-08	 1.00000000E+00
	 5.00000000E-01	-1.49012000E-08	-5.96046000E-08
	 5.00000000E-01	-1.49012000E-08	 1.00000000E+00
	 1.00000000E+00	 2.50000000E-01	-5.96046000E-08
	 1.00000000E+00	-1.49012000E-08	 5.00000000E-01
	 1.00000000E+00	 2.50000000E-01	 1.00000000E+00
	 7.50000000E-01	-1.49012000E-08	-5.96046000E-08
	 7.50000000E-01	-1.49012000E-08	 1.00000000E+00
	 5.00000000E-01	 2.50000000E-01	-5.96046000E-08
	 5.00000000E-01	-1.49012000E-08	 5.00000000E-01
	 5.00000000E-01	 2.50000000E-01	 1.00000000E+00
	-7.45058000E-09	 1.00000000E+00	-5.96046000E-08
	-7.45058000E-09	 5.00000000E-01	-5.96046000E-08
	-7.45058000E-09	 5.00000000E-01	 1.00000000E+00
	-7.45058000E-09	 1.00000000E+00	 1.00000000E+00
	 2.50000000E-01	 1.00000000E+00	-5.96046000E-08
	 2.50000000E-01	 5.00000000E-01	-5.96046000E-08
	 2.50000000E-01	 5.00000000E-01	 1.00000000E+00
	 2.50000000E-01	 1.00000000E+00	 1.00000000E+00
	-7.45058000E-09	 7.50000000E-01	-5.96046000E-08
	-7.45058000E-09	 5.00000000E-01	 5.00000000E-01
	-7.45058000E-09	 7.50000000E-01	 1.00000000E+00
	-7.45058000E-09	 1.00000000E+00	 5.00000000E-01
	-7.45058000E-09	-1.49012000E-08	-5.96046000E-08
	-7.45058000E-09	-1.49012000E-08	 1.00000000E+00
	 2.50000000E-01	-1.49012000E-08	-5.96046000E-08
	 2.50000000E-01	-1.49012000E-08	 1.00000000E+00
	-7.45058000E-09	 2.50000000E-01	-5.96046000E-08
	-7.45058000E-09	-1.49012000E-08	 5.00000000E-01
	-7.45058000E-09	 2.50000000E-01	 1.00000000E+00
	 1.00000000E+00	 5.00000000E-01	 2.00000000E+00
	 1.00000000E+00	 1.00000000E+00	 2.00000000E+00
	 5.00000000E-01	 5.00000000E-01	 2.00000000E+00
	 5.00000000E-01	 1.00000000E+00	 2.00000000E+00
	 1.00000000E+00	 5.00000000E-01	 1.50000000E+00
	 1.00000000E+00	 7.50000000E-01	 2.00000000E+00
	 1.00000000E+00	 1.00000000E+00	 1.50000000E+00
	 7.50000000E-01	 5.00000000E-01	 2.00000000E+00
	 7.50000000E-01	 1.00000000E+00	 2.00000000E+00
	 5.00000000E-01	 5.00000000E-01	 1.50000000E+00
	 5.00000000E-01	 7.50000000E-01	 2.00000000E+00
	 5.00000000E-01	 1.00000000E+00	 1.50000000E+00
	 1.00000000E+00	-1.49012000E-08	 2.00000000E+00
	 5.00000000E-01	-1.49012000E-08	 2.00000000E+00
	 1.00000000E+00	-1.49012000E-08	 1.50000000E+00
	 1.00000000E+00	 2.50000000E-01	 2.00000000E+00
	 7.50000000E-01	-1.49012000E-08	 2.00000000E+00
	 5.00000000E-01	-1.49012000E-08	 1.50000000E+00
	 5.00000000E-01	 2.50000000E-01	 2.00000000E+00
	-7.45058000E-09	 5.00000000E-01	 2.00000000E+00
	-7.45058000E-09	 1.00000000E+00	 2.00000000E+00
	 2.50000000E-01	 5.00000000E-01	 2.00000000E+00
	 2.50000000E-01	 1.00000000E+00	 2.00000000E+00
	-7.45058000E-09	 5.00000000E-01	 1.50000000E+00
	-7.45058000E-09	 7.50000000E-01	 2.00000000E+00
	-7.45058000E-09	 1.00000000E+00	 1.50000000E+00
	-7.45058000E-09	-1.49012000E-08	 2.00000000E+00
	 2.50000000E-01	-1.49012000E-08	 2.00000000E+00
	-7.45058000E-09	-1.49012000E-08	 1.50000000E+00
	-7.45058000E-09	 2.50000000E-01	 2.00000000E+00
	 1.00000000E+00	 5.00000000E-01	 3.00000000E+00
	 1.00000000E+00	 1.00000000E+00	 3.00000000E+00
	 5.00000000E-01	 5.00000000E-01	 3.00000000E+00
	 5.00000000E-01	 1.00000000E+00	 3.00000000E+00
	 1.00000000E+00	 5.00000000E-01	 2.50000000E+00
	 1.00000000E+00	 7.50000000E-01	 3.00000000E+00
	 1.00000000E+00	 1.00000000E+00	 2.50000000E+00
	 7.50000000E-01	 5.00000000E-01	 3.00000000E+00
	 7.50000000E-01	 1.00000000E+00	 3.00000000E+00
	 5.00000000E-01	 5.00000000E-01	 2.50000000E+00
	 5.00000000E-01	 7.50000000E-01	 3.00000000E+00
	 5.00000000E-01	 1.00000000E+00	 2.50000000E+00
	 1.00000000E+00	-1.49012000E-08	 3.00000000E+00
	 5.00000000E-01	-1.49012000E-08	 3.00000000E+00
	 1.00000000E+00	-1.49012000E-08	 2.50000000E+00
	 1.00000000E+00	 2.50000000E-01	 3.00000000E+00
	 7.50000000E-01	-1.49012000E-08	 3.00000000E+00
	 5.00000000E-01	-1.49012000E-08	 2.50000000E+00
	 5.00000000E-01	 2.50000000E-01	 3.00000000E+00
	-7.45058000E-09	 5.00000000E-01	 3.00000000E+00
	-7.45058000E-09	 1.00000000E+00	 3.00000000E+00
	 2.50000000E-01	 5.00000000E-01	 3.00000000E+00
	 2.50000000E-01	 1.00000000E+00	 3.00000000E+00
	-7.45058000E-09	 5.00000000E-01	 2.50000000E+00
	-7.45058000E-09	 7.50000000E-01	 3.00000000E+00
	-7.45058000E-09	 1.00000000E+00	 2.50000000E+00
	-7.45058000E-09	-1.49012000E-08	 3.00000000E+00
	 2.50000000E-01	-1.49012000E-08	 3.00000000E+00
	-7.45058000E-09	-1.49012000E-08	 2.50000000E+00
	-7.45058000E-09	 2.50000000E-01	 3.00000000E+00
	 1.00000000E+00	 5.00000000E-01	 4.00000000E+00
	 1.00000000E+00	 1.00000000E+00	 4.00000000E+00
	 5.00000000E-01	 5.00000000E-01	 4.00000000E+00
	 5.00000000E-01	 1.00000000E+00	 4.00000000E+00
	 1.00000000E+00	 5.00000000E-01	 3.50000000E+00
	 1.00000000E+00	 7.50000000E-01	 4.00000000E+00
	 1.00000000E+00	 1.00000000E+00	 3.50000000E+00
	 7.50000000E-01	 5.00000000E-01	 4.00000000E+00
	 7.50000000E-01	 1.00000000E+00	 4.00000000E+00
	 5.00000000E-01	 5.00000000E-01	 3.50000000E+00
	 5.00000000E-01	 7.50000000E-01	 4.00000000E+00
	 5.00000000E-01	 1.00000000E+00	 3.50000000E+00
	 1.00000000E+00	-1.49012000E-08	 4.00000000E+00
	 5.00000000E-01	-1.49012000E-08	 4.00000000E+00
	 1.00000000E+00	-1.49012000E-08	 3.50000000E+00
	 1.00000000E+00	 2.50000000E-01	 4.00000000E+00
	 7.50000000E-01	-1.49012000E-08	 4.00000000E+00
	 5.00000000E-01	-1.49012000E-08	 3.50000000E+00
	 5.00000000E-01	 2.50000000E-01	 4.00000000E+00
	-7.45058000E-09	 5.00000000E-01	 4.00000000E+00
	-7.45058000E-09	 1.00000000E+00	 4.00000000E+00
	 2.50000000E-01	 5.00000000E-01	 4.00000000E+00
	 2.50000000E-01	 1.00000000E+00	 4.00000000E+00
	-7.45058000E-09	 5.00000000E-01	 3.50000000E+00
	-7.45058000E-09	 7.50000000E-01	 4.00000000E+00
	-7.45058000E-09	 1.00000000E+00	 3.50000000E+00
	-7.45058000E-09	-1.49012000E-08	 4.00000000E+00
	 2.50000000E-01	-1.49012000E-08	 4.00000000E+00
	-7.45058000E-09	-1.49012000E-08	 3.50000000E+00
	-7.45058000E-09	 2.50000000E-01	 4.00000000E+00
	 1.00000000E+00	 5.00000000E-01	 5.00000000E+00
	 1.00000000E+00	 1.00000000E+00	 5.00000000E+00
	 5.00000000E-01	 5.00000000E-01	 5.00000000E+00
	 5.00000000E-01	 1.00000000E+00	 5.00000000E+00
	 1.00000000E+00	 5.00000000E-01	 4.50000000E+00
	 1.00000000E+00	 7.50000000E-01	 5.00000000E+00
	 1.00000000E+00	 1.00000000E+00	 4.50000000E+00
	 7.50000000E-01	 5.00000000E-01	 5.00000000E+00
	 7.50000000E-01	 1.00000000E+00	 5.00000000E+00
	 5.00000000E-01	 5.00000000E-01	 4.50000000E+00
	 5.00000000E-01	 7.50000000E-01	 5.00000000E+00
	 5.00000000E-01	 1.00000000E+00	 4.50000000E+00
	 1.00000000E+00	-1.49012000E-08	 5.00000000E+00
	 5.00000000E-01	-1.49012000E-08	 5.00000000E+00
	 1.00000000E+00	-1.49012000E-08	 4.50000000E+00
	 1.00000000E+00	 2.50000000E-01	 5.00000000E+00
	 7.50000000E-01	-1.49012000E-08	 5.00000000E+00
	 5.00000000E-01	-1.49012000E-08	 4.50000000E+00
	 5.00000000E-01	 2.50000000E-01	 5.00000000E+00
	-7.45058000E-09	 5.00000000E-01	 5.00000000E+00
	-7.45058000E-09	 1.00000000E+00	 5.00000000E+00
	 2.50000000E-01	 5.00000000E-01	 5.00000000E+00
	 2.50000000E-01	 1.00000000E+00	 5.00000000E+00
	-7.45058000E-09	 5.00000000E-01	 4.50000000E+00
	-7.45058000E-09	 7.50000000E-01	 5.00000000E+00
	-7.45058000E-09	 1.00000000E+00	 4.50000000E+00
	-7.45058000E-09	-1.49012000E-08	 5.00000000E+00
	 2.50000000E-01	-1.49012000E-08	 5.00000000E+00
	-7.45058000E-09	-1.49012000E-08	 4.50000000E+00
	-7.45058000E-09	 2.50000000E-01	 5.00000000E+00
	 1.00000000E+00	 5.00000000E-01	 6.00000000E+00
	 1.00000000E+00	 1.00000000E+00	 6.00000000E+00
	 5.00000000E-01	 5.00000000E-01	 6.00000000E+00
	 5.00000000E-01	 1.00000000E+00	 6.00000000E+00
	 1.00000000E+00	 5.00000000E-01	 5.50000000E+00
	 1.00000000E+00	 7.50000000E-01	 6.00000000E+00
	 1.00000000E+00	 1.00000000E+00	 5.50000000E+00
	 7.50000000E-01	 5.00000000E-01	 6.00000000E+00
	 7.50000000E-01	 1.00000000E+00	 6.00000000E+00
	 5.00000000E-01	 5.00000000E-01	 5.50000000E+00
	 5.00000000E-01	 7.50000000E-01	 6.00000000E+00
	 5.00000000E-01	 1.00000000E+00	 5.50000000E+00
	 1.00000000E+00	-1.49012000E-08	 6.00000000E+00
	 5.00000000E-01	-1.49012000E-08	 6.00000000E+00
	 1.00000000E+00	-1.49012000E-08	 5.50000000E+00
	 1.00000000E+00	 2.50000000E-01	 6.00000000E+00
	 7.50000000E-01	-1.49012000E-08	 6.00000000E+00
	 5.00000000E-01	-1.49012000E-08	 5.50000000E+00
	 5.00000000E-01	 2.50000000E-01	 6.00000000E+00
	-7.45058000E-09	 5.00000000E-01	 6.00000000E+00
	-7.45058000E-09	 1.00000000E+00	 6.00000000E+00
	 2.50000000E-01	 5.00000000E-01	 6.00000000E+00
	 2.50000000E-01	 1.00000000E+00	 6.00000000E+00
	-7.45058000E-09	 5.00000000E-01	 5.50000000E+00
	-7.45058000E-09	 7.50000000E-01	 6.00000000E+00
	-7.45058000E-09	 1.00000000E+00	 5.50000000E+00
	-7.45058000E-09	-1.49012000E-08	 6.00000000E+00
	 2.50000000E-01	-1.49012000E-08	 6.00000000E+00
	-7.45058000E-09	-1.49012000E-08	 5.50000000E+00
	-7.45058000E-09	 2.50000000E-01	 6.00000000E+00
	 1.00000000E+00	 5.00000000E-01	 7.00000000E+00
[...]
POINT_DATA 522
FIELD U 1
	U 3 522 double
		 0.00000000E+00	 0.00000000E+00	 0.00000000E+00
		 0.00000000E+00	 0.00000000E+00	 0.00000000E+00
		-7.86746000E-06	 4.74167000E-03	-1.05689000E-05
		-1.17703000E-03	 4.71944000E-03	-1.80770000E-03
		 0.00000000E+00	 0.00000000E+00	 0.00000000E+00
		 0.00000000E+00	 0.00000000E+00	 0.00000000E+00
		-5.89097000E-06	 3.55762000E-03	-1.17221000E-05
		-1.20259000E-03	 3.54964000E-03	-1.87866000E-03
		 0.00000000E+00	 0.00000000E+00	 0.00000000E+00
		-9.99858000E-07	 1.79132000E-03	-3.91904000E-06
		-5.95567000E-04	 4.70852000E-03	-6.55343000E-04
		-3.16393000E-04	 1.89888000E-03	-1.19034000E-03
		 0.00000000E+00	 0.00000000E+00	 0.00000000E+00
		 0.00000000E+00	 0.00000000E+00	 0.00000000E+00
		-6.80371000E-06	 4.16788000E-03	-1.13989000E-05
		-1.19076000E-03	 4.15583000E-03	-1.97452000E-03
		 0.00000000E+00	 0.00000000E+00	 0.00000000E+00
		-1.22492000E-06	 1.28217000E-03	-4.88872000E-06
		-6.03789000E-04	 3.52900000E-03	-8.14722000E-04
		-6.18568000E-04	 1.42440000E-03	-1.18964000E-03
		 0.00000000E+00	 0.00000000E+00	 0.00000000E+00
		 1.16270000E-03	 4.73220000E-03	 1.78726000E-03
		 0.00000000E+00	 0.00000000E+00	 0.00000000E+00
		 1.19245000E-03	 3.56039000E-03	 1.85569000E-03
		 0.00000000E+00	 0.00000000E+00	 0.00000000E+00
		 3.15513000E-04	 1.90362000E-03	 1.18158000E-03
		 5.79824000E-04	 4.71315000E-03	 6.34503000E-04
		 0.00000000E+00	 0.00000000E+00	 0.00000000E+00
		 1.17889000E-03	 4.16840000E-03	 1.95220000E-03
		 0.00000000E+00	 0.00000000E+00	 0.00000000E+00
		 6.17142000E-04	 1.42770000E-03	 1.17847000E-03
		 5.92378000E-04	 3.53341000E-03	 7.91453000E-04
		 0.00000000E+00	 0.00000000E+00	 0.00000000E+00
		 0.00000000E+00	 0.00000000E+00	 0.00000000E+00
		-4.66000000E-06	 2.34661000E-03	-1.21807000E-05
		-1.22498000E-03	 2.33069000E-03	-1.80941000E-03
		 0.00000000E+00	 0.00000000E+00	 0.00000000E+00
		 0.00000000E+00	 0.00000000E+00	 0.00000000E+00
		-5.14699000E-06	 2.97170000E-03	-1.19293000E-05
		-1.21186000E-03	 2.95968000E-03	-1.77065000E-03
		 0.00000000E+00	 0.00000000E+00	 0.00000000E+00
		-1.84195000E-06	 5.55585000E-04	-4.83105000E-06
		-6.14616000E-04	 2.31672000E-03	-8.61427000E-04
		-8.78381000E-04	 7.07098000E-04	-1.19180000E-03
		 0.00000000E+00	 0.00000000E+00	 0.00000000E+00
		 1.21780000E-03	 2.33839000E-03	 1.78561000E-03
		 0.00000000E+00	 0.00000000E+00	 0.00000000E+00
		 1.20327000E-03	 2.96869000E-03	 1.74728000E-03
		 0.00000000E+00	 0.00000000E+00	 0.00000000E+00
		 8.75684000E-04	 7.09402000E-04	 1.18015000E-03
		 6.05805000E-04	 2.32009000E-03	 8.37299000E-04
		-2.68725000E-05	 9.57914000E-03	-1.91361000E-05
		-2.32738000E-03	 9.41501000E-03	-5.87457000E-04
		-2.27258000E-05	 7.48232000E-03	-1.82623000E-05
		-1.95068000E-03	 7.29814000E-03	-6.07017000E-04
		-1.80561000E-05	 7.66377000E-03	-1.66342000E-05
		-1.16823000E-03	 9.55286000E-03	-2.37788000E-04
		-1.88146000E-03	 7.61056000E-03	-1.51199000E-03
		-2.47840000E-05	 8.48189000E-03	-1.86435000E-05
		-2.13946000E-03	 8.29803000E-03	-6.26032000E-04
		-1.48574000E-05	 5.92142000E-03	-1.70261000E-05
		-9.88427000E-04	 7.44760000E-03	-2.74934000E-04
		-1.66769000E-03	 5.84289000E-03	-1.55840000E-03
		 2.27362000E-03	 9.42869000E-03	 5.50145000E-04
		 1.90664000E-03	 7.30976000E-03	 5.71884000E-04
		 1.84604000E-03	 7.62476000E-03	 1.48046000E-03
		 1.11455000E-03	 9.55990000E-03	 1.99677000E-04
		 2.09080000E-03	 8.31105000E-03	 5.89910000E-04
		 1.63957000E-03	 5.85474000E-03	 1.52655000E-03
		 9.43493000E-04	 7.45385000E-03	 2.38610000E-04
		-1.91106000E-05	 5.72188000E-03	-1.78693000E-05
		-1.59424000E-03	 5.54032000E-03	-5.85696000E-04
		-2.08887000E-05	 6.55004000E-03	-1.79236000E-05
		-1.77362000E-03	 6.36669000E-03	-5.88280000E-04
		-1.24291000E-05	 4.35650000E-03	-1.80118000E-05
		-8.09797000E-04	 5.68508000E-03	-2.73106000E-04
		-1.49015000E-03	 4.27057000E-03	-1.51296000E-03
		 1.55802000E-03	 5.55015000E-03	 5.51733000E-04
		 1.73354000E-03	 6.37750000E-03	 5.54069000E-04
		 1.46763000E-03	 4.27943000E-03	 1.47955000E-03
		 7.72412000E-04	 5.69033000E-03	 2.37674000E-04
		-1.15935000E-05	 8.31020000E-03	-1.85217000E-05
		-2.43880000E-03	 8.15030000E-03	 1.84762000E-03
		-5.39925000E-06	 6.03489000E-03	-1.93804000E-05
		-2.13037000E-03	 5.87758000E-03	 1.86323000E-03
		-2.40672000E-05	 9.73906000E-03	-1.97911000E-05
		-1.22600000E-03	 8.26711000E-03	 8.76471000E-04
		-2.45486000E-03	 9.57333000E-03	 6.70352000E-04
		-8.15222000E-06	 7.13504000E-03	-1.84768000E-05
		-2.28357000E-03	 6.97745000E-03	 1.85781000E-03
		-1.91153000E-05	 7.50605000E-03	-1.73906000E-05
		-1.06779000E-03	 5.99338000E-03	 8.82947000E-04
		-2.07281000E-03	 7.32886000E-03	 6.79851000E-04
		 2.41778000E-03	 8.17456000E-03	-1.88695000E-03
		 2.12244000E-03	 5.89512000E-03	-1.90461000E-03
		 2.40680000E-03	 9.58836000E-03	-7.10506000E-04
		 1.20272000E-03	 8.27952000E-03	-9.14701000E-04
		 2.26998000E-03	 6.99810000E-03	-1.89647000E-03
		 2.03608000E-03	 7.34110000E-03	-7.16028000E-04
		 1.05752000E-03	 6.00212000E-03	-9.22270000E-04
		-2.96932000E-06	 4.05749000E-03	-1.99887000E-05
		-1.82364000E-03	 3.90601000E-03	 1.84553000E-03
		-3.62495000E-06	 5.00957000E-03	-2.01555000E-05
		-1.97654000E-03	 4.85321000E-03	 1.87726000E-03
		-1.59286000E-05	 5.63000000E-03	-1.46050000E-05
		-9.15262000E-04	 4.01936000E-03	 8.53084000E-04
		-1.69738000E-03	 5.46283000E-03	 6.74929000E-04
		 1.82215000E-03	 3.91624000E-03	-1.88872000E-03
		 1.97272000E-03	 4.86738000E-03	-1.92090000E-03
		 1.66758000E-03	 5.47218000E-03	-7.06027000E-04
		 9.10481000E-04	 4.02430000E-03	-8.93441000E-04
		-9.43137000E-06	 2.85364000E-03	-2.69070000E-05
		-2.59329000E-03	 2.74304000E-03	 3.34100000E-03
		-5.37453000E-06	 3.58210000E-04	-3.93151000E-05
		-2.40788000E-03	 2.49897000E-04	 3.33459000E-03
		-5.98780000E-06	 5.87316000E-03	-1.75264000E-05
		-1.30219000E-03	 2.82066000E-03	 1.67080000E-03
		-2.46021000E-03	 5.73391000E-03	 2.68774000E-03
		-6.81443000E-06	 1.58349000E-03	-3.40381000E-05
		-2.50037000E-03	 1.47460000E-03	 3.31363000E-03
		-1.07272000E-06	 3.52149000E-03	-2.62750000E-05
		-1.20691000E-03	 3.25782000E-04	 1.63848000E-03
		-2.23850000E-03	 3.39121000E-03	 2.69239000E-03
		 2.57552000E-03	 2.77716000E-03	-3.39625000E-03
		 2.39726000E-03	 2.83023000E-04	-3.41551000E-03
		 2.45212000E-03	 5.76456000E-03	-2.72632000E-03
		 1.28477000E-03	 2.83650000E-03	-1.72306000E-03
		 2.48688000E-03	 1.50874000E-03	-3.38539000E-03
		 2.23942000E-03	 3.41613000E-03	-2.74745000E-03
		 1.19629000E-03	 3.41810000E-04	-1.71792000E-03
		-1.08898000E-06	-1.95188000E-03	-4.85162000E-05
		-2.22293000E-03	-2.06311000E-03	 3.31914000E-03
		-3.62370000E-06	-8.19008000E-04	-4.41648000E-05
		-2.31571000E-03	-9.27861000E-04	 3.35310000E-03
		 2.02699000E-06	 1.39533000E-03	-3.53980000E-05
		-1.11082000E-03	-1.98530000E-03	 1.60013000E-03
		-2.01157000E-03	 1.26840000E-03	 2.67042000E-03
		 2.22029000E-03	-2.02933000E-03	-3.41738000E-03
		 2.30862000E-03	-8.93945000E-04	-3.44246000E-03
		 2.01901000E-03	 1.28724000E-03	-2.74314000E-03
		 1.10850000E-03	-1.96940000E-03	-1.69836000E-03
		 1.25007000E-05	-5.00137000E-03	-5.52167000E-05
		-2.70680000E-03	-5.08302000E-03	 4.33104000E-03
		 2.64853000E-05	-7.66045000E-03	-6.66987000E-05
		-2.56943000E-03	-7.74702000E-03	 4.32711000E-03
		 4.94916000E-07	-7.87169000E-04	-4.27091000E-05
		-1.34673000E-03	-5.02889000E-03	 2.12561000E-03
		-2.68771000E-03	-8.78267000E-04	 3.88802000E-03
		 1.84305000E-05	-6.34472000E-03	-6.04027000E-05
		-2.63915000E-03	-6.42948000E-03	 4.32887000E-03
		 9.00532000E-06	-3.39064000E-03	-5.67021000E-05
		-1.27154000E-03	-7.68928000E-03	 2.11505000E-03
		-2.51835000E-03	-3.48705000E-03	 3.88197000E-03
		 2.72536000E-03	-5.02886000E-03	-4.43523000E-03
		 2.61996000E-03	-7.68551000E-03	-4.45742000E-03
		 2.68286000E-03	-8.38456000E-04	-3.97140000E-03
		 1.36578000E-03	-4.99890000E-03	-2.23791000E-03
		 2.67295000E-03	-6.37321000E-03	-4.44071000E-03
		 2.53574000E-03	-3.44398000E-03	-3.99352000E-03
		 1.32224000E-03	-7.65813000E-03	-2.24726000E-03
		 3.62103000E-05	-1.01983000E-02	-8.53165000E-05
		-2.44202000E-03	-1.02844000E-02	 4.29693000E-03
		 3.24767000E-05	-8.94498000E-03	-7.52989000E-05
		-2.50443000E-03	-9.03119000E-03	 4.32640000E-03
		 1.57867000E-05	-5.83991000E-03	-6.32041000E-05
		-1.20318000E-03	-1.02269000E-02	 2.07686000E-03
		-2.35918000E-03	-5.93864000E-03	 3.87034000E-03
		 2.51478000E-03	-1.02259000E-02	-4.46774000E-03
		 2.56747000E-03	-8.97087000E-03	-4.47756000E-03
		 2.39159000E-03	-5.89634000E-03	-3.99489000E-03
		 1.27477000E-03	-1.01976000E-02	-2.24557000E-03
		 3.47051000E-05	-1.45037000E-02	-8.22175000E-05
		-2.73600000E-03	-1.45577000E-02	 4.80174000E-03
		 3.74390000E-05	-1.72417000E-02	-1.11451000E-04
		-2.69542000E-03	-1.72947000E-02	 4.78812000E-03
		 1.77405000E-05	-9.60731000E-03	-6.39533000E-05
		-1.35087000E-03	-1.45229000E-02	 2.35117000E-03
		-2.72057000E-03	-9.68987000E-03	 4.62660000E-03
		 3.87487000E-05	-1.58797000E-02	-9.69503000E-05
		-2.71228000E-03	-1.59327000E-02	 4.78294000E-03
		 2.10280000E-05	-1.23198000E-02	-7.95168000E-05
		-1.33047000E-03	-1.72618000E-02	 2.32362000E-03
		-2.65412000E-03	-1.23908000E-02	 4.62450000E-03
		 2.81334000E-03	-1.45022000E-02	-4.98460000E-03
		 2.78135000E-03	-1.72391000E-02	-5.02967000E-03
		 2.78329000E-03	-9.59662000E-03	-4.76681000E-03
		 1.42768000E-03	-1.44993000E-02	-2.51417000E-03
		 2.79710000E-03	-1.58754000E-02	-5.00229000E-03
		 2.70894000E-03	-1.23277000E-02	-4.79068000E-03
		 1.41204000E-03	-1.72343000E-02	-2.55375000E-03
		 4.29121000E-05	-1.99506000E-02	-1.17597000E-04
		-2.65778000E-03	-2.00019000E-02	 4.79203000E-03
		 3.82123000E-05	-1.85989000E-02	-1.17817000E-04
		-2.68036000E-03	-1.86507000E-02	 4.80046000E-03
		 2.64781000E-05	-1.49625000E-02	-1.01480000E-04
		-1.30740000E-03	-1.99700000E-02	 2.31472000E-03
		-2.57879000E-03	-1.50317000E-02	 4.59027000E-03
		 2.74927000E-03	-1.99534000E-02	-5.03467000E-03
		 2.76636000E-03	-1.85995000E-02	-5.04439000E-03
		 2.63832000E-03	-1.49771000E-02	-4.79947000E-03
		 1.39747000E-03	-1.99458000E-02	-2.55771000E-03
		 2.41372000E-05	-2.47058000E-02	-1.47077000E-04
		-2.76824000E-03	-2.47531000E-02	 4.97209000E-03
		 5.26837000E-05	-2.74817000E-02	-1.52680000E-04
		-2.73318000E-03	-2.75188000E-02	 4.99143000E-03
		 4.18691000E-05	-1.95219000E-02	-1.11882000E-04
		-1.37708000E-03	-2.47270000E-02	 2.38760000E-03
		-2.78582000E-03	-1.95430000E-02	 4.92487000E-03
		 3.28017000E-05	-2.61014000E-02	-1.51288000E-04
		-2.75877000E-03	-2.61405000E-02	 4.98407000E-03
		 6.61817000E-05	-2.22965000E-02	-1.40937000E-04
		-1.34664000E-03	-2.74986000E-02	 2.40275000E-03
		-2.71437000E-03	-2.23417000E-02	 4.89609000E-03
		 2.85055000E-03	-2.46786000E-02	-5.28472000E-03
		 2.84955000E-03	-2.74731000E-02	-5.29776000E-03
		 2.81594000E-03	-1.95430000E-02	-5.15363000E-03
		 1.43957000E-03	-2.46914000E-02	-2.70452000E-03
		 2.84355000E-03	-2.60831000E-02	-5.28917000E-03
		 2.80644000E-03	-2.22883000E-02	-5.18646000E-03
		 1.45787000E-03	-2.74743000E-02	-2.70978000E-03
		 7.98107000E-05	-3.02620000E-02	-1.74083000E-04
		-2.69283000E-03	-3.02951000E-02	 4.96498000E-03
		 7.16669000E-05	-2.88676000E-02	-1.60430000E-04
		-2.70715000E-03	-2.89079000E-02	 4.98156000E-03
		 8.14199000E-05	-2.50405000E-02	-1.44030000E-04
		-1.31061000E-03	-3.02747000E-02	 2.38428000E-03
		-2.66227000E-03	-2.50973000E-02	 4.90195000E-03
		 2.87251000E-03	-3.02459000E-02	-5.32280000E-03
		 2.86812000E-03	-2.88554000E-02	-5.31797000E-03
		 2.80133000E-03	-2.50103000E-02	-5.20227000E-03
		 1.47955000E-03	-3.02525000E-02	-2.72618000E-03
		 1.00324000E-04	-3.50403000E-02	-2.00602000E-04
		-2.61593000E-03	-3.50937000E-02	 4.83728000E-03
		 5.05758000E-05	-3.78837000E-02	-2.10903000E-04
		-2.65651000E-03	-3.79240000E-02	 4.92970000E-03
		 6.07707000E-05	-2.99198000E-02	-1.77171000E-04
		-1.25470000E-03	-3.50814000E-02	 2.31870000E-03
		-2.69675000E-03	-2.99861000E-02	 4.91538000E-03
		 7.95080000E-05	-3.64462000E-02	-1.93449000E-04
		-2.63168000E-03	-3.64968000E-02	 4.88457000E-03
		 5.62070000E-05	-3.27111000E-02	-1.66690000E-04
		-1.29873000E-03	-3.79057000E-02	 2.36109000E-03
		-2.70251000E-03	-3.27533000E-02	 4.98727000E-03
		 2.92088000E-03	-3.49608000E-02	-5.31459000E-03
		 2.90356000E-03	-3.78495000E-02	-5.34971000E-03
		 2.87872000E-03	-2.98419000E-02	-5.31683000E-03
		 1.49039000E-03	-3.49944000E-02	-2.74717000E-03
		 2.91626000E-03	-3.64065000E-02	-5.32896000E-03
		 2.89226000E-03	-3.26853000E-02	-5.33094000E-03
		 1.46747000E-03	-3.78668000E-02	-2.78429000E-03
		 2.53320000E-05	-4.06990000E-02	-2.97911000E-04
		-2.65709000E-03	-4.06875000E-02	 4.95125000E-03
		 2.69275000E-05	-3.93054000E-02	-2.51827000E-04
		-2.66692000E-03	-3.93291000E-02	 4.94968000E-03
		 6.47258000E-05	-3.54888000E-02	-2.29279000E-04
		-1.33302000E-03	-4.06860000E-02	 2.32975000E-03
		-2.67001000E-03	-3.54757000E-02	 4.97282000E-03
		 2.85961000E-03	-4.06998000E-02	-5.43733000E-03
		 2.87593000E-03	-3.92571000E-02	-5.37583000E-03
		 2.91501000E-03	-3.55203000E-02	-5.39447000E-03
		 1.41931000E-03	-4.07113000E-02	-2.88299000E-03
		 0.00000000E+00	 0.00000000E+00	 0.00000000E+00
		 0.00000000E+00	 0.00000000E+00	 0.00000000E+00
		 1.09267000E-04	-1.88102000E-02	-4.58031000E-04
		-2.37808000E-03	-2.00064000E-02	 1.64827000E-02
		 0.00000000E+00	 0.00000000E+00	 0.00000000E+00
		 0.00000000E+00	 0.00000000E+00	 0.00000000E+00
		 7.84573000E-05	-2.02297000E-02	-4.64564000E-04
		-3.31378000E-04	-2.15132000E-02	 1.66964000E-02
		 0.00000000E+00	 0.00000000E+00	 0.00000000E+00
		 8.31918000E-05	-4.35643000E-03	-1.58679000E-04
		-1.13436000E-03	-1.90286000E-02	 7.77283000E-03
		-2.65972000E-03	-5.86894000E-03	 8.63322000E-03
		 0.00000000E+00	 0.00000000E+00	 0.00000000E+00
		 0.00000000E+00	 0.00000000E+00	 0.00000000E+00
		 9.46824000E-05	-1.98791000E-02	-4.71029000E-04
		-1.33614000E-03	-2.11213000E-02	 1.65588000E-02
		 0.00000000E+00	 0.00000000E+00	 0.00000000E+00
		 2.47750000E-05	-5.64986000E-03	-1.56120000E-04
		-1.25867000E-04	-2.04767000E-02	 7.83896000E-03
		-1.38761000E-04	-7.18195000E-03	 8.41962000E-03
		 0.00000000E+00	 0.00000000E+00	 0.00000000E+00
		 2.54618000E-03	-1.93989000E-02	-1.74927000E-02
		 0.00000000E+00	 0.00000000E+00	 0.00000000E+00
		 4.86492000E-04	-2.08779000E-02	-1.77350000E-02
		 0.00000000E+00	 0.00000000E+00	 0.00000000E+00
		 2.79097000E-03	-5.68879000E-03	-8.99909000E-03
		 1.33581000E-03	-1.87309000E-02	-8.71578000E-03
		 0.00000000E+00	 0.00000000E+00	 0.00000000E+00
		 1.50605000E-03	-2.04893000E-02	-1.76028000E-02
		 0.00000000E+00	 0.00000000E+00	 0.00000000E+00
		 1.83021000E-04	-6.99742000E-03	-8.76813000E-03
		 2.81984000E-04	-2.01632000E-02	-8.80222000E-03
		 0.00000000E+00	 0.00000000E+00	 0.00000000E+00
		 0.00000000E+00	 0.00000000E+00	 0.00000000E+00
		 4.83970000E-05	-1.96290000E-02	-3.82342000E-04
		 1.73152000E-03	-2.08158000E-02	 1.65566000E-02
		 0.00000000E+00	 0.00000000E+00	 0.00000000E+00
		 0.00000000E+00	 0.00000000E+00	 0.00000000E+00
		 6.18404000E-05	-2.02866000E-02	-4.39049000E-04
		 6.81468000E-04	-2.15256000E-02	 1.66819000E-02
		 0.00000000E+00	 0.00000000E+00	 0.00000000E+00
		-2.71355000E-05	-4.68098000E-03	-1.08119000E-04
		 8.88609000E-04	-1.98398000E-02	 7.75506000E-03
		 2.40598000E-03	-6.18894000E-03	 8.68419000E-03
		 0.00000000E+00	 0.00000000E+00	 0.00000000E+00
		-1.59220000E-03	-2.01960000E-02	-1.74162000E-02
		 0.00000000E+00	 0.00000000E+00	 0.00000000E+00
		-5.45015000E-04	-2.08895000E-02	-1.76652000E-02
		 0.00000000E+00	 0.00000000E+00	 0.00000000E+00
		-2.43961000E-03	-5.98079000E-03	-8.94636000E-03
		-7.74340000E-04	-1.95411000E-02	-8.54506000E-03
		 2.26489000E-04	-6.72427000E-02	-1.74652000E-03
		-2.38935000E-03	-6.86637000E-02	 2.64652000E-02
		 2.20299000E-04	-6.92515000E-02	-1.80259000E-03
		-1.16863000E-03	-7.06612000E-02	 2.64865000E-02
		 1.75822000E-04	-4.03286000E-02	-9.82630000E-04
		-1.08960000E-03	-6.78255000E-02	 1.22704000E-02
		-2.30676000E-03	-4.17875000E-02	 2.23399000E-02
		 2.24233000E-04	-6.83768000E-02	-1.78536000E-03
		-1.77880000E-03	-6.97811000E-02	 2.64160000E-02
		 1.49016000E-04	-4.19807000E-02	-1.00521000E-03
		-4.68393000E-04	-6.98303000E-02	 1.21995000E-02
		-6.60695000E-04	-4.34237000E-02	 2.24281000E-02
		 2.84152000E-03	-6.70372000E-02	-3.00482000E-02
		 1.60785000E-03	-6.90433000E-02	-3.01807000E-02
		 2.62030000E-03	-4.06856000E-02	-2.44263000E-02
		 1.54080000E-03	-6.70265000E-02	-1.57872000E-02
		 2.22800000E-03	-6.81679000E-02	-3.00697000E-02
		 9.56179000E-04	-4.23033000E-02	-2.45593000E-02
		 9.12771000E-04	-6.90409000E-02	-1.58236000E-02
		 2.02902000E-04	-7.00212000E-02	-1.77840000E-03
		 8.23524000E-05	-7.13957000E-02	 2.64337000E-02
		 2.12327000E-04	-6.97607000E-02	-1.79971000E-03
		-5.39357000E-04	-7.11929000E-02	 2.65932000E-02
		 1.18525000E-04	-4.19496000E-02	-9.38892000E-04
		 1.37848000E-04	-7.05663000E-02	 1.20468000E-02
		 1.01475000E-03	-4.33713000E-02	 2.23848000E-02
		 3.58150000E-04	-6.98119000E-02	-3.00788000E-02
		 9.81097000E-04	-6.95471000E-02	-3.02851000E-02
		-7.33674000E-04	-4.22831000E-02	-2.43786000E-02
		 2.78260000E-04	-6.98091000E-02	-1.56199000E-02
		 3.65535000E-04	-1.30935000E-01	-3.82538000E-03
		-3.29292000E-03	-1.32472000E-01	 3.07140000E-02
		 3.72069000E-04	-1.34187000E-01	-3.96156000E-03
		-2.51689000E-03	-1.35828000E-01	 3.06154000E-02
		 2.91874000E-04	-9.76924000E-02	-2.69752000E-03
		-1.45977000E-03	-1.31606000E-01	 1.34669000E-02
		-2.76815000E-03	-9.92082000E-02	 2.90646000E-02
		 3.70318000E-04	-1.32662000E-01	-3.89678000E-03
		-2.90679000E-03	-1.34257000E-01	 3.05565000E-02
		 2.89968000E-04	-1.00284000E-01	-2.79504000E-03
		-1.09727000E-03	-1.34906000E-01	 1.32379000E-02
		-1.82043000E-03	-1.01792000E-01	 2.90247000E-02
		 3.98942000E-03	-1.30100000E-01	-3.84035000E-02
		 3.26643000E-03	-1.33369000E-01	-3.86142000E-02
		 3.34532000E-03	-9.71742000E-02	-3.45307000E-02
		 2.17829000E-03	-1.30418000E-01	-2.11224000E-02
		 3.62763000E-03	-1.31835000E-01	-3.84170000E-02
		 2.40814000E-03	-9.97479000E-02	-3.46850000E-02
		 1.82022000E-03	-1.33690000E-01	-2.11954000E-02
		 3.67957000E-04	-1.36705000E-01	-4.04755000E-03
		-1.84882000E-03	-1.38455000E-01	 3.04837000E-02
		 3.71304000E-04	-1.35557000E-01	-4.01301000E-03
		-2.18533000E-03	-1.37131000E-01	 3.06873000E-02
		 2.88801000E-04	-1.01916000E-01	-2.82708000E-03
		-7.09336000E-04	-1.37475000E-01	 1.29841000E-02
		-9.02845000E-04	-1.03452000E-01	 2.89381000E-02
		 2.54983000E-03	-1.35923000E-01	-3.86841000E-02
		 2.90884000E-03	-1.34727000E-01	-3.87945000E-02
		 1.45220000E-03	-1.01396000E-01	-3.46677000E-02
		 1.44815000E-03	-1.36244000E-01	-2.11364000E-02
		 6.15753000E-04	-2.04216000E-01	-6.57404000E-03
		-3.95674000E-03	-2.05725000E-01	 3.14817000E-02
		 6.23780000E-04	-2.08688000E-01	-6.75475000E-03
		-3.76241000E-03	-2.10652000E-01	 3.13413000E-02
		 4.41049000E-04	-1.66611000E-01	-5.12318000E-03
		-1.66992000E-03	-2.04931000E-01	 1.24341000E-02
		-3.73602000E-03	-1.68243000E-01	 3.14945000E-02
		 6.21482000E-04	-2.06453000E-01	-6.66487000E-03
		-3.84972000E-03	-2.08134000E-01	 3.13659000E-02
		 4.44916000E-04	-1.70554000E-01	-5.33145000E-03
		-1.44707000E-03	-2.09613000E-01	 1.22165000E-02
		-3.25040000E-03	-1.72138000E-01	 3.14159000E-02
		 5.02977000E-03	-2.02917000E-01	-4.46560000E-02
		 4.71925000E-03	-2.07241000E-01	-4.48686000E-02
		 4.59952000E-03	-1.65515000E-01	-4.17828000E-02
		 2.82040000E-03	-2.03540000E-01	-2.55819000E-02
		 4.87865000E-03	-2.05114000E-01	-4.47244000E-02
		 4.07540000E-03	-1.69429000E-01	-4.20174000E-02
		 2.65870000E-03	-2.07914000E-01	-2.57341000E-02
		 4.89256000E-04	-2.12880000E-01	-6.91732000E-03
		-3.44175000E-03	-2.15202000E-01	 3.11518000E-02
		 5.58694000E-04	-2.10783000E-01	-6.84281000E-03
		-3.60001000E-03	-2.13454000E-01	 3.13278000E-02
		 4.19189000E-04	-1.73973000E-01	-5.53005000E-03
		-1.59300000E-03	-2.13962000E-01	 1.19498000E-02
		-2.60701000E-03	-1.75439000E-01	 3.12389000E-02
		 4.42412000E-03	-2.11285000E-01	-4.49892000E-02