<?xml version="1.0"?>
<VTKFile type="UnstructuredGrid" version="0.1" byte_order="LittleEndian">
	<UnstructuredGrid>
		<Piece NumberOfPoints="522" NumberOfCells="64">
			<Points>
				<DataArray type="Float64" NumberOfComponents="3" format="ascii">
					 1.00000000E+00	 1.00000000E+00	-5.96046000E-08
					 1.00000000E+00	 5.00000000E-01	-5.96046000E-08
					 1.00000000E+00	 5.00000000E-01	 1.00000000E+00
					 1.00000000E+00	 1.00000000E+00	 1.00000000E+00
					 5.00000000E-01	 1.00000000E+00	-5.96046000E-08
					 5.00000000E-01	 5.00000000E-01	-5.96046000E-08
					 5.00000000E-01	 5.00000000E-01	 1.00000000E+00
					 5.00000000E-01	 1.00000000E+00	 1.00000000E+00
					 1.00000000E+00	 7.50000000E-01	-5.96046000E-08
					 1.00000000E+00	 5.00000000E-01	 5.00000000E-01
					 1.00000000E+00	 7.50000000E-01	 1.00000000E+00
					 1.00000000E+00	 1.00000000E+00	 5.00000000E-01
					 7.50000000E-01	 1.00000000E+00	-5.96046000E-08
					 7.50000000E-01	 5.00000000E-01	-5.96046000E-08
					 7.50000000E-01	 5.00000000E-01	 1.00000000E+00
					 7.50000000E-01	 1.00000000E+00	 1.00000000E+00
					 5.00000000E-01	 7.50000000E-01	-5.96046000E-08
					 5.00000000E-01	 5.00000000E-01	 5.00000000E-01
					 5.00000000E-01	 7.50000000E-01	 1.00000000E+00
					 5.00000000E-01	 1.00000000E+00	 5.00000000E-01
					 1.00000000E+00	-1.49012000E-08	-5.96046000E-08
					 1.00000000E+00	-1.49012000E-08	 1.00000000E+00
					 5.00000000E-01	-1.49012000E-08	-5.96046000E-08
					 5.00000000E-01	-1.49012000E-08	 1.00000000E+00
					 1.00000000E+00	 2.50000000E-01	-5.96046000E-08
					 1.00000000E+00	-1.49012000E-08	 5.00000000E-01
					 1.00000000E+00	 2.50000000E-01	 1.00000000E+00
					 7.50000000E-01	-1.49012000E-08	-5.96046000E-08
					 7.50000000E-01	-1.49012000E-08	 1.00000000E+00
					 5.00000000E-01	 2.50000000E-01	-5.96046000E-08
					 5.00000000E-01	-1.49012000E-08	 5.00000000E-01
					 5.00000000E-01	 2.50000000E-01	 1.00000000E+00
					-7.45058000E-09	 1.00000000E+00	-5.96046000E-08
					-7.45058000E-09	 5.00000000E-01	-5.96046000E-08
					-7.45058000E-09	 5.00000000E-01	 1.00000000E+00
					-7.45058000E-09	 1.00000000E+00	 1.00000000E+00
					 2.50000000E-01	 1.00000000E+00	-5.96046000E-08
					 2.50000000E-01	 5.00000000E-01	-5.96046000E-08
					 2.50000000E-01	 5.00000000E-01	 1.00000000E+00
					 2.50000000E-01	 1.00000000E+00	 1.00000000E+00
					-7.45058000E-09	 7.50000000E-01	-5.96046000E-08
					-7.45058000E-09	 5.00000000E-01	 5.00000000E-01
					-7.45058000E-09	 7.50000000E-01	 1.00000000E+00
					-7.45058000E-09	 1.00000000E+00	 5.00000000E-01
					-7.45058000E-09	-1.49012000E-08	-5.96046000E-08
					-7.45058000E-09	-1.49012000E-08	 1.00000000E+00
					 2.50000000E-01	-1.49012000E-08	-5.96046000E-08
					 2.50000000E-01	-1.49012000E-08	 1.00000000E+00
					-7.45058000E-09	 2.50000000E-01	-5.96046000E-08
					-7.45058000E-09	-1.49012000E-08	 5.00000000E-01
					-7.45058000E-09	 2.50000000E-01	 1.00000000E+00
					 1.00000000E+00	 5.00000000E-01	 2.00000000E+00
					 1.00000000E+00	 1.00000000E+00	 2.00000000E+00
					 5.00000000E-01	 5.00000000E-01	 2.00000000E+00
					 5.00000000E-01	 1.00000000E+00	 2.00000000E+00
					 1.00000000E+00	 5.00000000E-01	 1.50000000E+00
					 1.00000000E+00	 7.50000000E-01	 2.00000000E+00
					 1.00000000E+00	 1.00000000E+00	 1.50000000E+00
					 7.50000000E-01	 5.00000000E-01	 2.00000000E+00
					 7.50000000E-01	 1.00000000E+00	 2.00000000E+00
					 5.00000000E-01	 5.00000000E-01	 1.50000000E+00
					 5.00000000E-01	 7.50000000E-01	 2.00000000E+00
					 5.00000000E-01	 1.00000000E+00	 1.50000000E+00
					 1.00000000E+00	-1.49012000E-08	 2.00000000E+00
					 5.00000000E-01	-1.49012000E-08	 2.00000000E+00
					 1.00000000E+00	-1.49012000E-08	 1.50000000E+00
					 1.00000000E+00	 2.50000000E-01	 2.00000000E+00
					 7.50000000E-01	-1.49012000E-08	 2.00000000E+00
					 5.00000000E-01	-1.49012000E-08	 1.50000000E+00
					 5.00000000E-01	 2.50000000E-01	 2.00000000E+00
					-7.45058000E-09	 5.00000000E-01	 2.00000000E+00
					-7.45058000E-09	 1.00000000E+00	 2.00000000E+00
					 2.50000000E-01	 5.00000000E-01	 2.00000000E+00
					 2.50000000E-01	 1.00000000E+00	 2.00000000E+00
					-7.45058000E-09	 5.00000000E-01	 1.50000000E+00
					-7.45058000E-09	 7.50000000E-01	 2.00000000E+00
					-7.45058000E-09	 1.00000000E+00	 1.50000000E+00
					-7.45058000E-09	-1.49012000E-08	 2.00000000E+00
					 2.50000000E-01	-1.49012000E-08	 2.00000000E+00
					-7.45058000E-09	-1.49012000E-08	 1.50000000E+00
					-7.45058000E-09	 2.50000000E-01	 2.00000000E+00
					 1.00000000E+00	 5.00000000E-01	 3.00000000E+00
					 1.00000000E+00	 1.00000000E+00	 3.00000000E+00
					 5.00000000E-01	 5.00000000E-01	 3.00000000E+00
					 5.00000000E-01	 1.00000000E+00	 3.00000000E+00
					 1.00000000E+00	 5.00000000E-01	 2.50000000E+00
					 1.00000000E+00	 7.50000000E-01	 3.00000000E+00
					 1.00000000E+00	 1.00000000E+00	 2.50000000E+00
					 7.50000000E-01	 5.00000000E-01	 3.00000000E+00
					 7.50000000E-01	 1.00000000E+00	 3.00000000E+00
					 5.00000000E-01	 5.00000000E-01	 2.50000000E+00
					 5.00000000E-01	 7.50000000E-01	 3.00000000E+00
					 5.00000000E-01	 1.00000000E+00	 2.50000000E+00
					 1.00000000E+00	-1.49012000E-08	 3.00000000E+00
					 5.00000000E-01	-1.49012000E-08	 3.00000000E+00
					 1.00000000E+00	-1.49012000E-08	 2.50000000E+00
					 1.00000000E+00	 2.50000000E-01	 3.00000000E+00
					 7.50000000E-01	-1.49012000E-08	 3.00000000E+00
					 5.00000000E-01	-1.49012000E-08	 2.50000000E+00
					 5.00000000E-01	 2.50000000E-01	 3.00000000E+00
					-7.45058000E-09	 5.00000000E-01	 3.00000000E+00
					-7.45058000E-09	 1.00000000E+00	 3.00000000E+00
					 2.50000000E-01	 5.00000000E-01	 3.00000000E+00
					 2.50000000E-01	 1.00000000E+00	 3.00000000E+00
					-7.45058000E-09	 5.00000000E-01	 2.50000000E+00
					-7.45058000E-09	 7.50000000E-01	 3.00000000E+00
					-7.45058000E-09	 1.00000000E+00	 2.50000000E+00
					-7.45058000E-09	-1.49012000E-08	 3.00000000E+00
					 2.50000000E-01	-1.49012000E-08	 3.00000000E+00
					-7.45058000E-09	-1.49012000E-08	 2.50000000E+00
					-7.45058000E-09	 2.50000000E-01	 3.00000000E+00
					 1.00000000E+00	 5.00000000E-01	 4.00000000E+00
					 1.00000000E+00	 1.00000000E+00	 4.00000000E+00
					 5.00000000E-01	 5.00000000E-01	 4.00000000E+00
					 5.00000000E-01	 1.00000000E+00	 4.00000000E+00
					 1.00000000E+00	 5.00000000E-01	 3.50000000E+00
					 1.00000000E+00	 7.50000000E-01	 4.00000000E+00
					 1.00000000E+00	 1.00000000E+00	 3.50000000E+00
					 7.50000000E-01	 5.00000000E-01	 4.00000000E+00
					 7.50000000E-01	 1.00000000E+00	 4.00000000E+00
					 5.00000000E-01	 5.00000000E-01	 3.50000000E+00
					 5.00000000E-01	 7.50000000E-01	 4.00000000E+00
					 5.00000000E-01	 1.00000000E+00	 3.50000000E+00
					 1.00000000E+00	-1.49012000E-08	 4.00000000E+00
					 5.00000000E-01	-1.49012000E-08	 4.00000000E+00
					 1.00000000E+00	-1.49012000E-08	 3.50000000E+00
					 1.00000000E+00	 2.50000000E-01	 4.00000000E+00
					 7.50000000E-01	-1.49012000E-08	 4.00000000E+00
					 5.00000000E-01	-1.49012000E-08	 3.50000000E+00
					 5.00000000E-01	 2.50000000E-01	 4.00000000E+00
					-7.45058000E-09	 5.00000000E-01	 4.00000000E+00
					-7.45058000E-09	 1.00000000E+00	 4.00000000E+00
					 2.50000000E-01	 5.00000000E-01	 4.00000000E+00
					 2.50000000E-01	 1.00000000E+00	 4.00000000E+00
					-7.45058000E-09	 5.00000000E-01	 3.50000000E+00
					-7.45058000E-09	 7.50000000E-01	 4.00000000E+00
					-7.45058000E-09	 1.00000000E+00	 3.50000000E+00
					-7.45058000E-09	-1.49012000E-08	 4.00000000E+00
					 2.50000000E-01	-1.49012000E-08	 4.00000000E+00
					-7.45058000E-09	-1.49012000E-08	 3.50000000E+00
					-7.45058000E-09	 2.50000000E-01	 4.00000000E+00
					 1.00000000E+00	 5.00000000E-01	 5.00000000E+00
					 1.00000000E+00	 1.00000000E+00	 5.00000000E+00
					 5.00000000E-01	 5.00000000E-01	 5.00000000E+00
					 5.00000000E-01	 1.00000000E+00	 5.00000000E+00
					 1.00000000E+00	 5.00000000E-01	 4.50000000E+00
					 1.00000000E+00	 7.50000000E-01	 5.00000000E+00
					 1.00000000E+00	 1.00000000E+00	 4.50000000E+00
					 7.50000000E-01	 5.00000000E-01	 5.00000000E+00
					 7.50000000E-01	 1.00000000E+00	 5.00000000E+00
					 5.00000000E-01	 5.00000000E-01	 4.50000000E+00
					 5.00000000E-01	 7.50000000E-01	 5.00000000E+00
					 5.00000000E-01	 1.00000000E+00	 4.50000000E+00
					 1.00000000E+00	-1.49012000E-08	 5.00000000E+00
					 5.00000000E-01	-1.49012000E-08	 5.00000000E+00
					 1.00000000E+00	-1.49012000E-08	 4.50000000E+00
					 1.00000000E+00	 2.50000000E-01	 5.00000000E+00
					 7.50000000E-01	-1.49012000E-08	 5.00000000E+00
					 5.00000000E-01	-1.49012000E-08	 4.50000000E+00
					 5.00000000E-01	 2.50000000E-01	 5.00000000E+00
					-7.45058000E-09	 5.00000000E-01	 5.00000000E+00
					-7.45058000E-09	 1.00000000E+00	 5.00000000E+00
					 2.50000000E-01	 5.00000000E-01	 5.00000000E+00
					 2.50000000E-01	 1.00000000E+00	 5.00000000E+00
					-7.45058000E-09	 5.00000000E-01	 4.50000000E+00
					-7.45058000E-09	 7.50000000E-01	 5.00000000E+00
					-7.45058000E-09	 1.00000000E+00	 4.50000000E+00
					-7.45058000E-09	-1.49012000E-08	 5.00000000E+00
					 2.50000000E-01	-1.49012000E-08	 5.00000000E+00
					-7.45058000E-09	-1.49012000E-08	 4.50000000E+00
					-7.45058000E-09	 2.50000000E-01	 5.00000000E+00
					 1.00000000E+00	 5.00000000E-01	 6.00000000E+00
					 1.00000000E+00	 1.00000000E+00	 6.00000000E+00
					 5.00000000E-01	 5.00000000E-01	 6.00000000E+00
					 5.00000000E-01	 1.00000000E+00	 6.00000000E+00
					 1.00000000E+00	 5.00000000E-01	 5.50000000E+00
					 1.00000000E+00	 7.50000000E-01	 6.00000000E+00
					 1.00000000E+00	 1.00000000E+00	 5.50000000E+00
					 7.50000000E-01	 5.00000000E-01	 6.00000000E+00
					 7.50000000E-01	 1.00000000E+00	 6.00000000E+00
					 5.00000000E-01	 5.00000000E-01	 5.50000000E+00
					 5.00000000E-01	 7.50000000E-01	 6.00000000E+00
					 5.00000000E-01	 1.00000000E+00	 5.50000000E+00
					 1.00000000E+00	-1.49012000E-08	 6.00000000E+00
[...]
			<PointData>
				<DataArray type="Float32" Name="U" NumberOfComponents="3" ComponentName0="D1" ComponentName1="D2" ComponentName2="D3" format="ascii">
					 0.00000000E+00	 0.00000000E+00	 0.00000000E+00
					 0.00000000E+00	 0.00000000E+00	 0.00000000E+00
					 0.00000000E+00	 0.00000000E+00	 0.00000000E+00
					 0.00000000E+00	 0.00000000E+00	 0.00000000E+00
					 0.00000000E+00	 0.00000000E+00	 0.00000000E+00
					 0.00000000E+00	 0.00000000E+00	 0.00000000E+00
					 0.00000000E+00	 0.00000000E+00	 0.00000000E+00
					 0.00000000E+00	 0.00000000E+00	 0.00000000E+00
					 0.00000000E+00	 0.00000000E+00	 0.00000000E+00
					 0.00000000E+00	 0.00000000E+00	 0.00000000E+00
					 0.00000000E+00	 0.00000000E+00	 0.00000000E+00
					 0.00000000E+00	 0.00000000E+00	 0.00000000E+00
					 0.00000000E+00	 0.00000000E+00	 0.00000000E+00
					 0.00000000E+00	 0.00000000E+00	 0.00000000E+00
					 0.00000000E+00	 0.00000000E+00	 0.00000000E+00
					 0.00000000E+00	 0.00000000E+00	 0.00000000E+00
					 0.00000000E+00	 0.00000000E+00	 0.00000000E+00
					 0.00000000E+00	 0.00000000E+00	 0.00000000E+00
					 0.00000000E+00	 0.00000000E+00	 0.00000000E+00
					 0.00000000E+00	 0.00000000E+00	 0.00000000E+00
					 0.00000000E+00	 0.00000000E+00	 0.00000000E+00
					 0.00000000E+00	 0.00000000E+00	 0.00000000E+00
					 0.00000000E+00	 0.00000000E+00	 0.00000000E+00
					 0.00000000E+00	 0.00000000E+00	 0.00000000E+00
					 0.00000000E+00	 0.00000000E+00	 0.00000000E+00
					 0.00000000E+00	 0.00000000E+00	 0.00000000E+00
					 0.00000000E+00	 0.00000000E+00	 0.00000000E+00
					 0.00000000E+00	 0.00000000E+00	 0.00000000E+00
					 0.00000000E+00	 0.00000000E+00	 0.00000000E+00
					 0.00000000E+00	 0.00000000E+00	 0.00000000E+00
					 0.00000000E+00	 0.00000000E+00	 0.00000000E+00
					 0.00000000E+00	 0.00000000E+00	 0.00000000E+00
					 0.00000000E+00	 0.00000000E+00	 0.00000000E+00
					 0.00000000E+00	 0.00000000E+00	 0.00000000E+00
					 0.00000000E+00	 0.00000000E+00	 0.00000000E+00
					 0.00000000E+00	 0.00000000E+00	 0.00000000E+00
					 0.00000000E+00	 0.00000000E+00	 0.00000000E+00
					 0.00000000E+00	 0.00000000E+00	 0.00000000E+00
					 0.00000000E+00	 0.00000000E+00	 0.00000000E+00
					 0.00000000E+00	 0.00000000E+00	 0.00000000E+00
					 0.00000000E+00	 0.00000000E+00	 0.00000000E+00
					 0.00000000E+00	 0.00000000E+00	 0.00000000E+00
					 0.00000000E+00	 0.00000000E+00	 0.00000000E+00
					 0.00000000E+00	 0.00000000E+00	 0.00000000E+00
					 0.00000000E+00	 0.00000000E+00	 0.00000000E+00
					 0.00000000E+00	 0.00000000E+00	 0.00000000E+00
					 0.00000000E+00	 0.00000000E+00	 0.00000000E+00
					 0.00000000E+00	 0.00000000E+00	 0.00000000E+00
					 0.00000000E+00	 0.00000000E+00	 0.00000000E+00
					 0.00000000E+00	 0.00000000E+00	 0.00000000E+00
					 0.00000000E+00	 0.00000000E+00	 0.00000000E+00
					 0.00000000E+00	 0.00000000E+00	 0.00000000E+00
					 0.00000000E+00	 0.00000000E+00	 0.00000000E+00
					 0.00000000E+00	 0.00000000E+00	 0.00000000E+00
					 0.00000000E+00	 0.00000000E+00	 0.00000000E+00
					 0.00000000E+00	 0.00000000E+00	 0.00000000E+00
					 0.00000000E+00	 0.00000000E+00	 0.00000000E+00
					 0.00000000E+00	 0.00000000E+00	 0.00000000E+00
					 0.00000000E+00	 0.00000000E+00	 0.00000000E+00
					 0.00000000E+00	 0.00000000E+00	 0.00000000E+00
					 0.00000000E+00	 0.00000000E+00	 0.00000000E+00
					 0.00000000E+00	 0.00000000E+00	 0.00000000E+00
					 0.00000000E+00	 0.00000000E+00	 0.00000000E+00
					 0.00000000E+00	 0.00000000E+00	 0.00000000E+00
					 0.00000000E+00	 0.00000000E+00	 0.00000000E+00
					 0.00000000E+00	 0.00000000E+00	 0.00000000E+00
					 0.00000000E+00	 0.00000000E+00	 0.00000000E+00
					 0.00000000E+00	 0.00000000E+00	 0.00000000E+00
					 0.00000000E+00	 0.00000000E+00	 0.00000000E+00
					 0.00000000E+00	 0.00000000E+00	 0.00000000E+00
					 0.00000000E+00	 0.00000000E+00	 0.00000000E+00
					 0.00000000E+00	 0.00000000E+00	 0.00000000E+00
					 0.00000000E+00	 0.00000000E+00	 0.00000000E+00
					 0.00000000E+00	 0.00000000E+00	 0.00000000E+00
					 0.00000000E+00	 0.00000000E+00	 0.00000000E+00
					 0.00000000E+00	 0.00000000E+00	 0.00000000E+00
					 0.00000000E+00	 0.00000000E+00	 0.00000000E+00
					 0.00000000E+00	 0.00000000E+00	 0.00000000E+00
					 0.00000000E+00	 0.00000000E+00	 0.00000000E+00
					 0.00000000E+00	 0.00000000E+00	 0.00000000E+00
					 0.00000000E+00	 0.00000000E+00	 0.00000000E+00
					 0.00000000E+00	 0.00000000E+00	 0.00000000E+00
					 0.00000000E+00	 0.00000000E+00	 0.00000000E+00
					 0.00000000E+00	 0.00000000E+00	 0.00000000E+00
					 0.00000000E+00	 0.00000000E+00	 0.00000000E+00
					 0.00000000E+00	 0.00000000E+00	 0.00000000E+00
					 0.00000000E+00	 0.00000000E+00	 0.00000000E+00
					 0.00000000E+00	 0.00000000E+00	 0.00000000E+00
					 0.00000000E+00	 0.00000000E+00	 0.00000000E+00
					 0.00000000E+00	 0.00000000E+00	 0.00000000E+00
					 0.00000000E+00	 0.00000000E+00	 0.00000000E+00
					 0.00000000E+00	 0.00000000E+00	 0.00000000E+00
					 0.00000000E+00	 0.00000000E+00	 0.00000000E+00
					 0.00000000E+00	 0.00000000E+00	 0.00000000E+00
					 0.00000000E+00	 0.00000000E+00	 0.00000000E+00
					 0.00000000E+00	 0.00000000E+00	 0.00000000E+00
					 0.00000000E+00	 0.00000000E+00	 0.00000000E+00
					 0.00000000E+00	 0.00000000E+00	 0.00000000E+00
					 0.00000000E+00	 0.00000000E+00	 0.00000000E+00
					 0.00000000E+00	 0.00000000E+00	 0.00000000E+00
					 0.00000000E+00	 0.00000000E+00	 0.00000000E+00
					 0.00000000E+00	 0.00000000E+00	 0.00000000E+00
					 0.00000000E+00	 0.00000000E+00	 0.00000000E+00
					 0.00000000E+00	 0.00000000E+00	 0.00000000E+00
					 0.00000000E+00	 0.00000000E+00	 0.00000000E+00
					 0.00000000E+00	 0.00000000E+00	 0.00000000E+00
					 0.00000000E+00	 0.00000000E+00	 0.00000000E+00
					 0.00000000E+00	 0.00000000E+00	 0.00000000E+00
					 0.00000000E+00	 0.00000000E+00	 0.00000000E+00
					 0.00000000E+00	 0.00000000E+00	 0.00000000E+00
					 0.00000000E+00	 0.00000000E+00	 0.00000000E+00
					 0.00000000E+00	 0.00000000E+00	 0.00000000E+00
					 0.00000000E+00	 0.00000000E+00	 0.00000000E+00
					 0.00000000E+00	 0.00000000E+00	 0.00000000E+00
					 0.00000000E+00	 0.00000000E+00	 0.00000000E+00
					 0.00000000E+00	 0.00000000E+00	 0.00000000E+00
					 0.00000000E+00	 0.00000000E+00	 0.00000000E+00
					 0.00000000E+00	 0.00000000E+00	 0.00000000E+00
					 0.00000000E+00	 0.00000000E+00	 0.00000000E+00
					 0.00000000E+00	 0.00000000E+00	 0.00000000E+00
					 0.00000000E+00	 0.00000000E+00	 0.00000000E+00
					 0.00000000E+00	 0.00000000E+00	 0.00000000E+00
					 0.00000000E+00	 0.00000000E+00	 0.00000000E+00
					 0.00000000E+00	 0.00000000E+00	 0.00000000E+00
					 0.00000000E+00	 0.00000000E+00	 0.00000000E+00
					 0.00000000E+00	 0.00000000E+00	 0.00000000E+00
					 0.00000000E+00	 0.00000000E+00	 0.00000000E+00
					 0.00000000E+00	 0.00000000E+00	 0.00000000E+00
					 0.00000000E+00	 0.00000000E+00	 0.00000000E+00
					 0.00000000E+00	 0.00000000E+00	 0.00000000E+00
					 0.00000000E+00	 0.00000000E+00	 0.00000000E+00
					 0.00000000E+00	 0.00000000E+00	 0.00000000E+00
					 0.00000000E+00	 0.00000000E+00	 0.00000000E+00
					 0.00000000E+00	 0.00000000E+00	 0.00000000E+00
					 0.00000000E+00	 0.00000000E+00	 0.00000000E+00
					 0.00000000E+00	 0.00000000E+00	 0.00000000E+00
					 0.00000000E+00	 0.00000000E+00	 0.00000000E+00
					 0.00000000E+00	 0.00000000E+00	 0.00000000E+00
					 0.00000000E+00	 0.00000000E+00	 0.00000000E+00
					 0.00000000E+00	 0.00000000E+00	 0.00000000E+00
					 0.00000000E+00	 0.00000000E+00	 0.00000000E+00
					 1.27980000E-09	 2.43375000E-09	 0.00000000E+00
					 0.00000000E+00	 6.99987000E-09	 0.00000000E+00
					 1.78774000E-09	 6.02662000E-09	-1.69401000E-09
					 0.00000000E+00	 1.77022000E-08	 0.00000000E+00
					 0.00000000E+00	 0.00000000E+00	 0.00000000E+00
					 0.00000000E+00	-3.34208000E-09	 0.00000000E+00
					 0.00000000E+00	 0.00000000E+00	 0.00000000E+00
					 0.00000000E+00	 0.00000000E+00	 0.00000000E+00
					 1.08995000E-09	-2.22537000E-09	-1.18376000E-09
					 0.00000000E+00	 0.00000000E+00	 0.00000000E+00
					-1.63665000E-09	-9.12363000E-09	 1.36234000E-09
					 0.00000000E+00	 0.00000000E+00	 0.00000000E+00
					 0.00000000E+00	 0.00000000E+00	 0.00000000E+00
					 0.00000000E+00	 1.12562000E-09	 0.00000000E+00
					 0.00000000E+00	 0.00000000E+00	 0.00000000E+00
					 0.00000000E+00	 0.00000000E+00	 0.00000000E+00
					 0.00000000E+00	 0.00000000E+00	 0.00000000E+00
					 0.00000000E+00	 0.00000000E+00	 0.00000000E+00
					 0.00000000E+00	 0.00000000E+00	 0.00000000E+00
					-1.65559000E-09	 1.12032000E-08	-2.33284000E-09
					-7.34408000E-09	 3.10500000E-08	-1.22132000E-09
					 0.00000000E+00	 1.02916000E-09	 2.75868000E-09
					 2.89126000E-09	-8.57801000E-09	-2.45831000E-09
					 0.00000000E+00	 0.00000000E+00	 0.00000000E+00
					 4.11521000E-09	-1.73515000E-08	 1.65556000E-09
					 0.00000000E+00	 0.00000000E+00	 0.00000000E+00
					 0.00000000E+00	 2.39495000E-09	 0.00000000E+00
					 0.00000000E+00	 0.00000000E+00	 0.00000000E+00
					 0.00000000E+00	 0.00000000E+00	 0.00000000E+00
					 0.00000000E+00	-1.90334000E-09	 0.00000000E+00
					-5.95761000E-09	 1.32610000E-09	 3.36192000E-09
					 1.61854000E-08	-7.33276000E-08	-4.46416000E-09
					-3.47492000E-08	-7.64686000E-08	 1.55942000E-08
					-2.96990000E-09	-4.42663000E-07	-5.52560000E-09
					-2.45010000E-09	 1.19735000E-09	 0.00000000E+00
					 1.77970000E-08	 8.48726000E-09	-1.06798000E-08
					 4.30967000E-09	-1.65900000E-09	-1.87971000E-09
					 1.48932000E-09	-1.05671000E-08	-9.30618000E-09
					-2.22070000E-08	 5.08885000E-08	 9.44359000E-09
					-3.74956000E-09	 2.63881000E-09	 2.37361000E-09
					 4.45371000E-08	 1.46503000E-07	-2.98672000E-08
					 2.02094000E-09	-7.71963000E-09	-3.24135000E-09
					 2.60465000E-09	 6.88626000E-09	 0.00000000E+00
					 1.84249000E-09	 6.99340000E-09	-2.03093000E-09
					 0.00000000E+00	 0.00000000E+00	 0.00000000E+00
					 1.02587000E-09	-5.07679000E-09	-1.23647000E-09
					-2.08561000E-09	-2.12715000E-09	 0.00000000E+00
					 0.00000000E+00	 0.00000000E+00	 0.00000000E+00
					 0.00000000E+00	-4.82977000E-09	 0.00000000E+00
					 2.22816000E-08	-2.45572000E-07	 9.35230000E-09
					 1.23018000E-07	-9.49284000E-07	-6.92286000E-09
					 2.95626000E-08	-5.82062000E-08	-7.17597000E-08
					-4.75861000E-08	 4.03310000E-07	 6.57121000E-08
					 7.08830000E-09	 2.02819000E-09	 3.55872000E-09
					-1.06330000E-07	 4.28344000E-07	-4.63338000E-08
					-2.12661000E-09	-1.32356000E-08	-6.41103000E-09
					 0.00000000E+00	 4.71805000E-09	-4.72581000E-09
					 0.00000000E+00	-5.66687000E-09	-2.13125000E-09
					 1.22069000E-09	 0.00000000E+00	 0.00000000E+00
					 0.00000000E+00	-4.06519000E-09	 0.00000000E+00
					-1.44334000E-07	-1.27077000E-07	 5.70465000E-08
					-5.80143000E-09	-1.10608000E-06	 2.19544000E-08
					-3.49093000E-07	-1.59480000E-07	 3.34747000E-07
					-9.47561000E-07	 3.77007000E-06	 6.54387000E-07
					 4.52716000E-08	-3.72420000E-08	-8.01576000E-09
					 2.20175000E-07	 2.98381000E-07	-9.12980000E-08
					-3.15347000E-08	 6.85207000E-08	 1.24827000E-08
					 7.98269000E-08	-1.13069000E-07	-8.98002000E-08
					-2.41555000E-07	 6.44285000E-07	 6.16824000E-08
					 1.17109000E-07	-1.12140000E-07	-2.99958000E-08
					 6.79061000E-07	 8.70852000E-07	-4.79212000E-07
					-1.12522000E-07	 2.87039000E-07	 8.90845000E-08
					 6.82253000E-09	 2.87363000E-08	-1.72427000E-09
					 4.35729000E-09	 4.11600000E-09	-7.46286000E-09
					 2.61703000E-09	-6.80672000E-09	-1.31269000E-09
					 5.52099000E-09	-2.06545000E-08	-3.24916000E-09
					-6.01853000E-09	-1.30038000E-08	-1.45810000E-09
					 2.49906000E-09	-5.97466000E-09	-1.34529000E-09
					 0.00000000E+00	 4.61201000E-09	 0.00000000E+00
					 5.19734000E-07	 8.76580000E-07	 8.89509000E-07
					 1.60351000E-06	 1.97939000E-05	 1.43102000E-06
					-1.92576000E-09	-8.08223000E-07	-4.54015000E-07
					 2.90659000E-07	-3.67698000E-06	-3.90392000E-07
					-2.19003000E-07	-1.37053000E-07	-4.94544000E-08
					-1.34645000E-06	-1.82511000E-07	-1.14460000E-06
					 1.28241000E-07	 5.96672000E-07	 2.10920000E-07
					-1.37821000E-08	-4.54821000E-08	-1.93542000E-08
					 1.05034000E-08	-3.15289000E-08	-1.09127000E-08
					-4.06265000E-09	-1.13294000E-08	-1.69916000E-09
					-7.80593000E-09	 4.51627000E-08	 0.00000000E+00
					-1.20902000E-07	-6.02642000E-07	-5.09541000E-08
					 7.73119000E-09	-2.61301000E-06	-2.28302000E-07
					-8.66511000E-07	-2.31701000E-08	 2.22986000E-07
					-2.77292000E-06	 2.84648000E-05	-4.59525000E-07
					 4.65847000E-07	-3.94760000E-07	-4.52940000E-08
					 3.32169000E-07	 1.01605000E-06	 1.96485000E-07
					-2.46971000E-07	 5.93592000E-07	 7.77818000E-08
					 1.14668000E-07	-1.05914000E-07	 1.71537000E-07
					-6.43622000E-07	 1.34473000E-06	-5.07994000E-08
					 7.44903000E-07	-1.43088000E-06	-3.01163000E-07
					 2.58498000E-06	 7.50298000E-07	 5.21443000E-07
					 7.47060000E-07	-8.43830000E-06	-1.83362000E-07
					 1.21058000E-08	 4.51878000E-08	-6.73507000E-09
					 2.06621000E-08	-1.84031000E-08	-1.17371000E-08
					 1.89033000E-08	-3.35465000E-08	 0.00000000E+00
					 5.10511000E-09	-3.31478000E-08	 9.29950000E-09
					-1.09033000E-08	-1.93417000E-08	 4.98458000E-09
					 2.40174000E-08	-4.71887000E-08	-2.69107000E-09
					 0.00000000E+00	 2.61964000E-08	 1.27682000E-08
					 3.98794000E-07	 3.20314000E-06	 5.44747000E-07
					-8.94687000E-07	-1.31443000E-04	 2.24528000E-06
					 2.21098000E-07	-2.90121000E-06	 4.18776000E-07
					 2.24922000E-06	-1.66493000E-04	 2.15801000E-06
					-1.67336000E-06	-3.55434000E-06	-7.18051000E-07
					-3.69290000E-06	-6.67205000E-06	 6.43538000E-07
					-1.90775000E-06	-5.43006000E-05	-1.29120000E-06
					-1.37420000E-08	-1.21057000E-07	-1.72360000E-08
					 4.91604000E-09	-4.29713000E-08	 2.09152000E-08
					-3.03712000E-08	-7.69463000E-08	 0.00000000E+00
					-2.14652000E-08	 1.21792000E-07	 3.45095000E-08
					 0.00000000E+00	 0.00000000E+00	 0.00000000E+00
					 0.00000000E+00	 0.00000000E+00	 0.00000000E+00
					 1.45080000E-04	-1.13205000E-02	-1.84906000E-04
					-2.52850000E-03	-1.21540000E-02	 1.18592000E-02
					 0.00000000E+00	 0.00000000E+00	 0.00000000E+00
					 0.00000000E+00	 0.00000000E+00	 0.00000000E+00
					 9.88715000E-05	-1.29467000E-02	-2.01109000E-04
					-8.36404000E-04	-1.40115000E-02	 1.19522000E-02
					 0.00000000E+00	 0.00000000E+00	 0.00000000E+00
					 6.18480000E-05	-2.10888000E-03	-8.19096000E-05
					-1.11315000E-03	-1.14711000E-02	 5.79870000E-03
					-2.23548000E-03	-3.08633000E-03	 5.95844000E-03
					 0.00000000E+00	 0.00000000E+00	 0.00000000E+00
					 0.00000000E+00	 0.00000000E+00	 0.00000000E+00
					 1.36093000E-04	-1.23686000E-02	-2.06986000E-04
					-1.66204000E-03	-1.34068000E-02	 1.18165000E-02
					 0.00000000E+00	 0.00000000E+00	 0.00000000E+00
					 3.53363000E-05	-3.28919000E-03	-8.79611000E-05
					-4.12474000E-04	-1.31966000E-02	 5.77693000E-03
					-3.54389000E-04	-4.41956000E-03	 5.78604000E-03
					 0.00000000E+00	 0.00000000E+00	 0.00000000E+00
					 2.57325000E-03	-1.17914000E-02	-1.22795000E-02
					 0.00000000E+00	 0.00000000E+00	 0.00000000E+00
					 9.11632000E-04	-1.33983000E-02	-1.24271000E-02
					 0.00000000E+00	 0.00000000E+00	 0.00000000E+00
					 2.32161000E-03	-3.01022000E-03	-6.11521000E-03
					 1.32763000E-03	-1.12794000E-02	-6.19350000E-03
					 0.00000000E+00	 0.00000000E+00	 0.00000000E+00
					 1.72467000E-03	-1.29095000E-02	-1.22698000E-02
					 0.00000000E+00	 0.00000000E+00	 0.00000000E+00
					 4.32921000E-04	-4.28400000E-03	-5.89768000E-03
					 5.12210000E-04	-1.28734000E-02	-6.21395000E-03
					 0.00000000E+00	 0.00000000E+00	 0.00000000E+00
					 0.00000000E+00	 0.00000000E+00	 0.00000000E+00
					-2.66220000E-05	-1.29264000E-02	-1.91239000E-04
					 8.09834000E-04	-1.39010000E-02	 1.18959000E-02
					 0.00000000E+00	 0.00000000E+00	 0.00000000E+00
					 0.00000000E+00	 0.00000000E+00	 0.00000000E+00
					 3.31304000E-05	-1.32514000E-02	-2.08198000E-04
					-2.33047000E-05	-1.41149000E-02	 1.19772000E-02
					 0.00000000E+00	 0.00000000E+00	 0.00000000E+00
					 1.29343000E-05	-2.86003000E-03	-4.09429000E-05
					 4.42464000E-04	-1.31345000E-02	 5.68515000E-03
					 1.36883000E-03	-4.03629000E-03	 5.91426000E-03
					 0.00000000E+00	 0.00000000E+00	 0.00000000E+00
					-7.87425000E-04	-1.34551000E-02	-1.22370000E-02
					 0.00000000E+00	 0.00000000E+00	 0.00000000E+00
					 6.39008000E-05	-1.36703000E-02	-1.24098000E-02
					 0.00000000E+00	 0.00000000E+00	 0.00000000E+00
					-1.38823000E-03	-3.86054000E-03	-6.05007000E-03
					-4.58909000E-04	-1.29027000E-02	-6.02788000E-03
					 1.56330000E-04	-4.63694000E-02	-9.18857000E-04
					-2.86247000E-03	-4.76517000E-02	 2.13608000E-02
					 1.49611000E-04	-4.87827000E-02	-9.76992000E-04
					-1.53872000E-03	-5.00250000E-02	 2.14566000E-02
					 1.07779000E-04	-2.62066000E-02	-4.30452000E-04
					-1.37635000E-03	-4.68551000E-02	 1.01920000E-02
					-2.79418000E-03	-2.72785000E-02	 1.69698000E-02
					 1.54437000E-04	-4.77499000E-02	-9.73838000E-04
					-2.20404000E-03	-4.89539000E-02	 2.14141000E-02
					 6.81462000E-05	-2.82926000E-02	-4.77772000E-04
					-6.72614000E-04	-4.92481000E-02	 1.01710000E-02
					-1.17349000E-03	-2.94124000E-02	 1.70198000E-02
					 3.34125000E-03	-4.64495000E-02	-2.33870000E-02
					 1.81034000E-03	-4.89701000E-02	-2.34256000E-02
					 3.04248000E-03	-2.65909000E-02	-1.80211000E-02
					 1.70983000E-03	-4.62723000E-02	-1.20965000E-02
					 2.55774000E-03	-4.79165000E-02	-2.33838000E-02
					 1.38965000E-03	-2.87315000E-02	-1.80900000E-02
					 1.00095000E-03	-4.87154000E-02	-1.21086000E-02
					 1.08529000E-04	-4.99323000E-02	-9.47647000E-04
					-2.08099000E-04	-5.10193000E-02	 2.14241000E-02
					 1.20040000E-04	-4.94855000E-02	-9.62227000E-04
					-8.66299000E-04	-5.07811000E-02	 2.14767000E-02
					 4.49949000E-05	-2.87737000E-02	-4.70715000E-04
					-8.58132000E-05	-5.02999000E-02	 1.01351000E-02
					 3.24897000E-04	-2.99089000E-02	 1.71006000E-02
					 6.15838000E-04	-5.00972000E-02	-2.34102000E-02
					 1.20492000E-03	-4.96366000E-02	-2.34777000E-02
					-7.94530000E-05	-2.93777000E-02	-1.80733000E-02
					 3.40428000E-04	-4.98583000E-02	-1.20458000E-02
					 4.04738000E-04	-1.00149000E-01	-2.45594000E-03
					-2.96187000E-03	-1.01743000E-01	 2.80021000E-02
					 3.62364000E-04	-1.02940000E-01	-2.55220000E-03
					-1.80645000E-03	-1.04554000E-01	 2.79892000E-02
					 2.73327000E-04	-7.12208000E-02	-1.61536000E-03
					-1.27940000E-03	-1.00826000E-01	 1.27242000E-02
					-2.88726000E-03	-7.26021000E-02	 2.50519000E-02
					 3.76898000E-04	-1.01691000E-01	-2.50589000E-03
					-2.38626000E-03	-1.03297000E-01	 2.79527000E-02
					 2.24898000E-04	-7.38379000E-02	-1.65293000E-03
					-7.49111000E-04	-1.03601000E-01	 1.26580000E-02
					-1.70984000E-03	-7.51876000E-02	 2.50235000E-02
					 3.82800000E-03	-9.95904000E-02	-3.30042000E-02
					 2.63439000E-03	-1.02524000E-01	-3.31188000E-02
					 3.60534000E-03	-7.10027000E-02	-2.83458000E-02
					 2.06653000E-03	-9.97328000E-02	-1.76921000E-02
					 3.23183000E-03	-1.01226000E-01	-3.30392000E-02
					 2.28277000E-03	-7.37497000E-02	-2.84095000E-02
					 1.49763000E-03	-1.02619000E-01	-1.77642000E-02
					 3.43163000E-04	-1.04654000E-01	-2.49982000E-03
					-7.75355000E-04	-1.06319000E-01	 2.79362000E-02
					 3.66781000E-04	-1.03973000E-01	-2.54897000E-03
					-1.32177000E-03	-1.05474000E-01	 2.80541000E-02
					 2.18788000E-04	-7.52279000E-02	-1.63473000E-03
					-2.09120000E-04	-1.05375000E-01	 1.25568000E-02
					-4.67677000E-04	-7.64595000E-02	 2.50127000E-02
					 1.55687000E-03	-1.04236000E-01	-3.31582000E-02
					 2.09008000E-03	-1.03527000E-01	-3.32457000E-02
					 1.03258000E-03	-7.51712000E-02	-2.83666000E-02
					 9.44280000E-04	-1.04324000E-01	-1.76529000E-02
					 7.62718000E-04	-1.68316000E-01	-4.88194000E-03
					-2.85708000E-03	-1.69977000E-01	 3.14542000E-02