<?xml version="1.0"?>
<VTKFile type="UnstructuredGrid" version="0.1" byte_order="LittleEndian">
	<UnstructuredGrid>
		<Piece NumberOfPoints="522" NumberOfCells="64">
			<Points>
				<DataArray type="Float64" NumberOfComponents="3" format="ascii">
					 1.00000000E+00	 1.00000000E+00	-5.96046000E-08
					 1.00000000E+00	 5.00000000E-01	-5.96046000E-08
					 1.00000000E+00	 5.00000000E-01	 1.00000000E+00
					 1.00000000E+00	 1.00000000E+00	 1.00000000E+00
					 5.00000000E-01	 1.00000000E+00	-5.96046000E-08
					 5.00000000E-01	 5.00000000E-01	-5.96046000E-08
					 5.00000000E-01	 5.00000000E-01	 1.00000000E+00
					 5.00000000E-01	 1.00000000E+00	 1.00000000E+00
					 1.00000000E+00	 7.50000000E-01	-5.96046000E-08
					 1.00000000E+00	 5.00000000E-01	 5.00000000E-01
					 1.00000000E+00	 7.50000000E-01	 1.00000000E+00
					 1.00000000E+00	 1.00000000E+00	 5.00000000E-01
					 7.50000000E-01	 1.00000000E+00	-5.96046000E-08
					 7.50000000E-01	 5.00000000E-01	-5.96046000E-08
					 7.50000000E-01	 5.00000000E-01	 1.00000000E+00
					 7.50000000E-01	 1.00000000E+00	 1.00000000E+00
					 5.00000000E-01	 7.50000000E-01	-5.96046000E-08
					 5.00000000E-01	 5.00000000E-01	 5.00000000E-01
					 5.00000000E-01	 7.50000000E-01	 1.00000000E+00
					 5.00000000E-01	 1.00000000E+00	 5.00000000E-01
					 1.00000000E+00	-1.49012000E-08	-5.96046000E-08
					 1.00000000E+00	-1.49012000E-08	 1.00000000E+00
					 5.00000000E-01	-1.49012000E-08	-5.96046000E-08
					 5.00000000E-01	-1.49012000E-08	 1.00000000E+00
					 1.00000000E+00	 2.50000000E-01	-5.96046000E-08
					 1.00000000E+00	-1.49012000E-08	 5.00000000E-01
					 1.00000000E+00	 2.50000000E-01	 1.00000000E+00
					 7.50000000E-01	-1.49012000E-08	-5.96046000E-08
					 7.50000000E-01	-1.49012000E-08	 1.00000000E+00
					 5.00000000E-01	 2.50000000E-01	-5.96046000E-08
					 5.00000000E-01	-1.49012000E-08	 5.00000000E-01
					 5.00000000E-01	 2.50000000E-01	 1.00000000E+00
					-7.45058000E-09	 1.00000000E+00	-5.96046000E-08
					-7.45058000E-09	 5.00000000E-01	-5.96046000E-08
					-7.45058000E-09	 5.00000000E-01	 1.00000000E+00
					-7.45058000E-09	 1.00000000E+00	 1.00000000E+00
					 2.50000000E-01	 1.00000000E+00	-5.96046000E-08
					 2.50000000E-01	 5.00000000E-01	-5.96046000E-08
					 2.50000000E-01	 5.00000000E-01	 1.00000000E+00
					 2.50000000E-01	 1.00000000E+00	 1.00000000E+00
					-7.45058000E-09	 7.50000000E-01	-5.96046000E-08
					-7.45058000E-09	 5.00000000E-01	 5.00000000E-01
					-7.45058000E-09	 7.50000000E-01	 1.00000000E+00
					-7.45058000E-09	 1.00000000E+00	 5.00000000E-01
					-7.45058000E-09	-1.49012000E-08	-5.96046000E-08
					-7.45058000E-09	-1.49012000E-08	 1.00000000E+00
					 2.50000000E-01	-1.49012000E-08	-5.96046000E-08
					 2.50000000E-01	-1.49012000E-08	 1.00000000E+00
					-7.45058000E-09	 2.50000000E-01	-5.96046000E-08
					-7.45058000E-09	-1.49012000E-08	 5.00000000E-01
					-7.45058000E-09	 2.50000000E-01	 1.00000000E+00
					 1.00000000E+00	 5.00000000E-01	 2.00000000E+00
					 1.00000000E+00	 1.00000000E+00	 2.00000000E+00
					 5.00000000E-01	 5.00000000E-01	 2.00000000E+00
					 5.00000000E-01	 1.00000000E+00	 2.00000000E+00
					 1.00000000E+00	 5.00000000E-01	 1.50000000E+00
					 1.00000000E+00	 7.50000000E-01	 2.00000000E+00
					 1.00000000E+00	 1.00000000E+00	 1.50000000E+00
					 7.50000000E-01	 5.00000000E-01	 2.00000000E+00
					 7.50000000E-01	 1.00000000E+00	 2.00000000E+00
					 5.00000000E-01	 5.00000000E-01	 1.50000000E+00
					 5.00000000E-01	 7.50000000E-01	 2.00000000E+00
					 5.00000000E-01	 1.00000000E+00	 1.50000000E+00
					 1.00000000E+00	-1.49012000E-08	 2.00000000E+00
					 5.00000000E-01	-1.49012000E-08	 2.00000000E+00
					 1.00000000E+00	-1.49012000E-08	 1.50000000E+00
					 1.00000000E+00	 2.50000000E-01	 2.00000000E+00
					 7.50000000E-01	-1.49012000E-08	 2.00000000E+00
					 5.00000000E-01	-1.49012000E-08	 1.50000000E+00
					 5.00000000E-01	 2.50000000E-01	 2.00000000E+00
					-7.45058000E-09	 5.00000000E-01	 2.00000000E+00
					-7.45058000E-09	 1.00000000E+00	 2.00000000E+00
					 2.50000000E-01	 5.00000000E-01	 2.00000000E+00
					 2.50000000E-01	 1.00000000E+00	 2.00000000E+00
					-7.45058000E-09	 5.00000000E-01	 1.50000000E+00
					-7.45058000E-09	 7.50000000E-01	 2.00000000E+00
					-7.45058000E-09	 1.00000000E+00	 1.50000000E+00
					-7.45058000E-09	-1.49012000E-08	 2.00000000E+00
					 2.50000000E-01	-1.49012000E-08	 2.00000000E+00
					-7.45058000E-09	-1.49012000E-08	 1.50000000E+00
					-7.45058000E-09	 2.50000000E-01	 2.00000000E+00
					 1.00000000E+00	 5.00000000E-01	 3.00000000E+00
					 1.00000000E+00	 1.00000000E+00	 3.00000000E+00
					 5.00000000E-01	 5.00000000E-01	 3.00000000E+00
					 5.00000000E-01	 1.00000000E+00	 3.00000000E+00
					 1.00000000E+00	 5.00000000E-01	 2.50000000E+00
					 1.00000000E+00	 7.50000000E-01	 3.00000000E+00
					 1.00000000E+00	 1.00000000E+00	 2.50000000E+00
					 7.50000000E-01	 5.00000000E-01	 3.00000000E+00
					 7.50000000E-01	 1.00000000E+00	 3.00000000E+00
					 5.00000000E-01	 5.00000000E-01	 2.50000000E+00
					 5.00000000E-01	 7.50000000E-01	 3.00000000E+00
					 5.00000000E-01	 1.00000000E+00	 2.50000000E+00
					 1.00000000E+00	-1.49012000E-08	 3.00000000E+00
					 5.00000000E-01	-1.49012000E-08	 3.00000000E+00
					 1.00000000E+00	-1.49012000E-08	 2.50000000E+00
					 1.00000000E+00	 2.50000000E-01	 3.00000000E+00
					 7.50000000E-01	-1.49012000E-08	 3.00000000E+00
					 5.00000000E-01	-1.49012000E-08	 2.50000000E+00
					 5.00000000E-01	 2.50000000E-01	 3.00000000E+00
					-7.45058000E-09	 5.00000000E-01	 3.00000000E+00
					-7.45058000E-09	 1.00000000E+00	 3.00000000E+00
					 2.50000000E-01	 5.00000000E-01	 3.00000000E+00
					 2.50000000E-01	 1.00000000E+00	 3.00000000E+00
					-7.45058000E-09	 5.00000000E-01	 2.50000000E+00
					-7.45058000E-09	 7.50000000E-01	 3.00000000E+00
					-7.45058000E-09	 1.00000000E+00	 2.50000000E+00
					-7.45058000E-09	-1.49012000E-08	 3.00000000E+00
					 2.50000000E-01	-1.49012000E-08	 3.00000000E+00
					-7.45058000E-09	-1.49012000E-08	 2.50000000E+00
					-7.45058000E-09	 2.50000000E-01	 3.00000000E+00
					 1.00000000E+00	 5.00000000E-01	 4.00000000E+00
					 1.00000000E+00	 1.00000000E+00	 4.00000000E+00
					 5.00000000E-01	 5.00000000E-01	 4.00000000E+00
					 5.00000000E-01	 1.00000000E+00	 4.00000000E+00
					 1.00000000E+00	 5.00000000E-01	 3.50000000E+00
					 1.00000000E+00	 7.50000000E-01	 4.00000000E+00
					 1.00000000E+00	 1.00000000E+00	 3.50000000E+00
					 7.50000000E-01	 5.00000000E-01	 4.00000000E+00
					 7.50000000E-01	 1.00000000E+00	 4.00000000E+00
					 5.00000000E-01	 5.00000000E-01	 3.50000000E+00
					 5.00000000E-01	 7.50000000E-01	 4.00000000E+00
					 5.00000000E-01	 1.00000000E+00	 3.50000000E+00
					 1.00000000E+00	-1.49012000E-08	 4.00000000E+00
					 5.00000000E-01	-1.49012000E-08	 4.00000000E+00
					 1.00000000E+00	-1.49012000E-08	 3.50000000E+00
					 1.00000000E+00	 2.50000000E-01	 4.00000000E+00
					 7.50000000E-01	-1.49012000E-08	 4.00000000E+00
					 5.00000000E-01	-1.49012000E-08	 3.50000000E+00
					 5.00000000E-01	 2.50000000E-01	 4.00000000E+00
					-7.45058000E-09	 5.00000000E-01	 4.00000000E+00
					-7.45058000E-09	 1.00000000E+00	 4.00000000E+00
					 2.50000000E-01	 5.00000000E-01	 4.00000000E+00
					 2.50000000E-01	 1.00000000E+00	 4.00000000E+00
					-7.45058000E-09	 5.00000000E-01	 3.50000000E+00
					-7.45058000E-09	 7.50000000E-01	 4.00000000E+00
					-7.45058000E-09	 1.00000000E+00	 3.50000000E+00
					-7.45058000E-09	-1.49012000E-08	 4.00000000E+00
					 2.50000000E-01	-1.49012000E-08	 4.00000000E+00
					-7.45058000E-09	-1.49012000E-08	 3.50000000E+00
					-7.45058000E-09	 2.50000000E-01	 4.00000000E+00
					 1.00000000E+00	 5.00000000E-01	 5.00000000E+00
					 1.00000000E+00	 1.00000000E+00	 5.00000000E+00
					 5.00000000E-01	 5.00000000E-01	 5.00000000E+00
					 5.00000000E-01	 1.00000000E+00	 5.00000000E+00
					 1.00000000E+00	 5.00000000E-01	 4.50000000E+00
					 1.00000000E+00	 7.50000000E-01	 5.00000000E+00
					 1.00000000E+00	 1.00000000E+00	 4.50000000E+00
					 7.50000000E-01	 5.00000000E-01	 5.00000000E+00
					 7.50000000E-01	 1.00000000E+00	 5.00000000E+00
					 5.00000000E-01	 5.00000000E-01	 4.50000000E+00
					 5.00000000E-01	 7.50000000E-01	 5.00000000E+00
					 5.00000000E-01	 1.00000000E+00	 4.50000000E+00
					 1.00000000E+00	-1.49012000E-08	 5.00000000E+00
					 5.00000000E-01	-1.49012000E-08	 5.00000000E+00
					 1.00000000E+00	-1.49012000E-08	 4.50000000E+00
					 1.00000000E+00	 2.50000000E-01	 5.00000000E+00
					 7.50000000E-01	-1.49012000E-08	 5.00000000E+00
					 5.00000000E-01	-1.49012000E-08	 4.50000000E+00
					 5.00000000E-01	 2.50000000E-01	 5.00000000E+00
					-7.45058000E-09	 5.00000000E-01	 5.00000000E+00
					-7.45058000E-09	 1.00000000E+00	 5.00000000E+00
					 2.50000000E-01	 5.00000000E-01	 5.00000000E+00
					 2.50000000E-01	 1.00000000E+00	 5.00000000E+00
					-7.45058000E-09	 5.00000000E-01	 4.50000000E+00
					-7.45058000E-09	 7.50000000E-01	 5.00000000E+00
					-7.45058000E-09	 1.00000000E+00	 4.50000000E+00
					-7.45058000E-09	-1.49012000E-08	 5.00000000E+00
					 2.50000000E-01	-1.49012000E-08	 5.00000000E+00
					-7.45058000E-09	-1.49012000E-08	 4.50000000E+00
					-7.45058000E-09	 2.50000000E-01	 5.00000000E+00
					 1.00000000E+00	 5.00000000E-01	 6.00000000E+00
					 1.00000000E+00	 1.00000000E+00	 6.00000000E+00
					 5.00000000E-01	 5.00000000E-01	 6.00000000E+00
					 5.00000000E-01	 1.00000000E+00	 6.00000000E+00
					 1.00000000E+00	 5.00000000E-01	 5.50000000E+00
					 1.00000000E+00	 7.50000000E-01	 6.00000000E+00
					 1.00000000E+00	 1.00000000E+00	 5.50000000E+00
					 7.50000000E-01	 5.00000000E-01	 6.00000000E+00
					 7.50000000E-01	 1.00000000E+00	 6.00000000E+00
					 5.00000000E-01	 5.00000000E-01	 5.50000000E+00
					 5.00000000E-01	 7.50000000E-01	 6.00000000E+00
					 5.00000000E-01	 1.00000000E+00	 5.50000000E+00
					 1.00000000E+00	-1.49012000E-08	 6.00000000E+00
[...]
			<PointData>
				<DataArray type="Float32" Name="U" NumberOfComponents="3" ComponentName0="D1" ComponentName1="D2" ComponentName2="D3" format="ascii">
					 0.00000000E+00	 0.00000000E+00	 0.00000000E+00
					 0.00000000E+00	 0.00000000E+00	 0.00000000E+00
					-1.35421000E-05	 2.30220000E-03	 5.01582000E-05
					-1.22456000E-04	 2.30144000E-03	-1.15863000E-03
					 0.00000000E+00	 0.00000000E+00	 0.00000000E+00
					 0.00000000E+00	 0.00000000E+00	 0.00000000E+00
					-6.45755000E-06	 2.16326000E-03	 4.69158000E-05
					-1.76362000E-04	 2.17160000E-03	-1.19433000E-03
					 0.00000000E+00	 0.00000000E+00	 0.00000000E+00
					-1.05751000E-05	 7.87498000E-04	 2.37919000E-05
					-6.88128000E-05	 2.28338000E-03	-4.68987000E-04
					 1.12578000E-04	 8.69022000E-04	-7.30500000E-04
					 0.00000000E+00	 0.00000000E+00	 0.00000000E+00
					 0.00000000E+00	 0.00000000E+00	 0.00000000E+00
					-9.76146000E-06	 2.24906000E-03	 4.83782000E-05
					-1.49889000E-04	 2.25400000E-03	-1.20715000E-03
					 0.00000000E+00	 0.00000000E+00	 0.00000000E+00
					-3.34489000E-06	 7.95694000E-04	 2.07342000E-05
					-9.11443000E-05	 2.14814000E-03	-5.15228000E-04
					-6.98617000E-05	 8.87101000E-04	-7.28315000E-04
					 0.00000000E+00	 0.00000000E+00	 0.00000000E+00
					 9.65205000E-05	 2.32301000E-03	 1.25833000E-03
					 0.00000000E+00	 0.00000000E+00	 0.00000000E+00
					 1.65353000E-04	 2.19219000E-03	 1.28761000E-03
					 0.00000000E+00	 0.00000000E+00	 0.00000000E+00
					-1.33096000E-04	 8.88168000E-04	 7.81283000E-04
					 4.20840000E-05	 2.29433000E-03	 5.68806000E-04
					 0.00000000E+00	 0.00000000E+00	 0.00000000E+00
					 1.31766000E-04	 2.27536000E-03	 1.30316000E-03
					 0.00000000E+00	 0.00000000E+00	 0.00000000E+00
					 6.48070000E-05	 9.04892000E-04	 7.72579000E-04
					 7.87507000E-05	 2.15857000E-03	 6.08521000E-04
					 0.00000000E+00	 0.00000000E+00	 0.00000000E+00
					 0.00000000E+00	 0.00000000E+00	 0.00000000E+00
					 3.51649000E-07	 1.96009000E-03	 4.28613000E-05
					-2.22002000E-04	 1.97061000E-03	-1.16562000E-03
					 0.00000000E+00	 0.00000000E+00	 0.00000000E+00
					 0.00000000E+00	 0.00000000E+00	 0.00000000E+00
					-3.12270000E-06	 2.07872000E-03	 4.48474000E-05
					-1.98013000E-04	 2.08693000E-03	-1.17291000E-03
					 0.00000000E+00	 0.00000000E+00	 0.00000000E+00
					 3.60498000E-06	 6.52759000E-04	 2.02914000E-05
					-1.11976000E-04	 1.94754000E-03	-5.13542000E-04
					-2.44712000E-04	 7.44195000E-04	-7.34226000E-04
					 0.00000000E+00	 0.00000000E+00	 0.00000000E+00
					 2.25299000E-04	 1.98665000E-03	 1.25101000E-03
					 0.00000000E+00	 0.00000000E+00	 0.00000000E+00
					 1.94280000E-04	 2.10564000E-03	 1.26222000E-03
					 0.00000000E+00	 0.00000000E+00	 0.00000000E+00
					 2.54290000E-04	 7.59135000E-04	 7.77010000E-04
					 1.13121000E-04	 1.95532000E-03	 5.98839000E-04
					-2.83022000E-05	 5.55513000E-03	 9.74130000E-05
					-6.32596000E-04	 5.52619000E-03	-1.09029000E-03
					-2.18599000E-05	 4.97145000E-03	 9.16520000E-05
					-5.90741000E-04	 4.94344000E-03	-1.09583000E-03
					-1.90134000E-05	 3.96479000E-03	 7.55537000E-05
					-3.28378000E-04	 5.55090000E-03	-4.59423000E-04
					-3.52330000E-04	 3.96730000E-03	-1.20767000E-03
					-2.49664000E-05	 5.25424000E-03	 9.41965000E-05
					-6.11190000E-04	 5.22503000E-03	-1.13319000E-03
					-1.22869000E-05	 3.63629000E-03	 6.97594000E-05
					-3.05483000E-04	 4.96890000E-03	-5.05576000E-04
					-3.40875000E-04	 3.63767000E-03	-1.22553000E-03
					 5.73807000E-04	 5.54173000E-03	 1.28297000E-03
					 5.45356000E-04	 4.96209000E-03	 1.27764000E-03
					 3.13562000E-04	 3.98765000E-03	 1.35702000E-03
					 2.71222000E-04	 5.55835000E-03	 6.53778000E-04
					 5.59182000E-04	 5.24263000E-03	 1.31959000E-03
					 3.16695000E-04	 3.65807000E-03	 1.36422000E-03
					 2.61250000E-04	 4.97854000E-03	 6.88488000E-04
					-1.52161000E-05	 4.41952000E-03	 8.61436000E-05
					-5.33686000E-04	 4.40328000E-03	-1.10100000E-03
					-1.87193000E-05	 4.68808000E-03	 8.93421000E-05
					-5.62074000E-04	 4.66124000E-03	-1.05657000E-03
					-5.98739000E-06	 3.30716000E-03	 6.36080000E-05
					-2.79002000E-04	 4.42191000E-03	-5.51507000E-04
					-3.19985000E-04	 3.32057000E-03	-1.21874000E-03
					 5.02239000E-04	 4.42358000E-03	 1.27214000E-03
					 5.23334000E-04	 4.68055000E-03	 1.23430000E-03
					 3.09704000E-04	 3.33877000E-03	 1.34610000E-03
					 2.48335000E-04	 4.43276000E-03	 7.23178000E-04
					-3.62378000E-05	 8.39358000E-03	 1.27749000E-04
					-1.44151000E-03	 8.41023000E-03	-1.04545000E-03
					-2.78223000E-05	 6.94999000E-03	 1.30929000E-04
					-1.50345000E-03	 6.97392000E-03	-1.02689000E-03
					-3.51883000E-05	 6.96105000E-03	 1.13585000E-04
					-7.40752000E-04	 8.39307000E-03	-4.09504000E-04
					-9.72245000E-04	 6.95085000E-03	-9.88547000E-04
					-3.23505000E-05	 7.67914000E-03	 1.29538000E-04
					-1.47222000E-03	 7.70205000E-03	-1.11697000E-03
					-2.83297000E-05	 6.02006000E-03	 1.12249000E-04
					-7.64746000E-04	 6.95353000E-03	-4.81424000E-04
					-9.70228000E-04	 6.01536000E-03	-9.78245000E-04
					 1.37015000E-03	 8.42710000E-03	 1.29980000E-03
					 1.44738000E-03	 6.99032000E-03	 1.28709000E-03
					 9.00456000E-04	 6.96464000E-03	 1.21419000E-03
					 6.68623000E-04	 8.40118000E-03	 6.64380000E-04
					 1.40822000E-03	 7.71868000E-03	 1.37500000E-03
					 9.11852000E-04	 6.03177000E-03	 1.20067000E-03
					 7.09059000E-04	 6.96133000E-03	 7.42783000E-04
					-1.83827000E-05	 5.44299000E-03	 1.35484000E-04
					-1.55057000E-03	 5.47270000E-03	-1.03825000E-03
					-2.30640000E-05	 6.20583000E-03	 1.32770000E-04
					-1.52658000E-03	 6.23041000E-03	-9.32147000E-04
					-2.07517000E-05	 5.07938000E-03	 1.11856000E-04
					-7.85904000E-04	 5.44973000E-03	-5.83830000E-04
					-9.45221000E-04	 5.08883000E-03	-9.90642000E-04
					 1.51167000E-03	 5.49202000E-03	 1.30691000E-03
					 1.47886000E-03	 6.24751000E-03	 1.19557000E-03
					 9.01350000E-04	 5.10879000E-03	 1.21159000E-03
					 7.48667000E-04	 5.45951000E-03	 8.54097000E-04
					-4.13292000E-05	 1.24966000E-02	 1.53122000E-04
					-2.71707000E-03	 1.25715000E-02	-1.92123000E-03
					-2.64646000E-05	 9.72434000E-03	 1.63568000E-04
					-2.89029000E-03	 9.80047000E-03	-1.90444000E-03
					-3.71076000E-05	 1.01527000E-02	 1.41956000E-04
					-1.38018000E-03	 1.25098000E-02	-7.92529000E-04
					-2.03769000E-03	 1.01992000E-02	-1.38678000E-03
					-3.46681000E-05	 1.11348000E-02	 1.58128000E-04
					-2.80435000E-03	 1.12104000E-02	-2.01703000E-03
					-2.59039000E-05	 8.07673000E-03	 1.47830000E-04
					-1.45872000E-03	 9.73740000E-03	-8.83533000E-04
					-2.16917000E-03	 8.13032000E-03	-1.36674000E-03
					 2.63619000E-03	 1.26049000E-02	 2.22754000E-03
					 2.83668000E-03	 9.83348000E-03	 2.23143000E-03
					 1.96575000E-03	 1.02224000E-02	 1.67008000E-03
					 1.29797000E-03	 1.25256000E-02	 1.09904000E-03
					 2.73627000E-03	 1.12437000E-02	 2.33294000E-03
					 2.11728000E-03	 8.15195000E-03	 1.66177000E-03
					 1.40582000E-03	 9.75329000E-03	 1.21060000E-03
					-9.28865000E-06	 6.77029000E-03	 1.74663000E-04
					-3.06705000E-03	 6.83698000E-03	-1.89959000E-03
					-1.76828000E-05	 8.27105000E-03	 1.69145000E-04
					-2.97896000E-03	 8.34552000E-03	-1.79057000E-03
					-1.31321000E-05	 5.86696000E-03	 1.55176000E-04
					-1.53550000E-03	 6.77828000E-03	-9.86253000E-04
					-2.29180000E-03	 5.91991000E-03	-1.37368000E-03
					 3.04510000E-03	 6.87580000E-03	 2.24862000E-03
					 2.94104000E-03	 8.38015000E-03	 2.12891000E-03
					 2.26320000E-03	 5.94518000E-03	 1.68330000E-03
					 1.51620000E-03	 6.79818000E-03	 1.33527000E-03
					-5.47423000E-05	 1.91719000E-02	 1.65549000E-04
					-3.93350000E-03	 1.92318000E-02	-3.21636000E-03
					-3.29074000E-05	 1.52037000E-02	 1.85081000E-04
					-4.08875000E-03	 1.52609000E-02	-3.20418000E-03
					-4.66071000E-05	 1.55230000E-02	 1.60388000E-04
					-1.99409000E-03	 1.91784000E-02	-1.44174000E-03
					-3.38453000E-03	 1.55979000E-02	-2.57178000E-03
					-4.41776000E-05	 1.72120000E-02	 1.75368000E-04
					-4.01170000E-03	 1.72691000E-02	-3.27841000E-03
					-2.79855000E-05	 1.20920000E-02	 1.76747000E-04
					-2.06158000E-03	 1.52078000E-02	-1.49310000E-03
					-3.55583000E-03	 1.21608000E-02	-2.55619000E-03
					 3.82592000E-03	 1.92988000E-02	 3.54627000E-03
					 4.02315000E-03	 1.53264000E-02	 3.57299000E-03
					 3.29293000E-03	 1.56471000E-02	 2.89286000E-03
					 1.88509000E-03	 1.92111000E-02	 1.77264000E-03
					 3.92493000E-03	 1.73358000E-02	 3.62770000E-03
					 3.49960000E-03	 1.22097000E-02	 2.90941000E-03
					 1.99600000E-03	 1.52402000E-02	 1.86299000E-03
					-9.75773000E-06	 1.10598000E-02	 2.03954000E-04
					-4.25642000E-03	 1.11053000E-02	-3.17757000E-03
					-2.12941000E-05	 1.31542000E-02	 1.94565000E-04
					-4.17315000E-03	 1.32097000E-02	-3.13182000E-03
					-7.30098000E-06	 8.46779000E-03	 1.92596000E-04
					-2.12996000E-03	 1.10576000E-02	-1.53008000E-03
					-3.74504000E-03	 8.52066000E-03	-2.53958000E-03
					 4.23549000E-03	 1.11735000E-02	 3.58428000E-03
					 4.12950000E-03	 1.32755000E-02	 3.51976000E-03
					 3.72801000E-03	 8.57438000E-03	 2.92415000E-03
					 2.11021000E-03	 1.10922000E-02	 1.93782000E-03
					-9.51181000E-05	 2.80138000E-02	 1.60335000E-04
					-4.80629000E-03	 2.80020000E-02	-4.04906000E-03
					-6.79616000E-05	 2.32794000E-02	 1.81560000E-04
					-4.83046000E-03	 2.32627000E-02	-4.04198000E-03
					-7.09005000E-05	 2.33961000E-02	 1.66895000E-04
					-2.44984000E-03	 2.80029000E-02	-1.86539000E-03
					-4.39583000E-03	 2.34197000E-02	-3.72822000E-03
					-8.18393000E-05	 2.56534000E-02	 1.70232000E-04
					-4.81826000E-03	 2.56380000E-02	-4.09675000E-03
					-4.66802000E-05	 1.90104000E-02	 1.86542000E-04
					-2.44885000E-03	 2.32660000E-02	-1.89998000E-03
					-4.49436000E-03	 1.90312000E-02	-3.72243000E-03
					 4.61696000E-03	 2.80881000E-02	 4.36651000E-03
					 4.69296000E-03	 2.33491000E-02	 4.40221000E-03
					 4.25578000E-03	 2.34990000E-02	 4.05883000E-03
					 2.25978000E-03	 2.80444000E-02	 2.18537000E-03
					 4.65480000E-03	 2.57246000E-02	 4.43399000E-03
					 4.40050000E-03	 1.91093000E-02	 4.09309000E-03
					 2.31249000E-03	 2.33082000E-02	 2.26232000E-03
					-4.01885000E-05	 1.84880000E-02	 2.04224000E-04
					-4.86020000E-03	 1.84672000E-02	-4.00484000E-03
					-5.39270000E-05	 2.08897000E-02	 1.93312000E-04
					-4.84576000E-03	 2.08715000E-02	-3.99021000E-03
					-2.15975000E-05	 1.45008000E-02	 2.06524000E-04
					-2.44985000E-03	 1.84715000E-02	-1.90483000E-03
					-4.60135000E-03	 1.45133000E-02	-3.68714000E-03
					 4.77572000E-03	 1.85587000E-02	 4.41063000E-03
					 4.73444000E-03	 2.09592000E-02	 4.37442000E-03
					 4.55568000E-03	 1.45948000E-02	 4.09865000E-03
					 2.36855000E-03	 1.85177000E-02	 2.31222000E-03
					-1.35585000E-04	 3.73120000E-02	 1.28905000E-04
					-5.47501000E-03	 3.72594000E-02	-4.06821000E-03
					-1.03520000E-04	 3.19895000E-02	 1.61612000E-04
					-5.41284000E-03	 3.19321000E-02	-4.04369000E-03
					-1.19027000E-04	 3.27372000E-02	 1.45921000E-04
					-2.80319000E-03	 3.72914000E-02	-1.93454000E-03
					-5.17251000E-03	 3.27015000E-02	-4.12051000E-03
					-1.20241000E-04	 3.46489000E-02	 1.45792000E-04
					-5.44411000E-03	 3.45913000E-02	-4.08886000E-03
					-8.86339000E-05	 2.76864000E-02	 1.72911000E-04
					-2.75738000E-03	 3.19662000E-02	-1.94235000E-03
					-5.13870000E-03	 2.76466000E-02	-4.10421000E-03
					 5.20754000E-03	 3.73538000E-02	 4.32742000E-03
					 5.20906000E-03	 3.20219000E-02	 4.36717000E-03
					 4.93620000E-03	 3.27913000E-02	 4.41059000E-03
					 2.53319000E-03	 3.73373000E-02	 2.19283000E-03
					 5.20733000E-03	 3.46836000E-02	 4.38180000E-03
					 4.96112000E-03	 2.77353000E-02	 4.44740000E-03
					 2.55156000E-03	 3.20100000E-02	 2.26586000E-03
					-7.12749000E-05	 2.66855000E-02	 1.90527000E-04
					-5.36134000E-03	 2.66279000E-02	-4.02117000E-03
					-8.68347000E-05	 2.93321000E-02	 1.76084000E-04
					-5.38639000E-03	 2.92757000E-02	-3.99863000E-03
					-5.78616000E-05	 2.26316000E-02	 2.00276000E-04
					-2.71586000E-03	 2.66609000E-02	-1.95274000E-03
					-5.10766000E-03	 2.25925000E-02	-4.06992000E-03
					 5.22051000E-03	 2.67155000E-02	 4.40126000E-03
					 5.21537000E-03	 2.93638000E-02	 4.34928000E-03
					 4.98853000E-03	 2.26849000E-02	 4.46685000E-03
					 2.57391000E-03	 2.67039000E-02	 2.33453000E-03
					-1.57605000E-04	 4.57908000E-02	 9.80151000E-05
					-5.74857000E-03	 4.57373000E-02	-3.99412000E-03
					-1.34697000E-04	 4.02360000E-02	 1.30388000E-04
					-5.70859000E-03	 4.01773000E-02	-3.98346000E-03
					-1.47092000E-04	 4.16352000E-02	 1.13111000E-04
					-2.95520000E-03	 4.57631000E-02	-1.95017000E-03
					-5.66692000E-03	 4.15849000E-02	-4.01130000E-03
					-1.45163000E-04	 4.30088000E-02	 1.15360000E-04
					-5.72828000E-03	 4.29522000E-02	-3.98772000E-03
					-1.17122000E-04	 3.61312000E-02	 1.47472000E-04
					-2.92845000E-03	 4.02052000E-02	-1.93316000E-03
					-5.61231000E-03	 3.60781000E-02	-3.99159000E-03
					 5.43351000E-03	 4.58453000E-02	 4.19758000E-03
					 5.44649000E-03	 4.02856000E-02	 4.25358000E-03
					 5.37485000E-03	 4.16840000E-02	 4.24382000E-03
					 2.64038000E-03	 4.58189000E-02	 2.14845000E-03
					 5.44112000E-03	 4.30613000E-02	 4.22642000E-03
					 5.38406000E-03	 3.61738000E-02	 4.29234000E-03
					 2.66176000E-03	 4.02608000E-02	 2.19657000E-03
					-1.10908000E-04	 3.46846000E-02	 1.51222000E-04
					-5.69584000E-03	 3.46267000E-02	-3.99018000E-03
					-1.24034000E-04	 3.74659000E-02	 1.42143000E-04
					-5.70284000E-03	 3.74060000E-02	-3.98179000E-03
					-8.64403000E-05	 3.06380000E-02	 1.72164000E-04
					-2.90812000E-03	 3.46552000E-02	-1.93337000E-03
					-5.57711000E-03	 3.05881000E-02	-3.98792000E-03
					 5.48735000E-03	 3.47210000E-02	 4.30321000E-03
					 5.46643000E-03	 3.75097000E-02	 4.27594000E-03
					 5.41333000E-03	 3.06733000E-02	 4.33736000E-03
					 2.68966000E-03	 3.47018000E-02	 2.23917000E-03
					 0.00000000E+00	 0.00000000E+00	 0.00000000E+00
					 0.00000000E+00	 0.00000000E+00	 0.00000000E+00
					-2.37187000E-05	-5.39296000E-03	-4.61240000E-05
					-1.92777000E-03	-5.57417000E-03	 4.72787000E-03
					 0.00000000E+00	 0.00000000E+00	 0.00000000E+00
					 0.00000000E+00	 0.00000000E+00	 0.00000000E+00
					-2.83272000E-05	-7.10068000E-03	-9.20266000E-05
					-1.53243000E-03	-7.29667000E-03	 4.78442000E-03
					 0.00000000E+00	 0.00000000E+00	 0.00000000E+00
					 1.21736000E-06	-1.27624000E-03	-1.67590000E-05
					-9.78037000E-04	-5.39416000E-03	 2.29875000E-03
					-1.44392000E-03	-1.69816000E-03	 2.70752000E-03
					 0.00000000E+00	 0.00000000E+00	 0.00000000E+00
					 0.00000000E+00	 0.00000000E+00	 0.00000000E+00
					-2.46733000E-05	-6.33219000E-03	-6.98610000E-05
					-1.72399000E-03	-6.51776000E-03	 4.64570000E-03
					 0.00000000E+00	 0.00000000E+00	 0.00000000E+00
					-6.56472000E-06	-2.32873000E-03	-3.63457000E-05
					-7.80934000E-04	-7.10322000E-03	 2.18433000E-03
					-7.49074000E-04	-2.73181000E-03	 2.64640000E-03
					 0.00000000E+00	 0.00000000E+00	 0.00000000E+00
					 1.88099000E-03	-5.52513000E-03	-4.82856000E-03
					 0.00000000E+00	 0.00000000E+00	 0.00000000E+00
					 1.48110000E-03	-7.25329000E-03	-4.97602000E-03
					 0.00000000E+00	 0.00000000E+00	 0.00000000E+00
					 1.44934000E-03	-1.68067000E-03	-2.74922000E-03
					 9.30121000E-04	-5.36972000E-03	-2.39313000E-03
					 0.00000000E+00	 0.00000000E+00	 0.00000000E+00
					 1.67742000E-03	-6.47147000E-03	-4.79331000E-03
					 0.00000000E+00	 0.00000000E+00	 0.00000000E+00
					 7.41748000E-04	-2.72607000E-03	-2.72681000E-03
					 7.23978000E-04	-7.08319000E-03	-2.37067000E-03
					 0.00000000E+00	 0.00000000E+00	 0.00000000E+00
					 0.00000000E+00	 0.00000000E+00	 0.00000000E+00
					-3.79275000E-05	-8.40442000E-03	-1.32582000E-04
					-1.12965000E-03	-8.56597000E-03	 4.64475000E-03
					 0.00000000E+00	 0.00000000E+00	 0.00000000E+00
					 0.00000000E+00	 0.00000000E+00	 0.00000000E+00
					-3.22071000E-05	-7.83553000E-03	-1.13154000E-04
					-1.33374000E-03	-8.01436000E-03	 4.87811000E-03
					 0.00000000E+00	 0.00000000E+00	 0.00000000E+00
					-2.05317000E-05	-2.76594000E-03	-5.44727000E-05
					-5.86803000E-04	-8.39244000E-03	 1.93853000E-03
					-5.01910000E-06	-3.12043000E-03	 2.66986000E-03
					 0.00000000E+00	 0.00000000E+00	 0.00000000E+00
					 1.05978000E-03	-8.53260000E-03	-4.91411000E-03
					 0.00000000E+00	 0.00000000E+00	 0.00000000E+00
					 1.27421000E-03	-7.97844000E-03	-5.11082000E-03
					 0.00000000E+00	 0.00000000E+00	 0.00000000E+00
					-3.08209000E-05	-3.12493000E-03	-2.78749000E-03
					 5.13221000E-04	-8.38094000E-03	-2.20420000E-03
					-1.10111000E-04	-1.69030000E-02	-1.55506000E-04
					-3.00164000E-03	-1.69142000E-02	 5.86925000E-03
					-1.11222000E-04	-1.98074000E-02	-2.36624000E-04
					-3.03190000E-03	-1.98206000E-02	 5.82599000E-03
					-6.06819000E-05	-1.08580000E-02	-9.20836000E-05
					-1.55805000E-03	-1.69245000E-02	 2.85492000E-03
					-2.49873000E-03	-1.10063000E-02	 5.68162000E-03
					-1.11021000E-04	-1.83404000E-02	-1.98452000E-04
					-3.01724000E-03	-1.83500000E-02	 5.78129000E-03
					-6.47668000E-05	-1.32050000E-02	-1.59206000E-04
					-1.56694000E-03	-1.98305000E-02	 2.72844000E-03
					-2.31598000E-03	-1.33513000E-02	 5.66932000E-03
					 2.78198000E-03	-1.68436000E-02	-6.18424000E-03
					 2.80269000E-03	-1.97551000E-02	-6.30108000E-03
					 2.37761000E-03	-1.09401000E-02	-5.87505000E-03
					 1.33761000E-03	-1.68889000E-02	-3.16753000E-03
					 2.79410000E-03	-1.82878000E-02	-6.17948000E-03
					 2.18816000E-03	-1.32903000E-02	-5.99526000E-03
					 1.34730000E-03	-1.97993000E-02	-3.19992000E-03
					-1.17737000E-04	-2.27373000E-02	-3.17968000E-04
					-3.06083000E-03	-2.27480000E-02	 5.70579000E-03
					-1.14665000E-04	-2.12574000E-02	-2.74271000E-04
					-3.04625000E-03	-2.12960000E-02	 5.87084000E-03
					-7.25716000E-05	-1.53632000E-02	-2.24456000E-04
					-1.58963000E-03	-2.27548000E-02	 2.52833000E-03
					-2.14931000E-03	-1.55159000E-02	 5.55108000E-03
					 2.84765000E-03	-2.26986000E-02	-6.34374000E-03
					 2.82553000E-03	-2.12082000E-02	-6.42313000E-03
					 2.01721000E-03	-1.54704000E-02	-6.00442000E-03
					 1.36017000E-03	-2.27334000E-02	-3.16172000E-03
					-1.94890000E-04	-2.80744000E-02	-3.23723000E-04
					-3.78119000E-03	-2.79201000E-02	 4.65175000E-03
					-1.94509000E-04	-3.17336000E-02	-3.77355000E-04
					-3.99042000E-03	-3.17008000E-02	 4.60992000E-03
					-1.58424000E-04	-2.27523000E-02	-2.34105000E-04
					-1.98104000E-03	-2.80248000E-02	 2.16566000E-03
					-3.45818000E-03	-2.26978000E-02	 5.43800000E-03
					-1.94399000E-04	-2.98770000E-02	-3.46781000E-04
					-3.88994000E-03	-2.97994000E-02	 4.59371000E-03
					-1.59678000E-04	-2.61153000E-02	-3.11672000E-04
					-2.11650000E-03	-3.17509000E-02	 2.06922000E-03
					-3.60456000E-03	-2.60806000E-02	 5.38626000E-03
					 3.34760000E-03	-2.79297000E-02	-5.28261000E-03
					 3.59178000E-03	-3.16054000E-02	-5.38165000E-03
					 3.13037000E-03	-2.26474000E-02	-5.90556000E-03
					 1.57702000E-03	-2.80322000E-02	-2.80124000E-03
					 3.46767000E-03	-2.97359000E-02	-5.29931000E-03
					 3.28217000E-03	-2.60075000E-02	-6.00992000E-03
					 1.70169000E-03	-3.17051000E-02	-2.84366000E-03
					-1.94475000E-04	-3.56404000E-02	-4.36238000E-04
					-4.31091000E-03	-3.57453000E-02	 4.53731000E-03
					-1.94623000E-04	-3.36722000E-02	-4.08330000E-04
					-4.15431000E-03	-3.35744000E-02	 4.63186000E-03
					-1.51822000E-04	-2.96322000E-02	-3.91352000E-04
					-2.21788000E-03	-3.57323000E-02	 1.94021000E-03
					-3.79974000E-03	-2.96456000E-02	 5.28329000E-03
					 3.87046000E-03	-3.55438000E-02	-5.45285000E-03
					 3.73078000E-03	-3.35378000E-02	-5.46558000E-03
					 3.45202000E-03	-2.95337000E-02	-6.06883000E-03
					 1.82864000E-03	-3.56357000E-02	-2.85741000E-03
					-1.52071000E-04	-3.62610000E-02	-5.10575000E-04
					-3.83508000E-03	-3.59681000E-02	 2.35355000E-03