<?xml version="1.0"?>
<VTKFile type="UnstructuredGrid" version="0.1" byte_order="LittleEndian">
	<UnstructuredGrid>
		<Piece NumberOfPoints="522" NumberOfCells="64">
			<Points>
				<DataArray type="Float64" NumberOfComponents="3" format="ascii">
					 1.00000000E+00	 1.00000000E+00	-5.96046000E-08
					 1.00000000E+00	 5.00000000E-01	-5.96046000E-08
					 1.00000000E+00	 5.00000000E-01	 1.00000000E+00
					 1.00000000E+00	 1.00000000E+00	 1.00000000E+00
					 5.00000000E-01	 1.00000000E+00	-5.96046000E-08
					 5.00000000E-01	 5.00000000E-01	-5.96046000E-08
					 5.00000000E-01	 5.00000000E-01	 1.00000000E+00
					 5.00000000E-01	 1.00000000E+00	 1.00000000E+00
					 1.00000000E+00	 7.50000000E-01	-5.96046000E-08
					 1.00000000E+00	 5.00000000E-01	 5.00000000E-01
					 1.00000000E+00	 7.50000000E-01	 1.00000000E+00
					 1.00000000E+00	 1.00000000E+00	 5.00000000E-01
					 7.50000000E-01	 1.00000000E+00	-5.96046000E-08
					 7.50000000E-01	 5.00000000E-01	-5.96046000E-08
					 7.50000000E-01	 5.00000000E-01	 1.00000000E+00
					 7.50000000E-01	 1.00000000E+00	 1.00000000E+00
					 5.00000000E-01	 7.50000000E-01	-5.96046000E-08
					 5.00000000E-01	 5.00000000E-01	 5.00000000E-01
					 5.00000000E-01	 7.50000000E-01	 1.00000000E+00
					 5.00000000E-01	 1.00000000E+00	 5.00000000E-01
					 1.00000000E+00	-1.49012000E-08	-5.96046000E-08
					 1.00000000E+00	-1.49012000E-08	 1.00000000E+00
					 5.00000000E-01	-1.49012000E-08	-5.96046000E-08
					 5.00000000E-01	-1.49012000E-08	 1.00000000E+00
					 1.00000000E+00	 2.50000000E-01	-5.96046000E-08
					 1.00000000E+00	-1.49012000E-08	 5.00000000E-01
					 1.00000000E+00	 2.50000000E-01	 1.00000000E+00
					 7.50000000E-01	-1.49012000E-08	-5.96046000E-08
					 7.50000000E-01	-1.49012000E-08	 1.00000000E+00
					 5.00000000E-01	 2.50000000E-01	-5.96046000E-08
					 5.00000000E-01	-1.49012000E-08	 5.00000000E-01
					 5.00000000E-01	 2.50000000E-01	 1.00000000E+00
					-7.45058000E-09	 1.00000000E+00	-5.96046000E-08
					-7.45058000E-09	 5.00000000E-01	-5.96046000E-08
					-7.45058000E-09	 5.00000000E-01	 1.00000000E+00
					-7.45058000E-09	 1.00000000E+00	 1.00000000E+00
					 2.50000000E-01	 1.00000000E+00	-5.96046000E-08
					 2.50000000E-01	 5.00000000E-01	-5.96046000E-08
					 2.50000000E-01	 5.00000000E-01	 1.00000000E+00
					 2.50000000E-01	 1.00000000E+00	 1.00000000E+00
					-7.45058000E-09	 7.50000000E-01	-5.96046000E-08
					-7.45058000E-09	 5.00000000E-01	 5.00000000E-01
					-7.45058000E-09	 7.50000000E-01	 1.00000000E+00
					-7.45058000E-09	 1.00000000E+00	 5.00000000E-01
					-7.45058000E-09	-1.49012000E-08	-5.96046000E-08
					-7.45058000E-09	-1.49012000E-08	 1.00000000E+00
					 2.50000000E-01	-1.49012000E-08	-5.96046000E-08
					 2.50000000E-01	-1.49012000E-08	 1.00000000E+00
					-7.45058000E-09	 2.50000000E-01	-5.96046000E-08
					-7.45058000E-09	-1.49012000E-08	 5.00000000E-01
					-7.45058000E-09	 2.50000000E-01	 1.00000000E+00
					 1.00000000E+00	 5.00000000E-01	 2.00000000E+00
					 1.00000000E+00	 1.00000000E+00	 2.00000000E+00
					 5.00000000E-01	 5.00000000E-01	 2.00000000E+00
					 5.00000000E-01	 1.00000000E+00	 2.00000000E+00
					 1.00000000E+00	 5.00000000E-01	 1.50000000E+00
					 1.00000000E+00	 7.50000000E-01	 2.00000000E+00
					 1.00000000E+00	 1.00000000E+00	 1.50000000E+00
					 7.50000000E-01	 5.00000000E-01	 2.00000000E+00
					 7.50000000E-01	 1.00000000E+00	 2.00000000E+00
					 5.00000000E-01	 5.00000000E-01	 1.50000000E+00
					 5.00000000E-01	 7.50000000E-01	 2.00000000E+00
					 5.00000000E-01	 1.00000000E+00	 1.50000000E+00
					 1.00000000E+00	-1.49012000E-08	 2.00000000E+00
					 5.00000000E-01	-1.49012000E-08	 2.00000000E+00
					 1.00000000E+00	-1.49012000E-08	 1.50000000E+00
					 1.00000000E+00	 2.50000000E-01	 2.00000000E+00
					 7.50000000E-01	-1.49012000E-08	 2.00000000E+00
					 5.00000000E-01	-1.49012000E-08	 1.50000000E+00
					 5.00000000E-01	 2.50000000E-01	 2.00000000E+00
					-7.45058000E-09	 5.00000000E-01	 2.00000000E+00
					-7.45058000E-09	 1.00000000E+00	 2.00000000E+00
					 2.50000000E-01	 5.00000000E-01	 2.00000000E+00
					 2.50000000E-01	 1.00000000E+00	 2.00000000E+00
					-7.45058000E-09	 5.00000000E-01	 1.50000000E+00
					-7.45058000E-09	 7.50000000E-01	 2.00000000E+00
					-7.45058000E-09	 1.00000000E+00	 1.50000000E+00
					-7.45058000E-09	-1.49012000E-08	 2.00000000E+00
					 2.50000000E-01	-1.49012000E-08	 2.00000000E+00
					-7.45058000E-09	-1.49012000E-08	 1.50000000E+00
					-7.45058000E-09	 2.50000000E-01	 2.00000000E+00
					 1.00000000E+00	 5.00000000E-01	 3.00000000E+00
					 1.00000000E+00	 1.00000000E+00	 3.00000000E+00
					 5.00000000E-01	 5.00000000E-01	 3.00000000E+00
					 5.00000000E-01	 1.00000000E+00	 3.00000000E+00
					 1.00000000E+00	 5.00000000E-01	 2.50000000E+00
					 1.00000000E+00	 7.50000000E-01	 3.00000000E+00
					 1.00000000E+00	 1.00000000E+00	 2.50000000E+00
					 7.50000000E-01	 5.00000000E-01	 3.00000000E+00
					 7.50000000E-01	 1.00000000E+00	 3.00000000E+00
					 5.00000000E-01	 5.00000000E-01	 2.50000000E+00
					 5.00000000E-01	 7.50000000E-01	 3.00000000E+00
					 5.00000000E-01	 1.00000000E+00	 2.50000000E+00
					 1.00000000E+00	-1.49012000E-08	 3.00000000E+00
					 5.00000000E-01	-1.49012000E-08	 3.00000000E+00
					 1.00000000E+00	-1.49012000E-08	 2.50000000E+00
					 1.00000000E+00	 2.50000000E-01	 3.00000000E+00
					 7.50000000E-01	-1.49012000E-08	 3.00000000E+00
					 5.00000000E-01	-1.49012000E-08	 2.50000000E+00
					 5.00000000E-01	 2.50000000E-01	 3.00000000E+00
					-7.45058000E-09	 5.00000000E-01	 3.00000000E+00
					-7.45058000E-09	 1.00000000E+00	 3.00000000E+00
					 2.50000000E-01	 5.00000000E-01	 3.00000000E+00
					 2.50000000E-01	 1.00000000E+00	 3.00000000E+00
					-7.45058000E-09	 5.00000000E-01	 2.50000000E+00
					-7.45058000E-09	 7.50000000E-01	 3.00000000E+00
					-7.45058000E-09	 1.00000000E+00	 2.50000000E+00
					-7.45058000E-09	-1.49012000E-08	 3.00000000E+00
					 2.50000000E-01	-1.49012000E-08	 3.00000000E+00
					-7.45058000E-09	-1.49012000E-08	 2.50000000E+00
					-7.45058000E-09	 2.50000000E-01	 3.00000000E+00
					 1.00000000E+00	 5.00000000E-01	 4.00000000E+00
					 1.00000000E+00	 1.00000000E+00	 4.00000000E+00
					 5.00000000E-01	 5.00000000E-01	 4.00000000E+00
					 5.00000000E-01	 1.00000000E+00	 4.00000000E+00
					 1.00000000E+00	 5.00000000E-01	 3.50000000E+00
					 1.00000000E+00	 7.50000000E-01	 4.00000000E+00
					 1.00000000E+00	 1.00000000E+00	 3.50000000E+00
					 7.50000000E-01	 5.00000000E-01	 4.00000000E+00
					 7.50000000E-01	 1.00000000E+00	 4.00000000E+00
					 5.00000000E-01	 5.00000000E-01	 3.50000000E+00
					 5.00000000E-01	 7.50000000E-01	 4.00000000E+00
					 5.00000000E-01	 1.00000000E+00	 3.50000000E+00
					 1.00000000E+00	-1.49012000E-08	 4.00000000E+00
					 5.00000000E-01	-1.49012000E-08	 4.00000000E+00
					 1.00000000E+00	-1.49012000E-08	 3.50000000E+00
					 1.00000000E+00	 2.50000000E-01	 4.00000000E+00
					 7.50000000E-01	-1.49012000E-08	 4.00000000E+00
					 5.00000000E-01	-1.49012000E-08	 3.50000000E+00
					 5.00000000E-01	 2.50000000E-01	 4.00000000E+00
					-7.45058000E-09	 5.00000000E-01	 4.00000000E+00
					-7.45058000E-09	 1.00000000E+00	 4.00000000E+00
					 2.50000000E-01	 5.00000000E-01	 4.00000000E+00
					 2.50000000E-01	 1.00000000E+00	 4.00000000E+00
					-7.45058000E-09	 5.00000000E-01	 3.50000000E+00
					-7.45058000E-09	 7.50000000E-01	 4.00000000E+00
					-7.45058000E-09	 1.00000000E+00	 3.50000000E+00
					-7.45058000E-09	-1.49012000E-08	 4.00000000E+00
					 2.50000000E-01	-1.49012000E-08	 4.00000000E+00
					-7.45058000E-09	-1.49012000E-08	 3.50000000E+00
					-7.45058000E-09	 2.50000000E-01	 4.00000000E+00
					 1.00000000E+00	 5.00000000E-01	 5.00000000E+00
					 1.00000000E+00	 1.00000000E+00	 5.00000000E+00
					 5.00000000E-01	 5.00000000E-01	 5.00000000E+00
					 5.00000000E-01	 1.00000000E+00	 5.00000000E+00
					 1.00000000E+00	 5.00000000E-01	 4.50000000E+00
					 1.00000000E+00	 7.50000000E-01	 5.00000000E+00
					 1.00000000E+00	 1.00000000E+00	 4.50000000E+00
					 7.50000000E-01	 5.00000000E-01	 5.00000000E+00
					 7.50000000E-01	 1.00000000E+00	 5.00000000E+00
					 5.00000000E-01	 5.00000000E-01	 4.50000000E+00
					 5.00000000E-01	 7.50000000E-01	 5.00000000E+00
					 5.00000000E-01	 1.00000000E+00	 4.50000000E+00
					 1.00000000E+00	-1.49012000E-08	 5.00000000E+00
					 5.00000000E-01	-1.49012000E-08	 5.00000000E+00
					 1.00000000E+00	-1.49012000E-08	 4.50000000E+00
					 1.00000000E+00	 2.50000000E-01	 5.00000000E+00
					 7.50000000E-01	-1.49012000E-08	 5.00000000E+00
					 5.00000000E-01	-1.49012000E-08	 4.50000000E+00
					 5.00000000E-01	 2.50000000E-01	 5.00000000E+00
					-7.45058000E-09	 5.00000000E-01	 5.00000000E+00
					-7.45058000E-09	 1.00000000E+00	 5.00000000E+00
					 2.50000000E-01	 5.00000000E-01	 5.00000000E+00
					 2.50000000E-01	 1.00000000E+00	 5.00000000E+00
					-7.45058000E-09	 5.00000000E-01	 4.50000000E+00
					-7.45058000E-09	 7.50000000E-01	 5.00000000E+00
					-7.45058000E-09	 1.00000000E+00	 4.50000000E+00
					-7.45058000E-09	-1.49012000E-08	 5.00000000E+00
					 2.50000000E-01	-1.49012000E-08	 5.00000000E+00
					-7.45058000E-09	-1.49012000E-08	 4.50000000E+00
					-7.45058000E-09	 2.50000000E-01	 5.00000000E+00
					 1.00000000E+00	 5.00000000E-01	 6.00000000E+00
					 1.00000000E+00	 1.00000000E+00	 6.00000000E+00
					 5.00000000E-01	 5.00000000E-01	 6.00000000E+00
					 5.00000000E-01	 1.00000000E+00	 6.00000000E+00
					 1.00000000E+00	 5.00000000E-01	 5.50000000E+00
					 1.00000000E+00	 7.50000000E-01	 6.00000000E+00
					 1.00000000E+00	 1.00000000E+00	 5.50000000E+00
					 7.50000000E-01	 5.00000000E-01	 6.00000000E+00
					 7.50000000E-01	 1.00000000E+00	 6.00000000E+00
					 5.00000000E-01	 5.00000000E-01	 5.50000000E+00
					 5.00000000E-01	 7.50000000E-01	 6.00000000E+00
					 5.00000000E-01	 1.00000000E+00	 5.50000000E+00
					 1.00000000E+00	-1.49012000E-08	 6.00000000E+00
[...]
			<PointData>
				<DataArray type="Float32" Name="U" NumberOfComponents="3" ComponentName0="D1" ComponentName1="D2" ComponentName2="D3" format="ascii">
					 0.00000000E+00	 0.00000000E+00	 0.00000000E+00
					 0.00000000E+00	 0.00000000E+00	 0.00000000E+00
					-1.78038000E-07	-3.41524000E-03	 8.72835000E-06
					-6.91392000E-04	-3.60484000E-03	 3.27260000E-03
					 0.00000000E+00	 0.00000000E+00	 0.00000000E+00
					 0.00000000E+00	 0.00000000E+00	 0.00000000E+00
					 1.87284000E-06	-3.90986000E-03	 7.65033000E-06
					-3.01081000E-04	-4.11019000E-03	 3.31336000E-03
					 0.00000000E+00	 0.00000000E+00	 0.00000000E+00
					-3.74138000E-06	-7.40699000E-04	 6.21621000E-06
					-3.48109000E-04	-3.43864000E-03	 1.61368000E-03
					-6.38593000E-04	-1.02708000E-03	 1.70438000E-03
					 0.00000000E+00	 0.00000000E+00	 0.00000000E+00
					 0.00000000E+00	 0.00000000E+00	 0.00000000E+00
					 7.04911000E-07	-3.73101000E-03	 8.18240000E-06
					-4.92000000E-04	-3.92411000E-03	 3.26876000E-03
					 0.00000000E+00	 0.00000000E+00	 0.00000000E+00
					-1.61094000E-06	-1.10457000E-03	 6.30441000E-06
					-1.49724000E-04	-3.93436000E-03	 1.60572000E-03
					-1.48932000E-04	-1.38880000E-03	 1.66244000E-03
					 0.00000000E+00	 0.00000000E+00	 0.00000000E+00
					 6.94797000E-04	-3.56966000E-03	-3.25766000E-03
					 0.00000000E+00	 0.00000000E+00	 0.00000000E+00
					 3.09100000E-04	-4.08118000E-03	-3.30138000E-03
					 0.00000000E+00	 0.00000000E+00	 0.00000000E+00
					 6.32312000E-04	-1.01083000E-03	-1.69122000E-03
					 3.48700000E-04	-3.42008000E-03	-1.59727000E-03
					 0.00000000E+00	 0.00000000E+00	 0.00000000E+00
					 4.98382000E-04	-3.89250000E-03	-3.25496000E-03
					 0.00000000E+00	 0.00000000E+00	 0.00000000E+00
					 1.48121000E-04	-1.37503000E-03	-1.64979000E-03
					 1.54934000E-04	-3.92039000E-03	-1.59146000E-03
					 0.00000000E+00	 0.00000000E+00	 0.00000000E+00
					 0.00000000E+00	 0.00000000E+00	 0.00000000E+00
					 3.53335000E-06	-4.02441000E-03	 6.63962000E-06
					 9.11026000E-05	-4.20517000E-03	 3.26955000E-03
					 0.00000000E+00	 0.00000000E+00	 0.00000000E+00
					 0.00000000E+00	 0.00000000E+00	 0.00000000E+00
					 2.82640000E-06	-4.03437000E-03	 6.75889000E-06
					-1.08601000E-04	-4.22613000E-03	 3.32588000E-03
					 0.00000000E+00	 0.00000000E+00	 0.00000000E+00
					 1.16196000E-06	-1.03739000E-03	 8.39134000E-06
					 4.70014000E-05	-4.04178000E-03	 1.55131000E-03
					 3.53313000E-04	-1.30858000E-03	 1.70454000E-03
					 0.00000000E+00	 0.00000000E+00	 0.00000000E+00
					-7.98324000E-05	-4.18175000E-03	-3.25902000E-03
					 0.00000000E+00	 0.00000000E+00	 0.00000000E+00
					 1.17970000E-04	-4.19921000E-03	-3.31569000E-03
					 0.00000000E+00	 0.00000000E+00	 0.00000000E+00
					-3.48569000E-04	-1.29615000E-03	-1.68913000E-03
					-3.85900000E-05	-4.03139000E-03	-1.53862000E-03
					-2.22506000E-06	-1.25298000E-02	-1.50160000E-05
					-8.80274000E-04	-1.26947000E-02	 5.49659000E-03
					-1.04792000E-06	-1.32682000E-02	-2.80909000E-05
					-5.97701000E-04	-1.34372000E-02	 5.48774000E-03
					 1.49609000E-06	-7.42561000E-03	 3.33371000E-06
					-4.41412000E-04	-1.25847000E-02	 2.73569000E-03
					-7.95801000E-04	-7.63215000E-03	 4.50479000E-03
					-1.40037000E-06	-1.29274000E-02	-2.22152000E-05
					-7.39668000E-04	-1.30952000E-02	 5.48104000E-03
					 2.12678000E-06	-8.05894000E-03	-4.44969000E-06
					-3.00042000E-04	-1.33271000E-02	 2.71359000E-03
					-4.65146000E-04	-8.26220000E-03	 4.51304000E-03
					 8.75979000E-04	-1.26269000E-02	-5.53325000E-03
					 5.93737000E-04	-1.33702000E-02	-5.54991000E-03
					 8.01570000E-04	-7.57904000E-03	-4.50359000E-03
					 4.36739000E-04	-1.25508000E-02	-2.76711000E-03
					 7.36617000E-04	-1.30284000E-02	-5.53225000E-03
					 4.71350000E-04	-8.21438000E-03	-4.52582000E-03
					 2.97149000E-04	-1.32939000E-02	-2.77136000E-03
					-1.30441000E-06	-1.37218000E-02	-3.62845000E-05
					-3.28607000E-04	-1.39013000E-02	 5.47559000E-03
					-9.09312000E-07	-1.35254000E-02	-3.27253000E-05
					-4.63112000E-04	-1.36957000E-02	 5.49832000E-03
					 1.63676000E-06	-8.36197000E-03	-1.06684000E-05
					-1.61023000E-04	-1.37852000E-02	 2.68640000E-03
					-1.42108000E-04	-8.57170000E-03	 4.49185000E-03
					 3.22758000E-04	-1.38305000E-02	-5.55376000E-03
					 4.57770000E-04	-1.36269000E-02	-5.56886000E-03
					 1.47059000E-04	-8.52592000E-03	-4.51538000E-03
					 1.57583000E-04	-1.37492000E-02	-2.76091000E-03
					-1.27663000E-05	-2.54166000E-02	-9.57028000E-05
					-8.06955000E-04	-2.56225000E-02	 7.25306000E-03
					-9.52190000E-06	-2.60591000E-02	-1.05132000E-04
					-4.89952000E-04	-2.62645000E-02	 7.23594000E-03
					-8.34550000E-06	-1.85075000E-02	-4.75809000E-05
					-4.09667000E-04	-2.54806000E-02	 3.57078000E-03
					-9.08382000E-04	-1.86856000E-02	 6.35749000E-03
					-1.19360000E-05	-2.57770000E-02	-1.01172000E-04
					-6.50641000E-04	-2.59835000E-02	 7.26948000E-03
					-5.65588000E-06	-1.92650000E-02	-6.10475000E-05
					-2.49675000E-04	-2.61235000E-02	 3.58468000E-03
					-6.16884000E-04	-1.94478000E-02	 6.33876000E-03
					 7.83408000E-04	-2.55142000E-02	-7.44963000E-03
					 4.70207000E-04	-2.61592000E-02	-7.45152000E-03
					 8.91435000E-04	-1.86023000E-02	-6.45908000E-03
					 3.84553000E-04	-2.54270000E-02	-3.76389000E-03
					 6.28263000E-04	-2.58764000E-02	-7.47679000E-03
					 6.03329000E-04	-1.93651000E-02	-6.46827000E-03
					 2.30347000E-04	-2.60715000E-02	-3.79651000E-03
					-5.96691000E-06	-2.63785000E-02	-1.10179000E-04
					-1.79222000E-04	-2.65930000E-02	 7.23941000E-03
					-7.17510000E-06	-2.62596000E-02	-1.07889000E-04
					-3.32973000E-04	-2.64667000E-02	 7.20081000E-03
					-3.57556000E-06	-1.97283000E-02	-6.82255000E-05
					-9.04750000E-05	-2.64479000E-02	 3.61949000E-03
					-3.45676000E-04	-1.99297000E-02	 6.33620000E-03
					 1.63745000E-04	-2.64832000E-02	-7.46542000E-03
					 3.15684000E-04	-2.63610000E-02	-7.42237000E-03
					 3.34103000E-04	-1.98417000E-02	-6.48143000E-03
					 7.77069000E-05	-2.63922000E-02	-3.84129000E-03
					 9.62311000E-07	-4.24770000E-02	-2.47686000E-04
					-5.05802000E-04	-4.27714000E-02	 9.48629000E-03
					 6.62588000E-07	-4.27768000E-02	-2.47557000E-04
					-1.01419000E-04	-4.30747000E-02	 9.48046000E-03
					-8.68195000E-06	-3.33601000E-02	-1.61789000E-04
					-2.51635000E-04	-4.25723000E-02	 4.62461000E-03
					-6.40868000E-04	-3.36128000E-02	 8.30454000E-03
					 1.29962000E-06	-4.26778000E-02	-2.47529000E-04
					-3.02394000E-04	-4.29742000E-02	 9.49758000E-03
					-7.42626000E-06	-3.38171000E-02	-1.65251000E-04
					-4.92594000E-05	-4.28744000E-02	 4.63762000E-03
					-2.82657000E-04	-3.40669000E-02	 8.29309000E-03
					 5.01266000E-04	-4.25865000E-02	-9.98885000E-03
					 9.81874000E-05	-4.28844000E-02	-9.98193000E-03
					 6.23223000E-04	-3.34707000E-02	-8.63318000E-03
					 2.51416000E-04	-4.24805000E-02	-5.12090000E-03
					 2.98639000E-04	-4.27851000E-02	-1.00009000E-02
					 2.66356000E-04	-3.39254000E-02	-8.62783000E-03
					 4.87436000E-05	-4.27777000E-02	-5.13430000E-03
					-1.27583000E-06	-4.26788000E-02	-2.41508000E-04
					 3.08045000E-04	-4.29723000E-02	 9.49308000E-03
					-2.89012000E-07	-4.27784000E-02	-2.45990000E-04
					 1.02844000E-04	-4.30759000E-02	 9.45961000E-03
					-6.57762000E-06	-3.39118000E-02	-1.64946000E-04
					 1.51718000E-04	-4.27747000E-02	 4.67139000E-03
					 8.11635000E-05	-3.41614000E-02	 8.30286000E-03
					-3.11396000E-04	-4.27793000E-02	-9.98151000E-03
					-1.05979000E-04	-4.28850000E-02	-9.95666000E-03
					-9.56761000E-05	-3.40166000E-02	-8.63618000E-03
					-1.54588000E-04	-4.26757000E-02	-5.15594000E-03
					 1.36877000E-05	-6.49686000E-02	-5.10374000E-04
					-3.49123000E-04	-6.53160000E-02	 1.20761000E-02
					 1.15743000E-05	-6.51101000E-02	-5.07494000E-04
					 6.24287000E-05	-6.54745000E-02	 1.20928000E-02
					 9.49615000E-06	-5.29467000E-02	-3.59614000E-04
					-1.62850000E-04	-6.50850000E-02	 5.74358000E-03
					-4.22422000E-04	-5.32700000E-02	 1.07991000E-02
					 1.31422000E-05	-6.50916000E-02	-5.10644000E-04
					-1.43057000E-04	-6.54517000E-02	 1.20962000E-02
					 8.11209000E-06	-5.31566000E-02	-3.59427000E-04
					 3.80096000E-05	-6.52352000E-02	 5.76500000E-03
					 3.56239000E-06	-5.34885000E-02	 1.07979000E-02
					 3.64192000E-04	-6.50104000E-02	-1.31046000E-02
					-4.86179000E-05	-6.51547000E-02	-1.31168000E-02
					 4.29773000E-04	-5.30308000E-02	-1.15279000E-02
					 1.86552000E-04	-6.49360000E-02	-6.76578000E-03
					 1.57669000E-04	-6.51370000E-02	-1.31250000E-02
					 4.16942000E-06	-5.32381000E-02	-1.15250000E-02
					-1.82073000E-05	-6.50760000E-02	-6.78132000E-03
					 7.69160000E-06	-6.48602000E-02	-4.96827000E-04
					 4.72696000E-04	-6.52197000E-02	 1.20873000E-02
					 9.60518000E-06	-6.50385000E-02	-5.03136000E-04
					 2.67166000E-04	-6.54028000E-02	 1.20921000E-02
					 4.52601000E-06	-5.29495000E-02	-3.51295000E-04
					 2.38117000E-04	-6.49850000E-02	 5.76536000E-03
					 4.36004000E-04	-5.32743000E-02	 1.08082000E-02
					-4.61507000E-04	-6.48934000E-02	-1.30903000E-02
					-2.54963000E-04	-6.50796000E-02	-1.31084000E-02
					-4.30425000E-04	-5.30186000E-02	-1.15172000E-02
					-2.23681000E-04	-6.48213000E-02	-6.76030000E-03
					 3.41052000E-05	-9.35135000E-02	-9.28669000E-04
					 1.94043000E-04	-9.37800000E-02	 1.35171000E-02
					 2.87338000E-05	-9.33019000E-02	-9.12541000E-04
					 2.94637000E-04	-9.35686000E-02	 1.35681000E-02
					 2.13479000E-05	-7.86588000E-02	-7.06334000E-04
					 1.13527000E-04	-9.36326000E-02	 6.17440000E-03
					-1.38818000E-04	-7.89683000E-02	 1.30486000E-02
					 3.22612000E-05	-9.34197000E-02	-9.19808000E-04
					 2.44784000E-04	-9.36883000E-02	 1.35915000E-02
					 1.75587000E-05	-7.86650000E-02	-6.95752000E-04
					 1.60455000E-04	-9.34228000E-02	 6.25183000E-03
					 1.46959000E-04	-7.89891000E-02	 1.30915000E-02
					-1.28219000E-04	-9.33516000E-02	-1.53683000E-02
					-2.30975000E-04	-9.31380000E-02	-1.53885000E-02
					 1.75157000E-04	-7.85927000E-02	-1.44609000E-02
					-4.58207000E-05	-9.34239000E-02	-8.02924000E-03
					-1.79239000E-04	-9.32543000E-02	-1.54261000E-02
					-1.13754000E-04	-7.86048000E-02	-1.44874000E-02
					-1.00895000E-04	-9.32106000E-02	-8.07558000E-03
					 2.38500000E-05	-9.29853000E-02	-8.96463000E-04
					 3.91067000E-04	-9.32486000E-02	 1.35487000E-02
					 2.52970000E-05	-9.31556000E-02	-9.05324000E-04
					 3.42023000E-04	-9.34196000E-02	 1.35540000E-02
					 1.33772000E-05	-7.83988000E-02	-6.80403000E-04
					 2.07757000E-04	-9.31032000E-02	 6.25916000E-03
					 4.23485000E-04	-7.87208000E-02	 1.30685000E-02
					-3.29405000E-04	-9.28360000E-02	-1.53386000E-02
					-2.79931000E-04	-9.29957000E-02	-1.53623000E-02
					-3.93814000E-04	-7.83400000E-02	-1.44376000E-02
					-1.56361000E-04	-9.29021000E-02	-8.05003000E-03
					 4.53766000E-05	-1.23413000E-01	-1.35496000E-03
					 7.72634000E-04	-1.23592000E-01	 1.29009000E-02
					 3.44722000E-05	-1.22727000E-01	-1.33718000E-03
					 6.83168000E-04	-1.22905000E-01	 1.29239000E-02
					 4.51312000E-05	-1.08651000E-01	-1.14877000E-03
					 4.06979000E-04	-1.23518000E-01	 5.74816000E-03
					 5.26994000E-04	-1.08876000E-01	 1.33479000E-02
					 4.27293000E-05	-1.23060000E-01	-1.34633000E-03
					 7.28844000E-04	-1.23237000E-01	 1.29365000E-02
					 3.66698000E-05	-1.08186000E-01	-1.13171000E-03
					 3.57982000E-04	-1.22835000E-01	 5.79550000E-03
					 4.90034000E-04	-1.08408000E-01	 1.33886000E-02
					-7.00197000E-04	-1.23172000E-01	-1.56161000E-02
					-6.14652000E-04	-1.22467000E-01	-1.56023000E-02
					-4.49171000E-04	-1.08441000E-01	-1.56407000E-02
					-3.21565000E-04	-1.23306000E-01	-8.46156000E-03
					-6.56012000E-04	-1.22803000E-01	-1.56332000E-02
					-4.12680000E-04	-1.07962000E-01	-1.56442000E-02
					-2.89150000E-04	-1.22608000E-01	-8.47268000E-03
					 2.26470000E-05	-1.22112000E-01	-1.32242000E-03
					 5.98453000E-04	-1.22285000E-01	 1.29435000E-02
					 2.61236000E-05	-1.22406000E-01	-1.32829000E-03
					 6.40031000E-04	-1.22582000E-01	 1.29074000E-02
					 2.79231000E-05	-1.07744000E-01	-1.11936000E-03
					 3.09869000E-04	-1.22215000E-01	 5.84176000E-03
					 4.51864000E-04	-1.07964000E-01	 1.33839000E-02
					-5.35075000E-04	-1.21864000E-01	-1.55926000E-02
					-5.75702000E-04	-1.22150000E-01	-1.55669000E-02
					-3.74999000E-04	-1.07541000E-01	-1.56128000E-02
					-2.59593000E-04	-1.21998000E-01	-8.49071000E-03
					 1.13689000E-05	-1.51553000E-01	-1.74050000E-03
					 8.55264000E-04	-1.51726000E-01	 1.21999000E-02
					 2.05025000E-05	-1.50737000E-01	-1.73285000E-03
					 8.50714000E-04	-1.50900000E-01	 1.22150000E-02
					 3.33868000E-05	-1.37601000E-01	-1.54785000E-03
					 4.30988000E-04	-1.51639000E-01	 5.25178000E-03
					 8.65729000E-04	-1.37794000E-01	 1.24874000E-02
					 1.57526000E-05	-1.51144000E-01	-1.74040000E-03
					 8.53455000E-04	-1.51307000E-01	 1.21974000E-02
					 2.60604000E-05	-1.36803000E-01	-1.53317000E-03
					 4.39195000E-04	-1.50816000E-01	 5.25983000E-03
					 8.07485000E-04	-1.36987000E-01	 1.25017000E-02
					-8.10501000E-04	-1.51353000E-01	-1.57206000E-02
					-7.99258000E-04	-1.50545000E-01	-1.57190000E-02
					-7.96768000E-04	-1.37386000E-01	-1.56108000E-02
					-4.00960000E-04	-1.51453000E-01	-8.74676000E-03
					-8.05203000E-04	-1.50948000E-01	-1.57136000E-02
					-7.50330000E-04	-1.36579000E-01	-1.55976000E-02
					-3.94194000E-04	-1.50642000E-01	-8.73614000E-03
					 3.15257000E-05	-1.49935000E-01	-1.70046000E-03
					 8.61877000E-04	-1.50091000E-01	 1.22726000E-02
					 2.52411000E-05	-1.50340000E-01	-1.71881000E-03
					 8.56142000E-04	-1.50498000E-01	 1.22377000E-02
					 1.99806000E-05	-1.36042000E-01	-1.50711000E-03
					 4.49396000E-04	-1.50010000E-01	 5.31015000E-03
					 7.66043000E-04	-1.36222000E-01	 1.25483000E-02
					-8.01387000E-04	-1.49741000E-01	-1.57153000E-02
					-8.01005000E-04	-1.50149000E-01	-1.57158000E-02
					-7.20883000E-04	-1.35821000E-01	-1.55960000E-02
					-3.86698000E-04	-1.49839000E-01	-8.72268000E-03
					 0.00000000E+00	 0.00000000E+00	 0.00000000E+00
					 0.00000000E+00	 0.00000000E+00	 0.00000000E+00
					 1.06822000E-04	-5.92757000E-03	-1.18142000E-04
					-1.76690000E-03	-6.46791000E-03	 7.11877000E-03
					 0.00000000E+00	 0.00000000E+00	 0.00000000E+00
					 0.00000000E+00	 0.00000000E+00	 0.00000000E+00
					 9.85306000E-05	-7.25852000E-03	-5.25447000E-05
					-7.08422000E-04	-7.83230000E-03	 7.23959000E-03
					 0.00000000E+00	 0.00000000E+00	 0.00000000E+00
					 3.81556000E-05	-8.53553000E-04	-4.94320000E-05
					-8.31808000E-04	-6.02316000E-03	 3.56176000E-03
					-1.43244000E-03	-1.49644000E-03	 3.46475000E-03
					 0.00000000E+00	 0.00000000E+00	 0.00000000E+00
					 0.00000000E+00	 0.00000000E+00	 0.00000000E+00
					 1.01246000E-04	-6.76548000E-03	-8.51182000E-05
					-1.23325000E-03	-7.31939000E-03	 7.09210000E-03
					 0.00000000E+00	 0.00000000E+00	 0.00000000E+00
					 2.58596000E-05	-1.73507000E-03	-1.37814000E-05
					-3.04066000E-04	-7.36381000E-03	 3.56584000E-03
					-3.62824000E-04	-2.37447000E-03	 3.38648000E-03
					 0.00000000E+00	 0.00000000E+00	 0.00000000E+00
					 1.96655000E-03	-6.35644000E-03	-7.36873000E-03
					 0.00000000E+00	 0.00000000E+00	 0.00000000E+00
					 9.02671000E-04	-7.70711000E-03	-7.36197000E-03
					 0.00000000E+00	 0.00000000E+00	 0.00000000E+00
					 1.49381000E-03	-1.47919000E-03	-3.56725000E-03
					 1.04181000E-03	-5.96274000E-03	-3.80322000E-03
					 0.00000000E+00	 0.00000000E+00	 0.00000000E+00
					 1.42921000E-03	-7.20059000E-03	-7.27671000E-03
					 0.00000000E+00	 0.00000000E+00	 0.00000000E+00
					 4.08086000E-04	-2.33784000E-03	-3.41365000E-03
					 5.00627000E-04	-7.29927000E-03	-3.67752000E-03
					 0.00000000E+00	 0.00000000E+00	 0.00000000E+00
					 0.00000000E+00	 0.00000000E+00	 0.00000000E+00
					 9.76051000E-05	-7.54029000E-03	 2.57753000E-05
					 3.67328000E-04	-8.08330000E-03	 7.26328000E-03
					 0.00000000E+00	 0.00000000E+00	 0.00000000E+00
					 0.00000000E+00	 0.00000000E+00	 0.00000000E+00
					 9.64056000E-05	-7.57095000E-03	-1.72074000E-05
					-1.77205000E-04	-8.12535000E-03	 7.30821000E-03
					 0.00000000E+00	 0.00000000E+00	 0.00000000E+00
					 2.65470000E-05	-1.62423000E-03	 2.82157000E-05
					 2.34998000E-04	-7.63422000E-03	 3.55797000E-03
					 7.47739000E-04	-2.25915000E-03	 3.54479000E-03
					 0.00000000E+00	 0.00000000E+00	 0.00000000E+00
					-1.70750000E-04	-7.94560000E-03	-7.22797000E-03
					 0.00000000E+00	 0.00000000E+00	 0.00000000E+00
					 3.67334000E-04	-7.99655000E-03	-7.36004000E-03
					 0.00000000E+00	 0.00000000E+00	 0.00000000E+00
					-6.97833000E-04	-2.19995000E-03	-3.48895000E-03
					-3.68356000E-05	-7.56637000E-03	-3.51196000E-03
					 3.50413000E-04	-2.71428000E-02	-4.13022000E-04
					-2.37178000E-03	-2.78180000E-02	 1.38246000E-02
					 3.47388000E-04	-2.93790000E-02	-3.35069000E-04
					-1.42352000E-03	-3.00576000E-02	 1.39306000E-02
					 2.16883000E-04	-1.47160000E-02	-2.29236000E-04
					-1.00943000E-03	-2.73693000E-02	 6.71722000E-03
					-2.09612000E-03	-1.53646000E-02	 1.06345000E-02
					 3.48782000E-04	-2.83729000E-02	-3.77733000E-04
					-1.89586000E-03	-2.90468000E-02	 1.38177000E-02
					 2.06195000E-04	-1.65016000E-02	-1.52532000E-04
					-5.31304000E-04	-2.96044000E-02	 6.75357000E-03
					-1.05303000E-03	-1.71529000E-02	 1.07323000E-02
					 3.06595000E-03	-2.73968000E-02	-1.46859000E-02
					 2.10827000E-03	-2.96382000E-02	-1.46355000E-02
					 2.51908000E-03	-1.51174000E-02	-1.11210000E-02
					 1.70653000E-03	-2.71563000E-02	-7.55258000E-03
					 2.58862000E-03	-2.86339000E-02	-1.46050000E-02
					 1.46115000E-03	-1.69006000E-02	-1.10645000E-02
					 1.22749000E-03	-2.93955000E-02	-7.42914000E-03
					 3.39521000E-04	-3.06819000E-02	-2.25985000E-04
					-4.40062000E-04	-3.13273000E-02	 1.40098000E-02
					 3.43383000E-04	-3.01379000E-02	-2.84691000E-04
					-9.31397000E-04	-3.08400000E-02	 1.40578000E-02
					 1.99531000E-04	-1.72371000E-02	-5.40352000E-05
					-6.16674000E-05	-3.08865000E-02	 6.75735000E-03
					 4.97033000E-06	-1.78800000E-02	 1.08120000E-02
					 1.14194000E-03	-3.09173000E-02	-1.44967000E-02
					 1.62348000E-03	-3.03927000E-02	-1.46661000E-02
					 4.06285000E-04	-1.76271000E-02	-1.09437000E-02
					 7.47863000E-04	-3.06853000E-02	-7.21278000E-03
					 6.94955000E-04	-6.11274000E-02	-1.03332000E-03
					-3.14279000E-03	-6.17625000E-02	 1.84396000E-02
					 7.11330000E-04	-6.46431000E-02	-9.75273000E-04
					-2.53657000E-03	-6.53829000E-02	 1.85418000E-02
					 5.13141000E-04	-4.28170000E-02	-6.81235000E-04
					-1.22037000E-03	-6.13684000E-02	 8.71703000E-03
					-2.68400000E-03	-4.35080000E-02	 1.64720000E-02
					 7.04326000E-04	-6.29631000E-02	-1.00258000E-03
					-2.83951000E-03	-6.36586000E-02	 1.83740000E-02
					 5.17002000E-04	-4.56196000E-02	-6.10532000E-04
					-9.37211000E-04	-6.49354000E-02	 8.66776000E-03
					-1.90297000E-03	-4.63143000E-02	 1.65885000E-02
					 4.49915000E-03	-6.10227000E-02	-2.05143000E-02
					 3.95973000E-03	-6.45572000E-02	-2.05364000E-02
					 3.69957000E-03	-4.29107000E-02	-1.78684000E-02
					 2.59835000E-03	-6.10011000E-02	-1.07800000E-02
					 4.22573000E-03	-6.28634000E-02	-2.04143000E-02
					 2.93641000E-03	-4.57018000E-02	-1.78458000E-02
					 2.33661000E-03	-6.45339000E-02	-1.06441000E-02
					 7.16549000E-04	-6.76172000E-02	-8.94976000E-04
					-2.02824000E-03	-6.84609000E-02	 1.85705000E-02
					 7.15781000E-04	-6.62151000E-02	-9.42088000E-04
					-2.28619000E-03	-6.68857000E-02	 1.87266000E-02
					 5.24022000E-04	-4.76590000E-02	-5.07695000E-04
					-6.27381000E-04	-6.79611000E-02	 8.54657000E-03
					-1.12982000E-03	-4.83602000E-02	 1.66450000E-02
					 3.41851000E-03	-6.75519000E-02	-2.04319000E-02
					 3.69207000E-03	-6.61173000E-02	-2.06594000E-02
					 2.13757000E-03	-4.77177000E-02	-1.77002000E-02
					 2.06170000E-03	-6.75329000E-02	-1.03844000E-02
					 1.15531000E-03	-1.02635000E-01	-1.88800000E-03
					-3.94308000E-03	-1.03054000E-01	 1.96445000E-02