<?xml version="1.0"?>
<VTKFile type="UnstructuredGrid" version="0.1" byte_order="LittleEndian">
	<UnstructuredGrid>
		<Piece NumberOfPoints="522" NumberOfCells="64">
			<Points>
				<DataArray type="Float64" NumberOfComponents="3" format="ascii">
					 1.00000000E+00	 1.00000000E+00	-5.96046000E-08
					 1.00000000E+00	 5.00000000E-01	-5.96046000E-08
					 1.00000000E+00	 5.00000000E-01	 1.00000000E+00
					 1.00000000E+00	 1.00000000E+00	 1.00000000E+00
					 5.00000000E-01	 1.00000000E+00	-5.96046000E-08
					 5.00000000E-01	 5.00000000E-01	-5.96046000E-08
					 5.00000000E-01	 5.00000000E-01	 1.00000000E+00
					 5.00000000E-01	 1.00000000E+00	 1.00000000E+00
					 1.00000000E+00	 7.50000000E-01	-5.96046000E-08
					 1.00000000E+00	 5.00000000E-01	 5.00000000E-01
					 1.00000000E+00	 7.50000000E-01	 1.00000000E+00
					 1.00000000E+00	 1.00000000E+00	 5.00000000E-01
					 7.50000000E-01	 1.00000000E+00	-5.96046000E-08
					 7.50000000E-01	 5.00000000E-01	-5.96046000E-08
					 7.50000000E-01	 5.00000000E-01	 1.00000000E+00
					 7.50000000E-01	 1.00000000E+00	 1.00000000E+00
					 5.00000000E-01	 7.50000000E-01	-5.96046000E-08
					 5.00000000E-01	 5.00000000E-01	 5.00000000E-01
					 5.00000000E-01	 7.50000000E-01	 1.00000000E+00
					 5.00000000E-01	 1.00000000E+00	 5.00000000E-01
					 1.00000000E+00	-1.49012000E-08	-5.96046000E-08
					 1.00000000E+00	-1.49012000E-08	 1.00000000E+00
					 5.00000000E-01	-1.49012000E-08	-5.96046000E-08
					 5.00000000E-01	-1.49012000E-08	 1.00000000E+00
					 1.00000000E+00	 2.50000000E-01	-5.96046000E-08
					 1.00000000E+00	-1.49012000E-08	 5.00000000E-01
					 1.00000000E+00	 2.50000000E-01	 1.00000000E+00
					 7.50000000E-01	-1.49012000E-08	-5.96046000E-08
					 7.50000000E-01	-1.49012000E-08	 1.00000000E+00
					 5.00000000E-01	 2.50000000E-01	-5.96046000E-08
					 5.00000000E-01	-1.49012000E-08	 5.00000000E-01
					 5.00000000E-01	 2.50000000E-01	 1.00000000E+00
					-7.45058000E-09	 1.00000000E+00	-5.96046000E-08
					-7.45058000E-09	 5.00000000E-01	-5.96046000E-08
					-7.45058000E-09	 5.00000000E-01	 1.00000000E+00
					-7.45058000E-09	 1.00000000E+00	 1.00000000E+00
					 2.50000000E-01	 1.00000000E+00	-5.96046000E-08
					 2.50000000E-01	 5.00000000E-01	-5.96046000E-08
					 2.50000000E-01	 5.00000000E-01	 1.00000000E+00
					 2.50000000E-01	 1.00000000E+00	 1.00000000E+00
					-7.45058000E-09	 7.50000000E-01	-5.96046000E-08
					-7.45058000E-09	 5.00000000E-01	 5.00000000E-01
					-7.45058000E-09	 7.50000000E-01	 1.00000000E+00
					-7.45058000E-09	 1.00000000E+00	 5.00000000E-01
					-7.45058000E-09	-1.49012000E-08	-5.96046000E-08
					-7.45058000E-09	-1.49012000E-08	 1.00000000E+00
					 2.50000000E-01	-1.49012000E-08	-5.96046000E-08
					 2.50000000E-01	-1.49012000E-08	 1.00000000E+00
					-7.45058000E-09	 2.50000000E-01	-5.96046000E-08
					-7.45058000E-09	-1.49012000E-08	 5.00000000E-01
					-7.45058000E-09	 2.50000000E-01	 1.00000000E+00
					 1.00000000E+00	 5.00000000E-01	 2.00000000E+00
					 1.00000000E+00	 1.00000000E+00	 2.00000000E+00
					 5.00000000E-01	 5.00000000E-01	 2.00000000E+00
					 5.00000000E-01	 1.00000000E+00	 2.00000000E+00
					 1.00000000E+00	 5.00000000E-01	 1.50000000E+00
					 1.00000000E+00	 7.50000000E-01	 2.00000000E+00
					 1.00000000E+00	 1.00000000E+00	 1.50000000E+00
					 7.50000000E-01	 5.00000000E-01	 2.00000000E+00
					 7.50000000E-01	 1.00000000E+00	 2.00000000E+00
					 5.00000000E-01	 5.00000000E-01	 1.50000000E+00
					 5.00000000E-01	 7.50000000E-01	 2.00000000E+00
					 5.00000000E-01	 1.00000000E+00	 1.50000000E+00
					 1.00000000E+00	-1.49012000E-08	 2.00000000E+00
					 5.00000000E-01	-1.49012000E-08	 2.00000000E+00
					 1.00000000E+00	-1.49012000E-08	 1.50000000E+00
					 1.00000000E+00	 2.50000000E-01	 2.00000000E+00
					 7.50000000E-01	-1.49012000E-08	 2.00000000E+00
					 5.00000000E-01	-1.49012000E-08	 1.50000000E+00
					 5.00000000E-01	 2.50000000E-01	 2.00000000E+00
					-7.45058000E-09	 5.00000000E-01	 2.00000000E+00
					-7.45058000E-09	 1.00000000E+00	 2.00000000E+00
					 2.50000000E-01	 5.00000000E-01	 2.00000000E+00
					 2.50000000E-01	 1.00000000E+00	 2.00000000E+00
					-7.45058000E-09	 5.00000000E-01	 1.50000000E+00
					-7.45058000E-09	 7.50000000E-01	 2.00000000E+00
					-7.45058000E-09	 1.00000000E+00	 1.50000000E+00
					-7.45058000E-09	-1.49012000E-08	 2.00000000E+00
					 2.50000000E-01	-1.49012000E-08	 2.00000000E+00
					-7.45058000E-09	-1.49012000E-08	 1.50000000E+00
					-7.45058000E-09	 2.50000000E-01	 2.00000000E+00
					 1.00000000E+00	 5.00000000E-01	 3.00000000E+00
					 1.00000000E+00	 1.00000000E+00	 3.00000000E+00
					 5.00000000E-01	 5.00000000E-01	 3.00000000E+00
					 5.00000000E-01	 1.00000000E+00	 3.00000000E+00
					 1.00000000E+00	 5.00000000E-01	 2.50000000E+00
					 1.00000000E+00	 7.50000000E-01	 3.00000000E+00
					 1.00000000E+00	 1.00000000E+00	 2.50000000E+00
					 7.50000000E-01	 5.00000000E-01	 3.00000000E+00
					 7.50000000E-01	 1.00000000E+00	 3.00000000E+00
					 5.00000000E-01	 5.00000000E-01	 2.50000000E+00
					 5.00000000E-01	 7.50000000E-01	 3.00000000E+00
					 5.00000000E-01	 1.00000000E+00	 2.50000000E+00
					 1.00000000E+00	-1.49012000E-08	 3.00000000E+00
					 5.00000000E-01	-1.49012000E-08	 3.00000000E+00
					 1.00000000E+00	-1.49012000E-08	 2.50000000E+00
					 1.00000000E+00	 2.50000000E-01	 3.00000000E+00
					 7.50000000E-01	-1.49012000E-08	 3.00000000E+00
					 5.00000000E-01	-1.49012000E-08	 2.50000000E+00
					 5.00000000E-01	 2.50000000E-01	 3.00000000E+00
					-7.45058000E-09	 5.00000000E-01	 3.00000000E+00
					-7.45058000E-09	 1.00000000E+00	 3.00000000E+00
					 2.50000000E-01	 5.00000000E-01	 3.00000000E+00
					 2.50000000E-01	 1.00000000E+00	 3.00000000E+00
					-7.45058000E-09	 5.00000000E-01	 2.50000000E+00
					-7.45058000E-09	 7.50000000E-01	 3.00000000E+00
					-7.45058000E-09	 1.00000000E+00	 2.50000000E+00
					-7.45058000E-09	-1.49012000E-08	 3.00000000E+00
					 2.50000000E-01	-1.49012000E-08	 3.00000000E+00
					-7.45058000E-09	-1.49012000E-08	 2.50000000E+00
					-7.45058000E-09	 2.50000000E-01	 3.00000000E+00
					 1.00000000E+00	 5.00000000E-01	 4.00000000E+00
					 1.00000000E+00	 1.00000000E+00	 4.00000000E+00
					 5.00000000E-01	 5.00000000E-01	 4.00000000E+00
					 5.00000000E-01	 1.00000000E+00	 4.00000000E+00
					 1.00000000E+00	 5.00000000E-01	 3.50000000E+00
					 1.00000000E+00	 7.50000000E-01	 4.00000000E+00
					 1.00000000E+00	 1.00000000E+00	 3.50000000E+00
					 7.50000000E-01	 5.00000000E-01	 4.00000000E+00
					 7.50000000E-01	 1.00000000E+00	 4.00000000E+00
					 5.00000000E-01	 5.00000000E-01	 3.50000000E+00
					 5.00000000E-01	 7.50000000E-01	 4.00000000E+00
					 5.00000000E-01	 1.00000000E+00	 3.50000000E+00
					 1.00000000E+00	-1.49012000E-08	 4.00000000E+00
					 5.00000000E-01	-1.49012000E-08	 4.00000000E+00
					 1.00000000E+00	-1.49012000E-08	 3.50000000E+00
					 1.00000000E+00	 2.50000000E-01	 4.00000000E+00
					 7.50000000E-01	-1.49012000E-08	 4.00000000E+00
					 5.00000000E-01	-1.49012000E-08	 3.50000000E+00
					 5.00000000E-01	 2.50000000E-01	 4.00000000E+00
					-7.45058000E-09	 5.00000000E-01	 4.00000000E+00
					-7.45058000E-09	 1.00000000E+00	 4.00000000E+00
					 2.50000000E-01	 5.00000000E-01	 4.00000000E+00
					 2.50000000E-01	 1.00000000E+00	 4.00000000E+00
					-7.45058000E-09	 5.00000000E-01	 3.50000000E+00
					-7.45058000E-09	 7.50000000E-01	 4.00000000E+00
					-7.45058000E-09	 1.00000000E+00	 3.50000000E+00
					-7.45058000E-09	-1.49012000E-08	 4.00000000E+00
					 2.50000000E-01	-1.49012000E-08	 4.00000000E+00
					-7.45058000E-09	-1.49012000E-08	 3.50000000E+00
					-7.45058000E-09	 2.50000000E-01	 4.00000000E+00
					 1.00000000E+00	 5.00000000E-01	 5.00000000E+00
					 1.00000000E+00	 1.00000000E+00	 5.00000000E+00
					 5.00000000E-01	 5.00000000E-01	 5.00000000E+00
					 5.00000000E-01	 1.00000000E+00	 5.00000000E+00
					 1.00000000E+00	 5.00000000E-01	 4.50000000E+00
					 1.00000000E+00	 7.50000000E-01	 5.00000000E+00
					 1.00000000E+00	 1.00000000E+00	 4.50000000E+00
					 7.50000000E-01	 5.00000000E-01	 5.00000000E+00
					 7.50000000E-01	 1.00000000E+00	 5.00000000E+00
					 5.00000000E-01	 5.00000000E-01	 4.50000000E+00
					 5.00000000E-01	 7.50000000E-01	 5.00000000E+00
					 5.00000000E-01	 1.00000000E+00	 4.50000000E+00
					 1.00000000E+00	-1.49012000E-08	 5.00000000E+00
					 5.00000000E-01	-1.49012000E-08	 5.00000000E+00
					 1.00000000E+00	-1.49012000E-08	 4.50000000E+00
					 1.00000000E+00	 2.50000000E-01	 5.00000000E+00
					 7.50000000E-01	-1.49012000E-08	 5.00000000E+00
					 5.00000000E-01	-1.49012000E-08	 4.50000000E+00
					 5.00000000E-01	 2.50000000E-01	 5.00000000E+00
					-7.45058000E-09	 5.00000000E-01	 5.00000000E+00
					-7.45058000E-09	 1.00000000E+00	 5.00000000E+00
					 2.50000000E-01	 5.00000000E-01	 5.00000000E+00
					 2.50000000E-01	 1.00000000E+00	 5.00000000E+00
					-7.45058000E-09	 5.00000000E-01	 4.50000000E+00
					-7.45058000E-09	 7.50000000E-01	 5.00000000E+00
					-7.45058000E-09	 1.00000000E+00	 4.50000000E+00
					-7.45058000E-09	-1.49012000E-08	 5.00000000E+00
					 2.50000000E-01	-1.49012000E-08	 5.00000000E+00
					-7.45058000E-09	-1.49012000E-08	 4.50000000E+00
					-7.45058000E-09	 2.50000000E-01	 5.00000000E+00
					 1.00000000E+00	 5.00000000E-01	 6.00000000E+00
					 1.00000000E+00	 1.00000000E+00	 6.00000000E+00
					 5.00000000E-01	 5.00000000E-01	 6.00000000E+00
					 5.00000000E-01	 1.00000000E+00	 6.00000000E+00
					 1.00000000E+00	 5.00000000E-01	 5.50000000E+00
					 1.00000000E+00	 7.50000000E-01	 6.00000000E+00
					 1.00000000E+00	 1.00000000E+00	 5.50000000E+00
					 7.50000000E-01	 5.00000000E-01	 6.00000000E+00
					 7.50000000E-01	 1.00000000E+00	 6.00000000E+00
					 5.00000000E-01	 5.00000000E-01	 5.50000000E+00
					 5.00000000E-01	 7.50000000E-01	 6.00000000E+00
					 5.00000000E-01	 1.00000000E+00	 5.50000000E+00
					 1.00000000E+00	-1.49012000E-08	 6.00000000E+00
[...]
			<PointData>
				<DataArray type="Float32" Name="U" NumberOfComponents="3" ComponentName0="D1" ComponentName1="D2" ComponentName2="D3" format="ascii">
					 0.00000000E+00	 0.00000000E+00	 0.00000000E+00
					 0.00000000E+00	 0.00000000E+00	 0.00000000E+00
					 9.40180000E-06	 1.42991000E-03	-7.85277000E-05
					 1.09391000E-03	 1.60474000E-03	-2.44616000E-03
					 0.00000000E+00	 0.00000000E+00	 0.00000000E+00
					 0.00000000E+00	 0.00000000E+00	 0.00000000E+00
					-2.11676000E-06	 2.34143000E-03	-8.21397000E-05
					 7.29471000E-04	 2.51866000E-03	-2.45912000E-03
					 0.00000000E+00	 0.00000000E+00	 0.00000000E+00
					 1.00806000E-05	 6.94566000E-05	-3.59504000E-05
					 5.55281000E-04	 1.45953000E-03	-1.34077000E-03
					 7.14293000E-04	 2.99185000E-04	-1.18021000E-03
					 0.00000000E+00	 0.00000000E+00	 0.00000000E+00
					 0.00000000E+00	 0.00000000E+00	 0.00000000E+00
					 3.81970000E-06	 1.94319000E-03	-8.03644000E-05
					 9.09721000E-04	 2.11542000E-03	-2.37865000E-03
					 0.00000000E+00	 0.00000000E+00	 0.00000000E+00
					-2.11254000E-06	 5.95230000E-04	-3.54106000E-05
					 3.62766000E-04	 2.37061000E-03	-1.27513000E-03
					 3.61704000E-04	 8.10049000E-04	-1.14090000E-03
					 0.00000000E+00	 0.00000000E+00	 0.00000000E+00
					-1.07696000E-03	 1.59724000E-03	 2.28877000E-03
					 0.00000000E+00	 0.00000000E+00	 0.00000000E+00
					-7.33105000E-04	 2.51018000E-03	 2.29457000E-03
					 0.00000000E+00	 0.00000000E+00	 0.00000000E+00
					-6.94960000E-04	 2.80071000E-04	 1.10384000E-03
					-5.37277000E-04	 1.45639000E-03	 1.18374000E-03
					 0.00000000E+00	 0.00000000E+00	 0.00000000E+00
					-9.02547000E-04	 2.10735000E-03	 2.21803000E-03
					 0.00000000E+00	 0.00000000E+00	 0.00000000E+00
					-3.65644000E-04	 7.90531000E-04	 1.06616000E-03
					-3.66821000E-04	 2.36669000E-03	 1.11114000E-03
					 0.00000000E+00	 0.00000000E+00	 0.00000000E+00
					 0.00000000E+00	 0.00000000E+00	 0.00000000E+00
					-1.41533000E-05	 2.89261000E-03	-8.34181000E-05
					 3.54580000E-04	 3.05857000E-03	-2.45091000E-03
					 0.00000000E+00	 0.00000000E+00	 0.00000000E+00
					 0.00000000E+00	 0.00000000E+00	 0.00000000E+00
					-8.11028000E-06	 2.67295000E-03	-8.27318000E-05
					 5.43301000E-04	 2.84484000E-03	-2.51261000E-03
					 0.00000000E+00	 0.00000000E+00	 0.00000000E+00
					-1.47347000E-05	 7.96844000E-04	-3.83324000E-05
					 1.69404000E-04	 2.91743000E-03	-1.21411000E-03
					-1.91589000E-05	 9.99422000E-04	-1.18229000E-03
					 0.00000000E+00	 0.00000000E+00	 0.00000000E+00
					-3.79968000E-04	 3.04919000E-03	 2.28414000E-03
					 0.00000000E+00	 0.00000000E+00	 0.00000000E+00
					-5.57943000E-04	 2.83675000E-03	 2.34659000E-03
					 0.00000000E+00	 0.00000000E+00	 0.00000000E+00
					-9.03858000E-06	 9.79158000E-04	 1.10190000E-03
					-1.96553000E-04	 2.91234000E-03	 1.04802000E-03
					 1.33446000E-05	 7.83095000E-03	-1.74724000E-04
					 1.95088000E-03	 8.04057000E-03	-5.37443000E-03
					 4.00542000E-06	 9.52019000E-03	-1.87502000E-04
					 1.45710000E-03	 9.73856000E-03	-5.37715000E-03
					 1.11502000E-05	 3.92683000E-03	-1.23215000E-04
					 9.79895000E-04	 7.87618000E-03	-2.84888000E-03
					 1.53078000E-03	 4.13656000E-03	-3.82817000E-03
					 9.00788000E-06	 8.73307000E-03	-1.81636000E-04
					 1.70487000E-03	 8.94999000E-03	-5.32163000E-03
					 2.36579000E-07	 5.23449000E-03	-1.30136000E-04
					 7.30734000E-04	 9.57071000E-03	-2.80408000E-03
					 1.09690000E-03	 5.44706000E-03	-3.82333000E-03
					-1.92450000E-03	 8.08445000E-03	 5.02128000E-03
					-1.44672000E-03	 9.77864000E-03	 4.99832000E-03
					-1.50930000E-03	 4.14813000E-03	 3.58007000E-03
					-9.53587000E-04	 7.90018000E-03	 2.49825000E-03
					-1.68567000E-03	 8.99117000E-03	 4.95501000E-03
					-1.09496000E-03	 5.45672000E-03	 3.56139000E-03
					-7.22083000E-04	 9.59182000E-03	 2.42811000E-03
					-7.28186000E-06	 1.07349000E-02	-1.94996000E-04
					 9.64368000E-04	 1.09519000E-02	-5.39466000E-03
					-1.58815000E-06	 1.01860000E-02	-1.92063000E-04
					 1.21080000E-03	 1.04031000E-02	-5.42820000E-03
					-1.20703000E-05	 6.11883000E-03	-1.33873000E-04
					 4.78573000E-04	 1.07854000E-02	-2.77310000E-03
					 6.68314000E-04	 6.33811000E-03	-3.83895000E-03
					-9.74247000E-04	 1.09873000E-02	 5.00102000E-03
					-1.21051000E-03	 1.04420000E-02	 5.04001000E-03
					-6.88814000E-04	 6.34417000E-03	 3.56933000E-03
					-4.91605000E-04	 1.08030000E-02	 2.38242000E-03
					 2.88539000E-05	 2.09054000E-02	-3.24249000E-04
					 2.65930000E-03	 2.10665000E-02	-8.87855000E-03
					 2.53891000E-05	 2.32887000E-02	-3.57138000E-04
					 2.17521000E-03	 2.34584000E-02	-8.92439000E-03
					 1.95599000E-05	 1.34383000E-02	-2.40233000E-04
					 1.34180000E-03	 2.09221000E-02	-4.61633000E-03
					 2.32993000E-03	 1.36314000E-02	-7.11778000E-03
					 2.77992000E-05	 2.21592000E-02	-3.41263000E-04
					 2.41794000E-03	 2.23265000E-02	-8.85982000E-03
					 1.23383000E-05	 1.54891000E-02	-2.61076000E-04
					 1.09952000E-03	 2.33094000E-02	-4.61166000E-03
					 1.81488000E-03	 1.56903000E-02	-7.13856000E-03
					-2.59901000E-03	 2.12153000E-02	 8.22210000E-03
					-2.11998000E-03	 2.35987000E-02	 8.20166000E-03
					-2.28983000E-03	 1.37212000E-02	 6.63134000E-03
					-1.28385000E-03	 2.09974000E-02	 3.96553000E-03
					-2.35857000E-03	 2.24698000E-02	 8.16961000E-03
					-1.78697000E-03	 1.57742000E-02	 6.61018000E-03
					-1.04770000E-03	 2.33791000E-02	 3.89540000E-03
					 1.73649000E-05	 2.52003000E-02	-3.79985000E-04
					 1.68448000E-03	 2.53685000E-02	-8.93463000E-03
					 2.19305000E-05	 2.43063000E-02	-3.70631000E-04
					 1.93019000E-03	 2.44763000E-02	-8.99016000E-03
					 1.90140000E-06	 1.70402000E-02	-2.73832000E-04
					 8.52590000E-04	 2.52221000E-02	-4.57149000E-03
					 1.29618000E-03	 1.72393000E-02	-7.15154000E-03
					-1.64334000E-03	 2.54989000E-02	 8.16621000E-03
					-1.88114000E-03	 2.46140000E-02	 8.23978000E-03
					-1.28724000E-03	 1.73165000E-02	 6.59757000E-03
					-8.16022000E-04	 2.52848000E-02	 3.81002000E-03
					 3.53725000E-05	 4.06526000E-02	-5.51955000E-04
					 3.21298000E-03	 4.06764000E-02	-1.17155000E-02
					 3.98626000E-05	 4.36867000E-02	-6.21962000E-04
					 2.92475000E-03	 4.37082000E-02	-1.18002000E-02
					 3.63716000E-05	 3.01279000E-02	-4.28198000E-04
					 1.62607000E-03	 4.06299000E-02	-6.14855000E-03
					 2.93147000E-03	 3.02197000E-02	-1.04286000E-02
					 3.81760000E-05	 4.22057000E-02	-5.88243000E-04
					 3.06931000E-03	 4.22269000E-02	-1.17123000E-02
					 3.65577000E-05	 3.28256000E-02	-4.78637000E-04
					 1.48144000E-03	 4.36646000E-02	-6.17709000E-03
					 2.54152000E-03	 3.29212000E-02	-1.05007000E-02
					-3.13791000E-03	 4.09398000E-02	 1.06052000E-02
					-2.84043000E-03	 4.39626000E-02	 1.05506000E-02
					-2.85465000E-03	 3.04280000E-02	 9.56407000E-03
					-1.55428000E-03	 4.07621000E-02	 5.04289000E-03
					-2.98842000E-03	 4.24838000E-02	 1.05299000E-02
					-2.46341000E-03	 3.31197000E-02	 9.53529000E-03
					-1.40056000E-03	 4.37901000E-02	 4.93162000E-03
					 3.92962000E-05	 4.64164000E-02	-6.83357000E-04
					 2.62736000E-03	 4.64456000E-02	-1.18466000E-02
					 4.02568000E-05	 4.50871000E-02	-6.53532000E-04
					 2.77652000E-03	 4.51100000E-02	-1.18910000E-02
					 3.17107000E-05	 3.51321000E-02	-5.19150000E-04
					 1.33132000E-03	 4.63986000E-02	-6.16634000E-03
					 2.14342000E-03	 3.52313000E-02	-1.05196000E-02
					-2.54370000E-03	 4.66899000E-02	 1.04744000E-02
					-2.69135000E-03	 4.53624000E-02	 1.05783000E-02
					-2.07367000E-03	 3.54182000E-02	 9.47344000E-03
					-1.25131000E-03	 4.65163000E-02	 4.79816000E-03
					 1.89135000E-05	 6.39370000E-02	-8.37820000E-04
					 4.07240000E-03	 6.38939000E-02	-1.37512000E-02
					 3.21861000E-05	 6.78486000E-02	-9.48769000E-04
					 3.80717000E-03	 6.78103000E-02	-1.38549000E-02
					 2.85591000E-05	 5.19759000E-02	-6.90324000E-04
					 2.04602000E-03	 6.38791000E-02	-7.39342000E-03
					 3.58944000E-03	 5.19701000E-02	-1.27439000E-02
					 2.62499000E-05	 6.59272000E-02	-8.93403000E-04
					 3.94049000E-03	 6.58875000E-02	-1.37231000E-02
					 3.70125000E-05	 5.54143000E-02	-7.79147000E-04
					 1.91889000E-03	 6.77955000E-02	-7.42251000E-03
					 3.34565000E-03	 5.54032000E-02	-1.28344000E-02
					-4.02906000E-03	 6.42620000E-02	 1.20705000E-02
					-3.73659000E-03	 6.81659000E-02	 1.19520000E-02
					-3.52814000E-03	 5.22819000E-02	 1.13577000E-02
					-2.00691000E-03	 6.40684000E-02	 5.71582000E-03
					-3.88198000E-03	 6.62454000E-02	 1.19318000E-02
					-3.26682000E-03	 5.57061000E-02	 1.12711000E-02
					-1.85290000E-03	 6.79745000E-02	 5.52349000E-03
					 3.94774000E-05	 7.14777000E-02	-1.05179000E-03
					 3.53781000E-03	 7.14486000E-02	-1.39660000E-02
					 3.65570000E-05	 6.96974000E-02	-1.00203000E-03
					 3.67316000E-03	 6.96613000E-02	-1.39776000E-02
					 4.02984000E-05	 5.85863000E-02	-8.60390000E-04
					 1.78704000E-03	 7.14305000E-02	-7.46229000E-03
					 3.08942000E-03	 5.85823000E-02	-1.29139000E-02
					-3.45207000E-03	 7.17924000E-02	 1.18563000E-02
					-3.59365000E-03	 7.00145000E-02	 1.19671000E-02
					-3.00362000E-03	 5.88760000E-02	 1.11880000E-02
					-1.70620000E-03	 7.16002000E-02	 5.35758000E-03
					-2.21696000E-05	 9.08496000E-02	-1.18413000E-03
					 4.95927000E-03	 9.07473000E-02	-1.62591000E-02
					 1.15890000E-06	 9.56373000E-02	-1.35706000E-03
					 4.63130000E-03	 9.55595000E-02	-1.64385000E-02
					 4.15752000E-06	 7.67558000E-02	-9.96882000E-04
					 2.46246000E-03	 9.07508000E-02	-8.75523000E-03
					 4.58026000E-03	 7.66843000E-02	-1.49460000E-02
					-9.28383000E-06	 9.32863000E-02	-1.27218000E-03
					 4.79733000E-03	 9.32032000E-02	-1.63055000E-02
					 2.24549000E-05	 8.11533000E-02	-1.13767000E-03
					 2.31601000E-03	 9.55517000E-02	-8.88593000E-03
					 4.26533000E-03	 8.10998000E-02	-1.50798000E-02
					-4.99499000E-03	 9.12606000E-02	 1.38804000E-02
					-4.61988000E-03	 9.60538000E-02	 1.37136000E-02
					-4.56408000E-03	 7.71225000E-02	 1.29453000E-02
					-2.50512000E-03	 9.10100000E-02	 6.38476000E-03
					-4.80671000E-03	 9.37041000E-02	 1.37503000E-02
					-4.21211000E-03	 8.15202000E-02	 1.27966000E-02
					-2.31161000E-03	 9.57986000E-02	 6.16937000E-03
					 1.55003000E-05	 1.00095000E-01	-1.51870000E-03
					 4.31144000E-03	 1.00029000E-01	-1.65943000E-02
					 9.59548000E-06	 9.79115000E-02	-1.43927000E-03
					 4.47295000E-03	 9.78369000E-02	-1.65685000E-02
					 3.29439000E-05	 8.52289000E-02	-1.26876000E-03
					 2.16296000E-03	 1.00019000E-01	-8.99457000E-03
					 3.95367000E-03	 8.51854000E-02	-1.52192000E-02
					-4.27070000E-03	 1.00505000E-01	 1.35465000E-02
					-4.44464000E-03	 9.83253000E-02	 1.36793000E-02
					-3.87878000E-03	 8.55897000E-02	 1.26733000E-02
					-2.12951000E-03	 1.00253000E-01	 5.95470000E-03
					-9.71543000E-05	 1.23278000E-01	-1.69541000E-03
					 4.95744000E-03	 1.23046000E-01	-1.85724000E-02
					-7.16454000E-05	 1.28242000E-01	-1.90190000E-03
					 4.81302000E-03	 1.28017000E-01	-1.88006000E-02
					-5.79086000E-05	 1.06451000E-01	-1.41724000E-03
					 2.42867000E-03	 1.23144000E-01	-1.00631000E-02
					 5.07931000E-03	 1.06274000E-01	-1.75282000E-02
					-8.41945000E-05	 1.25780000E-01	-1.80015000E-03
					 4.88570000E-03	 1.25552000E-01	-1.87125000E-02
					-3.25475000E-05	 1.11427000E-01	-1.61376000E-03
					 2.37043000E-03	 1.28111000E-01	-1.03014000E-02
					 4.81655000E-03	 1.11274000E-01	-1.77453000E-02
					-5.14787000E-03	 1.23668000E-01	 1.51761000E-02
					-4.95241000E-03	 1.28632000E-01	 1.49917000E-02
					-5.18841000E-03	 1.06851000E-01	 1.46842000E-02
					-2.62200000E-03	 1.23450000E-01	 6.67169000E-03
					-5.05010000E-03	 1.26172000E-01	 1.51062000E-02
					-4.87492000E-03	 1.11838000E-01	 1.45081000E-02
					-2.51269000E-03	 1.28415000E-01	 6.49643000E-03
					-4.98570000E-05	 1.33037000E-01	-2.10253000E-03
					 4.67509000E-03	 1.32822000E-01	-1.89762000E-02
					-6.00791000E-05	 1.30661000E-01	-2.00235000E-03
					 4.74483000E-03	 1.30439000E-01	-1.88933000E-02
					-1.36868000E-05	 1.16136000E-01	-1.80019000E-03
					 2.31064000E-03	 1.32911000E-01	-1.04871000E-02
					 4.57289000E-03	 1.15999000E-01	-1.79108000E-02
					-4.77107000E-03	 1.33429000E-01	 1.47664000E-02
					-4.86121000E-03	 1.31050000E-01	 1.48841000E-02
					-4.59352000E-03	 1.16548000E-01	 1.43014000E-02
					-2.40934000E-03	 1.33211000E-01	 6.28061000E-03
					-1.70800000E-04	 1.58215000E-01	-2.30693000E-03
					 4.59930000E-03	 1.57915000E-01	-1.95946000E-02
					-1.50643000E-04	 1.62998000E-01	-2.50997000E-03
					 4.63098000E-03	 1.62683000E-01	-1.98085000E-02
					-1.34599000E-04	 1.40746000E-01	-2.00084000E-03
					 2.21663000E-03	 1.58070000E-01	-1.09311000E-02
					 4.74670000E-03	 1.40467000E-01	-1.92128000E-02
					-1.60460000E-04	 1.60606000E-01	-2.40801000E-03
					 4.61666000E-03	 1.60296000E-01	-1.97139000E-02
					-1.11190000E-04	 1.45595000E-01	-2.20603000E-03
					 2.24155000E-03	 1.62845000E-01	-1.11503000E-02
					 4.70848000E-03	 1.45312000E-01	-1.94331000E-02
					-4.94305000E-03	 1.58562000E-01	 1.49837000E-02
					-4.93165000E-03	 1.63334000E-01	 1.47928000E-02
					-5.01596000E-03	 1.41106000E-01	 1.52113000E-02
					-2.55842000E-03	 1.58392000E-01	 6.31745000E-03
					-4.93872000E-03	 1.60946000E-01	 1.49015000E-02
					-4.92926000E-03	 1.45951000E-01	 1.50220000E-02
					-2.54242000E-03	 1.63170000E-01	 6.13102000E-03
					-1.30759000E-04	 1.67757000E-01	-2.71590000E-03
					 4.65267000E-03	 1.67444000E-01	-1.99899000E-02
					-1.41132000E-04	 1.65374000E-01	-2.61239000E-03
					 4.64010000E-03	 1.65060000E-01	-1.98964000E-02
					-8.93846000E-05	 1.50376000E-01	-2.41137000E-03
					 2.26077000E-03	 1.67605000E-01	-1.13463000E-02
					 4.67053000E-03	 1.50098000E-01	-1.96141000E-02
					-4.91100000E-03	 1.68090000E-01	 1.45628000E-02
					-4.92012000E-03	 1.65708000E-01	 1.46760000E-02
					-4.84631000E-03	 1.50732000E-01	 1.47926000E-02
					-2.52125000E-03	 1.67927000E-01	 5.91556000E-03
					 0.00000000E+00	 0.00000000E+00	 0.00000000E+00
					 0.00000000E+00	 0.00000000E+00	 0.00000000E+00
					-1.28541000E-04	-8.58561000E-03	 1.42029000E-04
					-2.45291000E-03	-9.16570000E-03	 8.79388000E-03
					 0.00000000E+00	 0.00000000E+00	 0.00000000E+00
					 0.00000000E+00	 0.00000000E+00	 0.00000000E+00
					-1.05774000E-04	-1.03798000E-02	 1.56233000E-05
					-1.37199000E-03	-1.09821000E-02	 8.77833000E-03
					 0.00000000E+00	 0.00000000E+00	 0.00000000E+00
					-4.57222000E-05	-1.76473000E-03	 8.14014000E-05
					-1.29614000E-03	-8.68446000E-03	 4.45185000E-03
					-1.95482000E-03	-2.57663000E-03	 4.58269000E-03
					 0.00000000E+00	 0.00000000E+00	 0.00000000E+00
					 0.00000000E+00	 0.00000000E+00	 0.00000000E+00
					-1.13728000E-04	-9.66760000E-03	 7.43890000E-05
					-1.90065000E-03	-1.02547000E-02	 8.67452000E-03
					 0.00000000E+00	 0.00000000E+00	 0.00000000E+00
					-2.86941000E-05	-2.96588000E-03	 1.76126000E-05
					-7.41103000E-04	-1.04809000E-02	 4.26512000E-03
					-6.46240000E-04	-3.74871000E-03	 4.40755000E-03
					 0.00000000E+00	 0.00000000E+00	 0.00000000E+00
					 2.19844000E-03	-8.93177000E-03	-8.53703000E-03
					 0.00000000E+00	 0.00000000E+00	 0.00000000E+00
					 1.17460000E-03	-1.07678000E-02	-8.77369000E-03
					 0.00000000E+00	 0.00000000E+00	 0.00000000E+00
					 1.86970000E-03	-2.45156000E-03	-4.42312000E-03
					 1.03802000E-03	-8.56631000E-03	-4.17803000E-03
					 0.00000000E+00	 0.00000000E+00	 0.00000000E+00
					 1.68242000E-03	-1.00298000E-02	-8.55145000E-03
					 0.00000000E+00	 0.00000000E+00	 0.00000000E+00
					 6.03726000E-04	-3.65800000E-03	-4.37323000E-03
					 5.30629000E-04	-1.03746000E-02	-4.24383000E-03
					 0.00000000E+00	 0.00000000E+00	 0.00000000E+00
					 0.00000000E+00	 0.00000000E+00	 0.00000000E+00
					-9.75773000E-05	-1.11273000E-02	-8.84177000E-05
					-2.91379000E-04	-1.16680000E-02	 8.57004000E-03
					 0.00000000E+00	 0.00000000E+00	 0.00000000E+00
					 0.00000000E+00	 0.00000000E+00	 0.00000000E+00
					-9.92257000E-05	-1.09363000E-02	-3.93721000E-05
					-8.36797000E-04	-1.15070000E-02	 8.79505000E-03
					 0.00000000E+00	 0.00000000E+00	 0.00000000E+00
					-3.06389000E-05	-3.01251000E-03	-2.67755000E-05
					-1.96873000E-04	-1.12026000E-02	 3.99190000E-03
					 6.89948000E-04	-3.74486000E-03	 4.47467000E-03
					 0.00000000E+00	 0.00000000E+00	 0.00000000E+00
					 1.18998000E-04	-1.14863000E-02	-8.76528000E-03
					 0.00000000E+00	 0.00000000E+00	 0.00000000E+00
					 6.54609000E-04	-1.13089000E-02	-8.89813000E-03
					 0.00000000E+00	 0.00000000E+00	 0.00000000E+00
					-7.30869000E-04	-3.68383000E-03	-4.53315000E-03
					 8.03923000E-06	-1.11171000E-02	-4.17390000E-03
					-3.93476000E-04	-3.25340000E-02	 5.12246000E-05
					-3.73518000E-03	-3.31570000E-02	 1.49082000E-02
					-3.59252000E-04	-3.54894000E-02	-1.82489000E-04
					-2.94833000E-03	-3.61087000E-02	 1.47146000E-02
					-2.45372000E-04	-1.89940000E-02	 1.34117000E-04
					-2.06498000E-03	-3.27650000E-02	 7.47866000E-03
					-3.10390000E-03	-1.96677000E-02	 1.21909000E-02
					-3.75366000E-04	-3.40930000E-02	-7.16083000E-05
					-3.34078000E-03	-3.47120000E-02	 1.47380000E-02
					-2.19787000E-04	-2.13904000E-02	-4.93824000E-05
					-1.64988000E-03	-3.57172000E-02	 7.19776000E-03
					-2.14950000E-03	-2.20509000E-02	 1.20514000E-02
					 2.95770000E-03	-3.26202000E-02	-1.48334000E-02
					 2.23564000E-03	-3.55994000E-02	-1.51050000E-02
					 2.61544000E-03	-1.92905000E-02	-1.19543000E-02
					 1.27944000E-03	-3.24959000E-02	-7.38312000E-03
					 2.60010000E-03	-3.41972000E-02	-1.49053000E-02
					 1.72236000E-03	-2.16976000E-02	-1.21805000E-02
					 9.37438000E-04	-3.54661000E-02	-7.56578000E-03
					-3.41266000E-04	-3.77074000E-02	-3.89112000E-04
					-2.15612000E-03	-3.82905000E-02	 1.44691000E-02
					-3.49246000E-04	-3.66779000E-02	-2.86395000E-04
					-2.54996000E-03	-3.73144000E-02	 1.46990000E-02
					-2.08975000E-04	-2.28609000E-02	-2.06479000E-04
					-1.25676000E-03	-3.79104000E-02	 6.86519000E-03
					-1.21134000E-03	-2.35064000E-02	 1.18534000E-02
					 1.51179000E-03	-3.78236000E-02	-1.52717000E-02
					 1.87413000E-03	-3.67914000E-02	-1.52994000E-02
					 8.25600000E-04	-2.31925000E-02	-1.22930000E-02
					 5.85056000E-04	-3.76870000E-02	-7.64498000E-03
					-6.98377000E-04	-6.67289000E-02	-3.57340000E-04
					-4.88728000E-03	-6.72193000E-02	 1.81441000E-02
					-6.54142000E-04	-7.07121000E-02	-6.33556000E-04
					-4.50476000E-03	-7.13159000E-02	 1.79211000E-02
					-5.48173000E-04	-4.86364000E-02	-1.13088000E-04
					-2.78643000E-03	-6.69273000E-02	 8.83804000E-03
					-4.33994000E-03	-4.92273000E-02	 1.69109000E-02
					-6.74799000E-04	-6.87661000E-02	-4.94865000E-04
					-4.69865000E-03	-6.93262000E-02	 1.79662000E-02
					-5.10521000E-04	-5.21337000E-02	-3.79884000E-04
					-2.60376000E-03	-7.09694000E-02	 8.50988000E-03
					-3.74035000E-03	-5.27341000E-02	 1.66971000E-02
					 3.45285000E-03	-6.64953000E-02	-1.88571000E-02
					 3.19518000E-03	-7.04967000E-02	-1.92203000E-02
					 3.24094000E-03	-4.85643000E-02	-1.71595000E-02
					 1.37697000E-03	-6.65722000E-02	-9.54455000E-03
					 3.32273000E-03	-6.85373000E-02	-1.89833000E-02
					 2.72728000E-03	-5.20669000E-02	-1.74783000E-02
					 1.27186000E-03	-7.05703000E-02	-9.79997000E-03
					-6.18334000E-04	-7.43994000E-02	-8.99132000E-04
					-4.22730000E-03	-7.51158000E-02	 1.75990000E-02
					-6.35267000E-04	-7.26111000E-02	-7.69059000E-04
					-4.36818000E-03	-7.31470000E-02	 1.78939000E-02
					-4.73881000E-04	-5.50847000E-02	-6.24521000E-04
					-2.39333000E-03	-7.47145000E-02	 8.08227000E-03
					-3.17969000E-03	-5.57005000E-02	 1.64049000E-02
					 2.94796000E-03	-7.42116000E-02	-1.94547000E-02
					 3.07208000E-03	-7.23874000E-02	-1.94647000E-02
					 2.20071000E-03	-5.50202000E-02	-1.76755000E-02
					 1.15784000E-03	-7.42842000E-02	-9.92722000E-03
					-8.78173000E-04	-1.05080000E-01	-9.68252000E-04
					-5.65943000E-03	-1.05254000E-01	 1.76345000E-02