<?xml version="1.0"?>
<VTKFile type="UnstructuredGrid" version="0.1" byte_order="LittleEndian">
	<UnstructuredGrid>
		<Piece NumberOfPoints="522" NumberOfCells="64">
			<Points>
				<DataArray type="Float64" NumberOfComponents="3" format="ascii">
					 1.00000000E+00	 1.00000000E+00	-5.96046000E-08
					 1.00000000E+00	 5.00000000E-01	-5.96046000E-08
					 1.00000000E+00	 5.00000000E-01	 1.00000000E+00
					 1.00000000E+00	 1.00000000E+00	 1.00000000E+00
					 5.00000000E-01	 1.00000000E+00	-5.96046000E-08
					 5.00000000E-01	 5.00000000E-01	-5.96046000E-08
					 5.00000000E-01	 5.00000000E-01	 1.00000000E+00
					 5.00000000E-01	 1.00000000E+00	 1.00000000E+00
					 1.00000000E+00	 7.50000000E-01	-5.96046000E-08
					 1.00000000E+00	 5.00000000E-01	 5.00000000E-01
					 1.00000000E+00	 7.50000000E-01	 1.00000000E+00
					 1.00000000E+00	 1.00000000E+00	 5.00000000E-01
					 7.50000000E-01	 1.00000000E+00	-5.96046000E-08
					 7.50000000E-01	 5.00000000E-01	-5.96046000E-08
					 7.50000000E-01	 5.00000000E-01	 1.00000000E+00
					 7.50000000E-01	 1.00000000E+00	 1.00000000E+00
					 5.00000000E-01	 7.50000000E-01	-5.96046000E-08
					 5.00000000E-01	 5.00000000E-01	 5.00000000E-01
					 5.00000000E-01	 7.50000000E-01	 1.00000000E+00
					 5.00000000E-01	 1.00000000E+00	 5.00000000E-01
					 1.00000000E+00	-1.49012000E-08	-5.96046000E-08
					 1.00000000E+00	-1.49012000E-08	 1.00000000E+00
					 5.00000000E-01	-1.49012000E-08	-5.96046000E-08
					 5.00000000E-01	-1.49012000E-08	 1.00000000E+00
					 1.00000000E+00	 2.50000000E-01	-5.96046000E-08
					 1.00000000E+00	-1.49012000E-08	 5.00000000E-01
					 1.00000000E+00	 2.50000000E-01	 1.00000000E+00
					 7.50000000E-01	-1.49012000E-08	-5.96046000E-08
					 7.50000000E-01	-1.49012000E-08	 1.00000000E+00
					 5.00000000E-01	 2.50000000E-01	-5.96046000E-08
					 5.00000000E-01	-1.49012000E-08	 5.00000000E-01
					 5.00000000E-01	 2.50000000E-01	 1.00000000E+00
					-7.45058000E-09	 1.00000000E+00	-5.96046000E-08
					-7.45058000E-09	 5.00000000E-01	-5.96046000E-08
					-7.45058000E-09	 5.00000000E-01	 1.00000000E+00
					-7.45058000E-09	 1.00000000E+00	 1.00000000E+00
					 2.50000000E-01	 1.00000000E+00	-5.96046000E-08
					 2.50000000E-01	 5.00000000E-01	-5.96046000E-08
					 2.50000000E-01	 5.00000000E-01	 1.00000000E+00
					 2.50000000E-01	 1.00000000E+00	 1.00000000E+00
					-7.45058000E-09	 7.50000000E-01	-5.96046000E-08
					-7.45058000E-09	 5.00000000E-01	 5.00000000E-01
					-7.45058000E-09	 7.50000000E-01	 1.00000000E+00
					-7.45058000E-09	 1.00000000E+00	 5.00000000E-01
					-7.45058000E-09	-1.49012000E-08	-5.96046000E-08
					-7.45058000E-09	-1.49012000E-08	 1.00000000E+00
					 2.50000000E-01	-1.49012000E-08	-5.96046000E-08
					 2.50000000E-01	-1.49012000E-08	 1.00000000E+00
					-7.45058000E-09	 2.50000000E-01	-5.96046000E-08
					-7.45058000E-09	-1.49012000E-08	 5.00000000E-01
					-7.45058000E-09	 2.50000000E-01	 1.00000000E+00
					 1.00000000E+00	 5.00000000E-01	 2.00000000E+00
					 1.00000000E+00	 1.00000000E+00	 2.00000000E+00
					 5.00000000E-01	 5.00000000E-01	 2.00000000E+00
					 5.00000000E-01	 1.00000000E+00	 2.00000000E+00
					 1.00000000E+00	 5.00000000E-01	 1.50000000E+00
					 1.00000000E+00	 7.50000000E-01	 2.00000000E+00
					 1.00000000E+00	 1.00000000E+00	 1.50000000E+00
					 7.50000000E-01	 5.00000000E-01	 2.00000000E+00
					 7.50000000E-01	 1.00000000E+00	 2.00000000E+00
					 5.00000000E-01	 5.00000000E-01	 1.50000000E+00
					 5.00000000E-01	 7.50000000E-01	 2.00000000E+00
					 5.00000000E-01	 1.00000000E+00	 1.50000000E+00
					 1.00000000E+00	-1.49012000E-08	 2.00000000E+00
					 5.00000000E-01	-1.49012000E-08	 2.00000000E+00
					 1.00000000E+00	-1.49012000E-08	 1.50000000E+00
					 1.00000000E+00	 2.50000000E-01	 2.00000000E+00
					 7.50000000E-01	-1.49012000E-08	 2.00000000E+00
					 5.00000000E-01	-1.49012000E-08	 1.50000000E+00
					 5.00000000E-01	 2.50000000E-01	 2.00000000E+00
					-7.45058000E-09	 5.00000000E-01	 2.00000000E+00
					-7.45058000E-09	 1.00000000E+00	 2.00000000E+00
					 2.50000000E-01	 5.00000000E-01	 2.00000000E+00
					 2.50000000E-01	 1.00000000E+00	 2.00000000E+00
					-7.45058000E-09	 5.00000000E-01	 1.50000000E+00
					-7.45058000E-09	 7.50000000E-01	 2.00000000E+00
					-7.45058000E-09	 1.00000000E+00	 1.50000000E+00
					-7.45058000E-09	-1.49012000E-08	 2.00000000E+00
					 2.50000000E-01	-1.49012000E-08	 2.00000000E+00
					-7.45058000E-09	-1.49012000E-08	 1.50000000E+00
					-7.45058000E-09	 2.50000000E-01	 2.00000000E+00
					 1.00000000E+00	 5.00000000E-01	 3.00000000E+00
					 1.00000000E+00	 1.00000000E+00	 3.00000000E+00
					 5.00000000E-01	 5.00000000E-01	 3.00000000E+00
					 5.00000000E-01	 1.00000000E+00	 3.00000000E+00
					 1.00000000E+00	 5.00000000E-01	 2.50000000E+00
					 1.00000000E+00	 7.50000000E-01	 3.00000000E+00
					 1.00000000E+00	 1.00000000E+00	 2.50000000E+00
					 7.50000000E-01	 5.00000000E-01	 3.00000000E+00
					 7.50000000E-01	 1.00000000E+00	 3.00000000E+00
					 5.00000000E-01	 5.00000000E-01	 2.50000000E+00
					 5.00000000E-01	 7.50000000E-01	 3.00000000E+00
					 5.00000000E-01	 1.00000000E+00	 2.50000000E+00
					 1.00000000E+00	-1.49012000E-08	 3.00000000E+00
					 5.00000000E-01	-1.49012000E-08	 3.00000000E+00
					 1.00000000E+00	-1.49012000E-08	 2.50000000E+00
					 1.00000000E+00	 2.50000000E-01	 3.00000000E+00
					 7.50000000E-01	-1.49012000E-08	 3.00000000E+00
					 5.00000000E-01	-1.49012000E-08	 2.50000000E+00
					 5.00000000E-01	 2.50000000E-01	 3.00000000E+00
					-7.45058000E-09	 5.00000000E-01	 3.00000000E+00
					-7.45058000E-09	 1.00000000E+00	 3.00000000E+00
					 2.50000000E-01	 5.00000000E-01	 3.00000000E+00
					 2.50000000E-01	 1.00000000E+00	 3.00000000E+00
					-7.45058000E-09	 5.00000000E-01	 2.50000000E+00
					-7.45058000E-09	 7.50000000E-01	 3.00000000E+00
					-7.45058000E-09	 1.00000000E+00	 2.50000000E+00
					-7.45058000E-09	-1.49012000E-08	 3.00000000E+00
					 2.50000000E-01	-1.49012000E-08	 3.00000000E+00
					-7.45058000E-09	-1.49012000E-08	 2.50000000E+00
					-7.45058000E-09	 2.50000000E-01	 3.00000000E+00
					 1.00000000E+00	 5.00000000E-01	 4.00000000E+00
					 1.00000000E+00	 1.00000000E+00	 4.00000000E+00
					 5.00000000E-01	 5.00000000E-01	 4.00000000E+00
					 5.00000000E-01	 1.00000000E+00	 4.00000000E+00
					 1.00000000E+00	 5.00000000E-01	 3.50000000E+00
					 1.00000000E+00	 7.50000000E-01	 4.00000000E+00
					 1.00000000E+00	 1.00000000E+00	 3.50000000E+00
					 7.50000000E-01	 5.00000000E-01	 4.00000000E+00
					 7.50000000E-01	 1.00000000E+00	 4.00000000E+00
					 5.00000000E-01	 5.00000000E-01	 3.50000000E+00
					 5.00000000E-01	 7.50000000E-01	 4.00000000E+00
					 5.00000000E-01	 1.00000000E+00	 3.50000000E+00
					 1.00000000E+00	-1.49012000E-08	 4.00000000E+00
					 5.00000000E-01	-1.49012000E-08	 4.00000000E+00
					 1.00000000E+00	-1.49012000E-08	 3.50000000E+00
					 1.00000000E+00	 2.50000000E-01	 4.00000000E+00
					 7.50000000E-01	-1.49012000E-08	 4.00000000E+00
					 5.00000000E-01	-1.49012000E-08	 3.50000000E+00
					 5.00000000E-01	 2.50000000E-01	 4.00000000E+00
					-7.45058000E-09	 5.00000000E-01	 4.00000000E+00
					-7.45058000E-09	 1.00000000E+00	 4.00000000E+00
					 2.50000000E-01	 5.00000000E-01	 4.00000000E+00
					 2.50000000E-01	 1.00000000E+00	 4.00000000E+00
					-7.45058000E-09	 5.00000000E-01	 3.50000000E+00
					-7.45058000E-09	 7.50000000E-01	 4.00000000E+00
					-7.45058000E-09	 1.00000000E+00	 3.50000000E+00
					-7.45058000E-09	-1.49012000E-08	 4.00000000E+00
					 2.50000000E-01	-1.49012000E-08	 4.00000000E+00
					-7.45058000E-09	-1.49012000E-08	 3.50000000E+00
					-7.45058000E-09	 2.50000000E-01	 4.00000000E+00
					 1.00000000E+00	 5.00000000E-01	 5.00000000E+00
					 1.00000000E+00	 1.00000000E+00	 5.00000000E+00
					 5.00000000E-01	 5.00000000E-01	 5.00000000E+00
					 5.00000000E-01	 1.00000000E+00	 5.00000000E+00
					 1.00000000E+00	 5.00000000E-01	 4.50000000E+00
					 1.00000000E+00	 7.50000000E-01	 5.00000000E+00
					 1.00000000E+00	 1.00000000E+00	 4.50000000E+00
					 7.50000000E-01	 5.00000000E-01	 5.00000000E+00
					 7.50000000E-01	 1.00000000E+00	 5.00000000E+00
					 5.00000000E-01	 5.00000000E-01	 4.50000000E+00
					 5.00000000E-01	 7.50000000E-01	 5.00000000E+00
					 5.00000000E-01	 1.00000000E+00	 4.50000000E+00
					 1.00000000E+00	-1.49012000E-08	 5.00000000E+00
					 5.00000000E-01	-1.49012000E-08	 5.00000000E+00
					 1.00000000E+00	-1.49012000E-08	 4.50000000E+00
					 1.00000000E+00	 2.50000000E-01	 5.00000000E+00
					 7.50000000E-01	-1.49012000E-08	 5.00000000E+00
					 5.00000000E-01	-1.49012000E-08	 4.50000000E+00
					 5.00000000E-01	 2.50000000E-01	 5.00000000E+00
					-7.45058000E-09	 5.00000000E-01	 5.00000000E+00
					-7.45058000E-09	 1.00000000E+00	 5.00000000E+00
					 2.50000000E-01	 5.00000000E-01	 5.00000000E+00
					 2.50000000E-01	 1.00000000E+00	 5.00000000E+00
					-7.45058000E-09	 5.00000000E-01	 4.50000000E+00
					-7.45058000E-09	 7.50000000E-01	 5.00000000E+00
					-7.45058000E-09	 1.00000000E+00	 4.50000000E+00
					-7.45058000E-09	-1.49012000E-08	 5.00000000E+00
					 2.50000000E-01	-1.49012000E-08	 5.00000000E+00
					-7.45058000E-09	-1.49012000E-08	 4.50000000E+00
					-7.45058000E-09	 2.50000000E-01	 5.00000000E+00
					 1.00000000E+00	 5.00000000E-01	 6.00000000E+00
					 1.00000000E+00	 1.00000000E+00	 6.00000000E+00
					 5.00000000E-01	 5.00000000E-01	 6.00000000E+00
					 5.00000000E-01	 1.00000000E+00	 6.00000000E+00
					 1.00000000E+00	 5.00000000E-01	 5.50000000E+00
					 1.00000000E+00	 7.50000000E-01	 6.00000000E+00
					 1.00000000E+00	 1.00000000E+00	 5.50000000E+00
					 7.50000000E-01	 5.00000000E-01	 6.00000000E+00
					 7.50000000E-01	 1.00000000E+00	 6.00000000E+00
					 5.00000000E-01	 5.00000000E-01	 5.50000000E+00
					 5.00000000E-01	 7.50000000E-01	 6.00000000E+00
					 5.00000000E-01	 1.00000000E+00	 5.50000000E+00
					 1.00000000E+00	-1.49012000E-08	 6.00000000E+00
[...]
			<PointData>
				<DataArray type="Float32" Name="U" NumberOfComponents="3" ComponentName0="D1" ComponentName1="D2" ComponentName2="D3" format="ascii">
					 0.00000000E+00	 0.00000000E+00	 0.00000000E+00
					 0.00000000E+00	 0.00000000E+00	 0.00000000E+00
					-3.39656000E-06	 5.92323000E-03	-5.26386000E-05
					-6.65811000E-05	 6.10458000E-03	-4.45922000E-03
					 0.00000000E+00	 0.00000000E+00	 0.00000000E+00
					 0.00000000E+00	 0.00000000E+00	 0.00000000E+00
					-8.85523000E-06	 5.61155000E-03	-5.79055000E-05
					-5.58816000E-04	 5.81648000E-03	-4.53453000E-03
					 0.00000000E+00	 0.00000000E+00	 0.00000000E+00
					 6.25680000E-06	 1.61867000E-03	-1.96797000E-05
					-3.55996000E-05	 5.92144000E-03	-2.09900000E-03
					 4.23096000E-04	 1.96653000E-03	-2.37273000E-03
					 0.00000000E+00	 0.00000000E+00	 0.00000000E+00
					 0.00000000E+00	 0.00000000E+00	 0.00000000E+00
					-6.07433000E-06	 5.85449000E-03	-5.65813000E-05
					-3.15939000E-04	 6.04871000E-03	-4.56360000E-03
					 0.00000000E+00	 0.00000000E+00	 0.00000000E+00
					-1.11209000E-06	 1.64607000E-03	-2.24938000E-05
					-2.83185000E-04	 5.61709000E-03	-2.19890000E-03
					-2.63442000E-04	 2.01512000E-03	-2.32406000E-03
					 0.00000000E+00	 0.00000000E+00	 0.00000000E+00
					 5.64074000E-05	 6.13959000E-03	 4.34873000E-03
					 0.00000000E+00	 0.00000000E+00	 0.00000000E+00
					 5.41416000E-04	 5.85334000E-03	 4.41243000E-03
					 0.00000000E+00	 0.00000000E+00	 0.00000000E+00
					-4.12069000E-04	 1.97370000E-03	 2.32926000E-03
					 2.74659000E-05	 5.93715000E-03	 1.99296000E-03
					 0.00000000E+00	 0.00000000E+00	 0.00000000E+00
					 3.02704000E-04	 6.08646000E-03	 4.44400000E-03
					 0.00000000E+00	 0.00000000E+00	 0.00000000E+00
					 2.61829000E-04	 2.02077000E-03	 2.27506000E-03
					 2.65537000E-04	 5.63498000E-03	 2.08134000E-03
					 0.00000000E+00	 0.00000000E+00	 0.00000000E+00
					 0.00000000E+00	 0.00000000E+00	 0.00000000E+00
					-1.40782000E-05	 4.82258000E-03	-5.74752000E-05
					-1.04401000E-03	 5.01073000E-03	-4.46427000E-03
					 0.00000000E+00	 0.00000000E+00	 0.00000000E+00
					 0.00000000E+00	 0.00000000E+00	 0.00000000E+00
					-1.16449000E-05	 5.30531000E-03	-5.78950000E-05
					-7.97576000E-04	 5.50025000E-03	-4.45891000E-03
					 0.00000000E+00	 0.00000000E+00	 0.00000000E+00
					-8.77264000E-06	 1.09315000E-03	-2.34377000E-05
					-5.30748000E-04	 4.82405000E-03	-2.21004000E-03
					-9.27763000E-04	 1.46460000E-03	-2.37704000E-03
					 0.00000000E+00	 0.00000000E+00	 0.00000000E+00
					 1.01991000E-03	 5.04548000E-03	 4.34397000E-03
					 0.00000000E+00	 0.00000000E+00	 0.00000000E+00
					 7.76079000E-04	 5.53632000E-03	 4.33766000E-03
					 0.00000000E+00	 0.00000000E+00	 0.00000000E+00
					 9.13089000E-04	 1.46934000E-03	 2.32496000E-03
					 5.03974000E-04	 4.84123000E-03	 2.09346000E-03
					-2.28229000E-05	 1.89862000E-02	-1.71485000E-04
					-9.04474000E-04	 1.90591000E-02	-7.00198000E-03
					-2.70155000E-05	 1.79927000E-02	-1.66305000E-04
					-1.13869000E-03	 1.80619000E-02	-7.01862000E-03
					-1.42335000E-05	 1.19029000E-02	-1.04690000E-04
					-4.60538000E-04	 1.90042000E-02	-3.49851000E-03
					-5.10957000E-04	 1.20767000E-02	-5.95227000E-03
					-2.48967000E-05	 1.85127000E-02	-1.68737000E-04
					-1.02112000E-03	 1.85800000E-02	-7.05505000E-03
					-1.96716000E-05	 1.12378000E-02	-1.05030000E-04
					-5.83318000E-04	 1.80095000E-02	-3.54848000E-03
					-8.65915000E-04	 1.14012000E-02	-5.98539000E-03
					 8.58224000E-04	 1.91473000E-02	 6.65343000E-03
					 1.08465000E-03	 1.81513000E-02	 6.68011000E-03
					 4.79339000E-04	 1.21382000E-02	 5.73561000E-03
					 4.14752000E-04	 1.90458000E-02	 3.15392000E-03
					 9.70964000E-04	 1.86702000E-02	 6.71211000E-03
					 8.26410000E-04	 1.14664000E-02	 5.76802000E-03
					 5.29371000E-04	 1.80531000E-02	 3.21438000E-03
					-3.06535000E-05	 1.67625000E-02	-1.57337000E-04
					-1.37863000E-03	 1.68286000E-02	-6.98850000E-03
					-2.90051000E-05	 1.73995000E-02	-1.62879000E-04
					-1.25984000E-03	 1.74677000E-02	-6.98364000E-03
					-2.44351000E-05	 1.02100000E-02	-1.00815000E-04
					-7.05508000E-04	 1.67755000E-02	-3.55065000E-03
					-1.22834000E-03	 1.03745000E-02	-5.94867000E-03
					 1.31774000E-03	 1.69176000E-02	 6.66778000E-03
					 1.20218000E-03	 1.75564000E-02	 6.65204000E-03
					 1.18178000E-03	 1.04388000E-02	 5.73979000E-03
					 6.44365000E-04	 1.68194000E-02	 3.23455000E-03
					-4.87131000E-05	 3.47509000E-02	-3.24052000E-04
					-1.47698000E-03	 3.47376000E-02	-8.14242000E-03
					-5.12203000E-05	 3.32889000E-02	-3.19375000E-04
					-1.55553000E-03	 3.32723000E-02	-8.15098000E-03
					-3.14104000E-05	 2.66740000E-02	-2.43779000E-04
					-7.62049000E-04	 3.47349000E-02	-4.17889000E-03
					-1.21075000E-03	 2.67045000E-02	-7.68952000E-03
					-4.99606000E-05	 3.40309000E-02	-3.22323000E-04
					-1.51599000E-03	 3.40147000E-02	-8.17783000E-03
					-3.45368000E-05	 2.54249000E-02	-2.38186000E-04
					-8.03377000E-04	 3.32708000E-02	-4.20995000E-03
					-1.36109000E-03	 2.54494000E-02	-7.70148000E-03
					 1.38018000E-03	 3.48511000E-02	 7.49084000E-03
					 1.45229000E-03	 3.33852000E-02	 7.50946000E-03
					 1.14869000E-03	 2.68093000E-02	 7.19668000E-03
					 6.64697000E-04	 3.47894000E-02	 3.53003000E-03
					 1.41608000E-03	 3.41286000E-02	 7.52977000E-03
					 1.29215000E-03	 2.55531000E-02	 7.22013000E-03
					 7.00502000E-04	 3.33260000E-02	 3.57042000E-03
					-5.46500000E-05	 3.17430000E-02	-3.13372000E-04
					-1.63696000E-03	 3.17272000E-02	-8.13141000E-03
					-5.25904000E-05	 3.25270000E-02	-3.16000000E-04
					-1.59626000E-03	 3.25102000E-02	-8.12365000E-03
					-3.81657000E-05	 2.40205000E-02	-2.29811000E-04
					-8.46643000E-04	 3.17247000E-02	-4.21595000E-03
					-1.51615000E-03	 2.40477000E-02	-7.67591000E-03
					 1.52611000E-03	 3.18408000E-02	 7.50249000E-03
					 1.48957000E-03	 3.26227000E-02	 7.48958000E-03
					 1.43987000E-03	 2.41500000E-02	 7.21136000E-03
					 7.36779000E-04	 3.17813000E-02	 3.58825000E-03
					-8.89709000E-05	 5.12306000E-02	-5.08987000E-04
					-1.89163000E-03	 5.11864000E-02	-8.58849000E-03
					-9.22380000E-05	 4.94202000E-02	-4.92681000E-04
					-1.91640000E-03	 4.93710000E-02	-8.57323000E-03
					-7.12252000E-05	 4.29796000E-02	-4.14129000E-04
					-9.89379000E-04	 5.12073000E-02	-4.52796000E-03
					-1.70364000E-03	 4.29485000E-02	-8.40704000E-03
					-9.10164000E-05	 5.03278000E-02	-5.01060000E-04
					-1.90440000E-03	 5.02800000E-02	-8.60230000E-03
					-7.42394000E-05	 4.13319000E-02	-4.05353000E-04
					-1.00417000E-03	 4.93945000E-02	-4.53398000E-03
					-1.74394000E-03	 4.12967000E-02	-8.40455000E-03
					 1.71350000E-03	 5.13066000E-02	 7.57102000E-03
					 1.73005000E-03	 4.94933000E-02	 7.58838000E-03
					 1.56075000E-03	 4.30647000E-02	 7.57747000E-03
					 8.11475000E-04	 5.12665000E-02	 3.51001000E-03
					 1.72169000E-03	 5.04016000E-02	 7.60082000E-03
					 1.59355000E-03	 4.14148000E-02	 7.59293000E-03
					 8.19249000E-04	 4.94551000E-02	 3.54869000E-03
					-9.36089000E-05	 4.75839000E-02	-4.75805000E-04
					-1.94450000E-03	 4.75306000E-02	-8.55514000E-03
					-9.30644000E-05	 4.85041000E-02	-4.84144000E-04
					-1.93074000E-03	 4.84534000E-02	-8.54100000E-03
					-7.65656000E-05	 3.96420000E-02	-3.96229000E-04
					-1.01884000E-03	 4.75552000E-02	-4.53908000E-03
					-1.78379000E-03	 3.96074000E-02	-8.38880000E-03
					 1.75347000E-03	 4.76585000E-02	 7.60398000E-03
					 1.74147000E-03	 4.85772000E-02	 7.57312000E-03
					 1.62714000E-03	 3.97299000E-02	 7.59566000E-03
					 8.30666000E-04	 4.76196000E-02	 3.58756000E-03
					-1.05227000E-04	 6.77788000E-02	-6.96789000E-04
					-2.07148000E-03	 6.77297000E-02	-8.96944000E-03
					-1.06701000E-04	 6.58046000E-02	-6.64887000E-04
					-2.09066000E-03	 6.57497000E-02	-8.94293000E-03
					-1.00073000E-04	 5.94743000E-02	-6.03206000E-04
					-1.08785000E-03	 6.77501000E-02	-4.81994000E-03
					-2.01594000E-03	 5.94273000E-02	-8.78078000E-03
					-1.06480000E-04	 6.67965000E-02	-6.80907000E-04
					-2.08194000E-03	 6.67433000E-02	-8.95929000E-03
					-1.02316000E-04	 5.75467000E-02	-5.79161000E-04
					-1.09903000E-03	 6.57721000E-02	-4.79347000E-03
					-2.04405000E-03	 5.74952000E-02	-8.75622000E-03
					 1.86006000E-03	 6.78600000E-02	 7.57583000E-03
					 1.87510000E-03	 6.58835000E-02	 7.61350000E-03
					 1.81588000E-03	 5.95538000E-02	 7.57492000E-03
					 8.77206000E-04	 6.78149000E-02	 3.42653000E-03
					 1.86770000E-03	 6.68751000E-02	 7.59749000E-03
					 1.83779000E-03	 5.76236000E-02	 7.59863000E-03
					 8.85158000E-04	 6.58384000E-02	 3.46390000E-03
					-1.05606000E-04	 6.38129000E-02	-6.31771000E-04
					-2.12165000E-03	 6.37445000E-02	-8.90423000E-03
					-1.06324000E-04	 6.48116000E-02	-6.48651000E-04
					-2.10677000E-03	 6.47536000E-02	-8.92587000E-03
					-1.02505000E-04	 5.55921000E-02	-5.53832000E-04
					-1.11025000E-03	 6.37737000E-02	-4.75611000E-03
					-2.07961000E-03	 5.55318000E-02	-8.73107000E-03
					 1.90689000E-03	 6.38844000E-02	 7.64163000E-03
					 1.89102000E-03	 6.48901000E-02	 7.62923000E-03
					 1.87132000E-03	 5.56654000E-02	 7.62443000E-03
					 8.98192000E-04	 6.38432000E-02	 3.49293000E-03
					-8.73219000E-05	 8.43338000E-02	-8.76826000E-04
					-1.84778000E-03	 8.42355000E-02	-9.00834000E-03
					-8.79240000E-05	 8.26236000E-02	-8.33858000E-04
					-1.75989000E-03	 8.25174000E-02	-8.97773000E-03
					-1.01215000E-04	 7.61352000E-02	-7.90075000E-04
					-9.65429000E-04	 8.42964000E-02	-4.95538000E-03
					-2.03374000E-03	 7.60651000E-02	-9.07409000E-03
					-8.78795000E-05	 8.34684000E-02	-8.54796000E-04
					-1.80442000E-03	 8.33642000E-02	-8.95329000E-03
					-1.01983000E-04	 7.42222000E-02	-7.50651000E-04
					-9.24587000E-04	 8.25828000E-02	-4.87758000E-03
					-2.00489000E-03	 7.41412000E-02	-9.04734000E-03
					 1.67262000E-03	 8.43639000E-02	 7.25824000E-03
					 1.58286000E-03	 8.26478000E-02	 7.31327000E-03
					 1.82979000E-03	 7.61961000E-02	 7.49508000E-03
					 7.90763000E-04	 8.43607000E-02	 3.20246000E-03
					 1.62793000E-03	 8.34923000E-02	 7.24738000E-03
					 1.79866000E-03	 7.42763000E-02	 7.54733000E-03
					 7.48479000E-04	 8.26467000E-02	 3.21068000E-03
					-8.73816000E-05	 8.09936000E-02	-7.92203000E-04
					-1.68102000E-03	 8.08827000E-02	-8.92481000E-03
					-8.76751000E-05	 8.17973000E-02	-8.13255000E-04
					-1.72085000E-03	 8.16889000E-02	-9.00732000E-03
					-1.00666000E-04	 7.23321000E-02	-7.11053000E-04
					-8.83655000E-04	 8.09506000E-02	-4.77635000E-03
					-1.99563000E-03	 7.22359000E-02	-8.99578000E-03
					 1.50444000E-03	 8.10158000E-02	 7.34315000E-03
					 1.54386000E-03	 8.18225000E-02	 7.38345000E-03
					 1.79097000E-03	 7.23764000E-02	 7.57520000E-03
					 7.08435000E-04	 8.10143000E-02	 3.19288000E-03
					-4.76112000E-05	 9.92858000E-02	-1.00983000E-03
					-1.13872000E-03	 9.91688000E-02	-8.34317000E-03
					-4.92179000E-05	 9.82549000E-02	-9.72323000E-04
					-1.02402000E-03	 9.81403000E-02	-8.29415000E-03
					-6.86272000E-05	 9.20895000E-02	-9.50032000E-04
					-5.94184000E-04	 9.92417000E-02	-4.74239000E-03
					-1.52274000E-03	 9.19808000E-02	-8.70948000E-03
					-4.84367000E-05	 9.87527000E-02	-9.91029000E-04
					-1.08138000E-03	 9.86390000E-02	-8.26547000E-03
					-7.00241000E-05	 9.07052000E-02	-9.09029000E-04
					-5.37310000E-04	 9.82143000E-02	-4.64521000E-03
					-1.39770000E-03	 9.05915000E-02	-8.67246000E-03
					 1.04526000E-03	 9.92784000E-02	 6.32579000E-03
					 9.26612000E-04	 9.82483000E-02	 6.35152000E-03
					 1.38609000E-03	 9.21009000E-02	 6.81379000E-03
					 4.99379000E-04	 9.92995000E-02	 2.72301000E-03
					 9.86353000E-04	 9.87458000E-02	 6.28565000E-03
					 1.25792000E-03	 9.07115000E-02	 6.85842000E-03
					 4.39322000E-04	 9.82690000E-02	 2.70081000E-03
					-4.95266000E-05	 9.73407000E-02	-9.34914000E-04
					-8.97614000E-04	 9.72335000E-02	-8.25887000E-03
					-4.96270000E-05	 9.77837000E-02	-9.53430000E-04
					-9.61051000E-04	 9.76690000E-02	-8.31994000E-03
					-7.03307000E-05	 8.94395000E-02	-8.69855000E-04
					-4.76354000E-04	 9.73046000E-02	-4.56209000E-03
					-1.27253000E-03	 8.93294000E-02	-8.62843000E-03
					 7.98393000E-04	 9.73423000E-02	 6.39070000E-03
					 8.62015000E-04	 9.77786000E-02	 6.41522000E-03
					 1.13177000E-03	 8.94498000E-02	 6.89210000E-03
					 3.77296000E-04	 9.73583000E-02	 2.69213000E-03
					 4.79838000E-07	 1.12826000E-01	-1.10650000E-03
					-6.17294000E-04	 1.12753000E-01	-8.06238000E-03
					 5.24344000E-06	 1.12164000E-01	-1.07306000E-03
					-6.21170000E-04	 1.12107000E-01	-7.99367000E-03
					-2.34254000E-05	 1.06047000E-01	-1.05946000E-03
					-3.05895000E-04	 1.12788000E-01	-4.60906000E-03
					-7.98546000E-04	 1.05963000E-01	-8.11523000E-03
					 2.15817000E-06	 1.12498000E-01	-1.09028000E-03
					-6.20964000E-04	 1.12433000E-01	-8.01918000E-03
					-2.30536000E-05	 1.05291000E-01	-1.02494000E-03
					-3.02800000E-04	 1.12135000E-01	-4.54739000E-03
					-7.47199000E-04	 1.05215000E-01	-8.05350000E-03
					 6.24365000E-04	 1.12847000E-01	 5.84441000E-03
					 6.32448000E-04	 1.12194000E-01	 5.84243000E-03
					 7.55968000E-04	 1.06065000E-01	 5.99356000E-03
					 3.08528000E-04	 1.12836000E-01	 2.39461000E-03
					 6.29580000E-04	 1.12523000E-01	 5.83372000E-03
					 7.01972000E-04	 1.05313000E-01	 6.00073000E-03
					 3.13661000E-04	 1.12178000E-01	 2.40000000E-03
					 1.05960000E-05	 1.11536000E-01	-1.03344000E-03
					-5.94375000E-04	 1.11482000E-01	-7.95027000E-03
					 8.48839000E-06	 1.11847000E-01	-1.05424000E-03
					-6.05293000E-04	 1.11789000E-01	-7.96766000E-03
					-2.20412000E-05	 1.04601000E-01	-9.86454000E-04
					-2.92340000E-04	 1.11510000E-01	-4.50625000E-03
					-6.70587000E-04	 1.04532000E-01	-8.01555000E-03
					 6.10833000E-04	 1.11575000E-01	 5.87837000E-03
					 6.19538000E-04	 1.11878000E-01	 5.85437000E-03
					 6.23608000E-04	 1.04633000E-01	 6.03961000E-03
					 3.12495000E-04	 1.11556000E-01	 2.43801000E-03
					 0.00000000E+00	 0.00000000E+00	 0.00000000E+00
					 0.00000000E+00	 0.00000000E+00	 0.00000000E+00
					 1.68773000E-05	-5.11124000E-03	-2.62433000E-05
					-1.17320000E-03	-5.37034000E-03	 4.78385000E-03
					 0.00000000E+00	 0.00000000E+00	 0.00000000E+00
					 0.00000000E+00	 0.00000000E+00	 0.00000000E+00
					 1.52254000E-05	-6.02621000E-03	-2.99169000E-05
					-6.31452000E-04	-6.30621000E-03	 4.85218000E-03
					 0.00000000E+00	 0.00000000E+00	 0.00000000E+00
					 9.08266000E-06	-1.10413000E-03	-7.04186000E-06
					-5.79684000E-04	-5.13823000E-03	 2.33301000E-03
					-1.03573000E-03	-1.52376000E-03	 2.54181000E-03
					 0.00000000E+00	 0.00000000E+00	 0.00000000E+00
					 0.00000000E+00	 0.00000000E+00	 0.00000000E+00
					 1.63718000E-05	-5.66679000E-03	-2.75179000E-05
					-8.97515000E-04	-5.93510000E-03	 4.77342000E-03
					 0.00000000E+00	 0.00000000E+00	 0.00000000E+00
					 6.82718000E-06	-1.74612000E-03	-7.03148000E-06
					-3.08944000E-04	-6.05912000E-03	 2.31389000E-03
					-3.17252000E-04	-2.16379000E-03	 2.48459000E-03
					 0.00000000E+00	 0.00000000E+00	 0.00000000E+00
					 1.20395000E-03	-5.31916000E-03	-4.84641000E-03
					 0.00000000E+00	 0.00000000E+00	 0.00000000E+00
					 6.63872000E-04	-6.25357000E-03	-4.92383000E-03
					 0.00000000E+00	 0.00000000E+00	 0.00000000E+00
					 1.05132000E-03	-1.50415000E-03	-2.56062000E-03
					 6.12582000E-04	-5.11269000E-03	-2.38845000E-03
					 0.00000000E+00	 0.00000000E+00	 0.00000000E+00
					 9.29565000E-04	-5.88196000E-03	-4.83916000E-03
					 0.00000000E+00	 0.00000000E+00	 0.00000000E+00
					 3.31486000E-04	-2.14410000E-03	-2.50239000E-03
					 3.38750000E-04	-6.03309000E-03	-2.37777000E-03
					 0.00000000E+00	 0.00000000E+00	 0.00000000E+00
					 0.00000000E+00	 0.00000000E+00	 0.00000000E+00
					 1.15508000E-05	-6.40518000E-03	-3.10462000E-05
					-8.74920000E-05	-6.65970000E-03	 4.77964000E-03
					 0.00000000E+00	 0.00000000E+00	 0.00000000E+00
					 0.00000000E+00	 0.00000000E+00	 0.00000000E+00
					 1.35748000E-05	-6.31318000E-03	-3.22233000E-05
					-3.63547000E-04	-6.57565000E-03	 4.88208000E-03
					 0.00000000E+00	 0.00000000E+00	 0.00000000E+00
					 4.25149000E-06	-1.75199000E-03	-4.09870000E-06
					-3.71521000E-05	-6.42916000E-03	 2.21452000E-03
					 4.21972000E-04	-2.15038000E-03	 2.54505000E-03
					 0.00000000E+00	 0.00000000E+00	 0.00000000E+00
					 1.12537000E-04	-6.60921000E-03	-4.85263000E-03
					 0.00000000E+00	 0.00000000E+00	 0.00000000E+00
					 3.92016000E-04	-6.52838000E-03	-4.95833000E-03
					 0.00000000E+00	 0.00000000E+00	 0.00000000E+00
					-4.13324000E-04	-2.12899000E-03	-2.55781000E-03
					 6.17078000E-05	-6.40580000E-03	-2.27981000E-03
					 2.84959000E-05	-1.82232000E-02	-1.30504000E-04
					-1.55180000E-03	-1.84266000E-02	 7.52916000E-03
					 2.39983000E-05	-1.96589000E-02	-1.64972000E-04
					-1.26215000E-03	-1.98516000E-02	 7.51667000E-03
					 2.68733000E-05	-1.09931000E-02	-6.71633000E-05
					-7.64425000E-04	-1.82968000E-02	 3.68994000E-03
					-1.35635000E-03	-1.12672000E-02	 6.39318000E-03
					 2.69310000E-05	-1.89708000E-02	-1.47977000E-04
					-1.40583000E-03	-1.91650000E-02	 7.49093000E-03
					 2.18744000E-05	-1.21714000E-02	-8.19505000E-05
					-6.14230000E-04	-1.97265000E-02	 3.63558000E-03
					-9.41505000E-04	-1.24368000E-02	 6.41003000E-03
					 1.61702000E-03	-1.83074000E-02	-7.80003000E-03
					 1.31177000E-03	-1.97521000E-02	-7.85615000E-03
					 1.41118000E-03	-1.11823000E-02	-6.54028000E-03
					 8.23029000E-04	-1.82370000E-02	-3.95461000E-03
					 1.46672000E-03	-1.90611000E-02	-7.79363000E-03
					 9.88708000E-04	-1.23595000E-02	-6.58768000E-03
					 6.67238000E-04	-1.96780000E-02	-3.96527000E-03
					 8.25153000E-06	-2.07964000E-02	-1.96129000E-04
					-9.57071000E-04	-2.09639000E-02	 7.46141000E-03
					 1.65295000E-05	-2.02540000E-02	-1.80628000E-04
					-1.10790000E-03	-2.04670000E-02	 7.54413000E-03
					 1.26650000E-05	-1.29247000E-02	-9.50071000E-05
					-4.81786000E-04	-2.08473000E-02	 3.53881000E-03
					-5.26658000E-04	-1.31843000E-02	 6.36448000E-03
					 1.00432000E-03	-2.08953000E-02	-7.86535000E-03
					 1.15807000E-03	-2.03535000E-02	-7.91934000E-03
					 5.66806000E-04	-1.31234000E-02	-6.56774000E-03
					 5.06396000E-04	-2.08156000E-02	-3.92957000E-03
					-2.14418000E-05	-3.51072000E-02	-3.02622000E-04
					-2.15173000E-03	-3.51963000E-02	 8.70998000E-03
					-2.20433000E-05	-3.71466000E-02	-3.82637000E-04
					-2.01652000E-03	-3.73358000E-02	 8.64749000E-03
					 1.54481000E-05	-2.63371000E-02	-2.08637000E-04
					-1.08280000E-03	-3.51351000E-02	 4.20489000E-03
					-1.82546000E-03	-2.65076000E-02	 8.27838000E-03
					-1.92681000E-05	-3.61452000E-02	-3.38862000E-04
					-2.08598000E-03	-3.62974000E-02	 8.62968000E-03
					 1.12027000E-05	-2.80723000E-02	-2.68731000E-04
					-1.04435000E-03	-3.72295000E-02	 4.07244000E-03
					-1.62011000E-03	-2.82428000E-02	 8.24195000E-03
					 2.07980000E-03	-3.50831000E-02	-9.30088000E-03
					 1.97687000E-03	-3.71463000E-02	-9.43260000E-03
					 1.85778000E-03	-2.63705000E-02	-8.70101000E-03
					 1.02942000E-03	-3.50819000E-02	-4.79914000E-03
					 2.02820000E-03	-3.61265000E-02	-9.32157000E-03
					 1.65171000E-03	-2.81074000E-02	-8.78609000E-03
					 9.77884000E-04	-3.71385000E-02	-4.85797000E-03
					-3.89723000E-05	-3.90829000E-02	-4.61695000E-04
					-1.99289000E-03	-3.93846000E-02	 8.54864000E-03
					-2.86290000E-05	-3.81432000E-02	-4.25416000E-04
					-2.00551000E-03	-3.82584000E-02	 8.67572000E-03
					 4.66986000E-06	-2.96013000E-02	-3.25023000E-04
					-9.84807000E-04	-3.92269000E-02	 3.90064000E-03
					-1.44968000E-03	-2.97889000E-02	 8.16523000E-03
					 1.87685000E-03	-3.91197000E-02	-9.51864000E-03
					 1.92796000E-03	-3.81414000E-02	-9.54757000E-03
					 1.42718000E-03	-2.96401000E-02	-8.82490000E-03
					 9.09536000E-04	-3.91016000E-02	-4.86879000E-03
					-1.07293000E-04	-5.33037000E-02	-4.97211000E-04
					-2.68061000E-03	-5.32539000E-02	 8.54575000E-03