# vtk DataFile Version 3.0

ASCII
DATASET UNSTRUCTURED_GRID

POINTS 522 double
	 1.00000000E+00	 1.00000000E+00	-5.96046000E-08
	 1.00000000E+00	 5.00000000E-01	-5.96046000E-08
	 1.00000000E+00	 5.00000000E-01	 1.00000000E+00
	 1.00000000E+00	 1.00000000E+00	 1.00000000E+00
	 5.00000000E-01	 1.00000000E+00	-5.96046000E-08
	 5.00000000E-01	 5.00000000E-01	-5.96046000E-08
	 5.00000000E-01	 5.00000000E-01	 1.00000000E+00
	 5.00000000E-01	 1.00000000E+00	 1.00000000E+00
	 1.00000000E+00	 7.50000000E-01	-5.96046000E-08
	 1.00000000E+00	 5.00000000E-01	 5.00000000E-01
	 1.00000000E+00	 7.50000000E-01	 1.00000000E+00
	 1.00000000E+00	 1.00000000E+00	 5.00000000E-01
	 7.50000000E-01	 1.00000000E+00	-5.96046000E-08
	 7.50000000E-01	 5.00000000E-01	-5.96046000E-08
	 7.50000000E-01	 5.00000000E-01	 1.00000000E+00
	 7.50000000E-01	 1.00000000E+00	 1.00000000E+00
	 5.00000000E-01	 7.50000000E-01	-5.96046000E-08
	 5.00000000E-01	 5.00000000E-01	 5.00000000E-01
	 5.00000000E-01	 7.50000000E-01	 1.00000000E+00
	 5.00000000E-01	 1.00000000E+00	 5.00000000E-01
	 1.00000000E+00	-1.49012000E-08	-5.96046000E-08
	 1.00000000E+00	-1.49012000E-08	 1.00000000E+00
	 5.00000000E-01	-1.49012000E-08	-5.96046000E-08
	 5.00000000E-01	-1.49012000E-08	 1.00000000E+00
	 1.00000000E+00	 2.50000000E-01	-5.96046000E-08
	 1.00000000E+00	-1.49012000E-08	 5.00000000E-01
	 1.00000000E+00	 2.50000000E-01	 1.00000000E+00
	 7.50000000E-01	-1.49012000E-08	-5.96046000E-08
	 7.50000000E-01	-1.49012000E-08	 1.00000000E+00
	 5.00000000E-01	 2.50000000E-01	-5.96046000E-08
	 5.00000000E-01	-1.49012000E-08	 5.00000000E-01
	 5.00000000E-01	 2.50000000E-01	 1.00000000E+00
	-7.45058000E-09	 1.00000000E+00	-5.96046000E-08
	-7.45058000E-09	 5.00000000E-01	-5.96046000E-08
	-7.45058000E-09	 5.00000000E-01	 1.00000000E+00
	-7.45058000E-09	 1.00000000E+00	 1.00000000E+00
	 2.50000000E-01	 1.00000000E+00	-5.96046000E-08
	 2.50000000E-01	 5.00000000E-01	-5.96046000E-08
	 2.50000000E-01	 5.00000000E-01	 1.00000000E+00
	 2.50000000E-01	 1.00000000E+00	 1.00000000E+00
	-7.45058000E-09	 7.50000000E-01	-5.96046000E-08
	-7.45058000E-09	 5.00000000E-01	 5.00000000E-01
	-7.45058000E-09	 7.50000000E-01	 1.00000000E+00
	-7.45058000E-09	 1.00000000E+00	 5.00000000E-01
	-7.45058000E-09	-1.49012000E-08	-5.96046000E-08
	-7.45058000E-09	-1.49012000E-08	 1.00000000E+00
	 2.50000000E-01	-1.49012000E-08	-5.96046000E-08
	 2.50000000E-01	-1.49012000E-08	 1.00000000E+00
	-7.45058000E-09	 2.50000000E-01	-5.96046000E-08
	-7.45058000E-09	-1.49012000E-08	 5.00000000E-01
	-7.45058000E-09	 2.50000000E-01	 1.00000000E+00
	 1.00000000E+00	 5.00000000E-01	 2.00000000E+00
	 1.00000000E+00	 1.00000000E+00	 2.00000000E+00
	 5.00000000E-01	 5.00000000E-01	 2.00000000E+00
	 5.00000000E-01	 1.00000000E+00	 2.00000000E+00
	 1.00000000E+00	 5.00000000E-01	 1.50000000E+00
	 1.00000000E+00	 7.50000000E-01	 2.00000000E+00
	 1.00000000E+00	 1.00000000E+00	 1.50000000E+00
	 7.50000000E-01	 5.00000000E-01	 2.00000000E+00
	 7.50000000E-01	 1.00000000E+00	 2.00000000E+00
	 5.00000000E-01	 5.00000000E-01	 1.50000000E+00
	 5.00000000E-01	 7.50000000E-01	 2.00000000E+00
	 5.00000000E-01	 1.00000000E+00	 1.50000000E+00
	 1.00000000E+00	-1.49012000E-08	 2.00000000E+00
	 5.00000000E-01	-1.49012000E-08	 2.00000000E+00
	 1.00000000E+00	-1.49012000E-08	 1.50000000E+00
	 1.00000000E+00	 2.50000000E-01	 2.00000000E+00
	 7.50000000E-01	-1.49012000E-08	 2.00000000E+00
	 5.00000000E-01	-1.49012000E-08	 1.50000000E+00
	 5.00000000E-01	 2.50000000E-01	 2.00000000E+00
	-7.45058000E-09	 5.00000000E-01	 2.00000000E+00
	-7.45058000E-09	 1.00000000E+00	 2.00000000E+00
	 2.50000000E-01	 5.00000000E-01	 2.00000000E+00
	 2.50000000E-01	 1.00000000E+00	 2.00000000E+00
	-7.45058000E-09	 5.00000000E-01	 1.50000000E+00
	-7.45058000E-09	 7.50000000E-01	 2.00000000E+00
	-7.45058000E-09	 1.00000000E+00	 1.50000000E+00
	-7.45058000E-09	-1.49012000E-08	 2.00000000E+00
	 2.50000000E-01	-1.49012000E-08	 2.00000000E+00
	-7.45058000E-09	-1.49012000E-08	 1.50000000E+00
	-7.45058000E-09	 2.50000000E-01	 2.00000000E+00
	 1.00000000E+00	 5.00000000E-01	 3.00000000E+00
	 1.00000000E+00	 1.00000000E+00	 3.00000000E+00
	 5.00000000E-01	 5.00000000E-01	 3.00000000E+00
	 5.00000000E-01	 1.00000000E+00	 3.00000000E+00
	 1.00000000E+00	 5.00000000E-01	 2.50000000E+00
	 1.00000000E+00	 7.50000000E-01	 3.00000000E+00
	 1.00000000E+00	 1.00000000E+00	 2.50000000E+00
	 7.50000000E-01	 5.00000000E-01	 3.00000000E+00
	 7.50000000E-01	 1.00000000E+00	 3.00000000E+00
	 5.00000000E-01	 5.00000000E-01	 2.50000000E+00
	 5.00000000E-01	 7.50000000E-01	 3.00000000E+00
	 5.00000000E-01	 1.00000000E+00	 2.50000000E+00
	 1.00000000E+00	-1.49012000E-08	 3.00000000E+00
	 5.00000000E-01	-1.49012000E-08	 3.00000000E+00
	 1.00000000E+00	-1.49012000E-08	 2.50000000E+00
	 1.00000000E+00	 2.50000000E-01	 3.00000000E+00
	 7.50000000E-01	-1.49012000E-08	 3.00000000E+00
	 5.00000000E-01	-1.49012000E-08	 2.50000000E+00
	 5.00000000E-01	 2.50000000E-01	 3.00000000E+00
	-7.45058000E-09	 5.00000000E-01	 3.00000000E+00
	-7.45058000E-09	 1.00000000E+00	 3.00000000E+00
	 2.50000000E-01	 5.00000000E-01	 3.00000000E+00
	 2.50000000E-01	 1.00000000E+00	 3.00000000E+00
	-7.45058000E-09	 5.00000000E-01	 2.50000000E+00
	-7.45058000E-09	 7.50000000E-01	 3.00000000E+00
	-7.45058000E-09	 1.00000000E+00	 2.50000000E+00
	-7.45058000E-09	-1.49012000E-08	 3.00000000E+00
	 2.50000000E-01	-1.49012000E-08	 3.00000000E+00
	-7.45058000E-09	-1.49012000E-08	 2.50000000E+00
	-7.45058000E-09	 2.50000000E-01	 3.00000000E+00
	 1.00000000E+00	 5.00000000E-01	 4.00000000E+00
	 1.00000000E+00	 1.00000000E+00	 4.00000000E+00
	 5.00000000E-01	 5.00000000E-01	 4.00000000E+00
	 5.00000000E-01	 1.00000000E+00	 4.00000000E+00
	 1.00000000E+00	 5.00000000E-01	 3.50000000E+00
	 1.00000000E+00	 7.50000000E-01	 4.00000000E+00
	 1.00000000E+00	 1.00000000E+00	 3.50000000E+00
	 7.50000000E-01	 5.00000000E-01	 4.00000000E+00
	 7.50000000E-01	 1.00000000E+00	 4.00000000E+00
	 5.00000000E-01	 5.00000000E-01	 3.50000000E+00
	 5.00000000E-01	 7.50000000E-01	 4.00000000E+00
	 5.00000000E-01	 1.00000000E+00	 3.50000000E+00
	 1.00000000E+00	-1.49012000E-08	 4.00000000E+00
	 5.00000000E-01	-1.49012000E-08	 4.00000000E+00
	 1.00000000E+00	-1.49012000E-08	 3.50000000E+00
	 1.00000000E+00	 2.50000000E-01	 4.00000000E+00
	 7.50000000E-01	-1.49012000E-08	 4.00000000E+00
	 5.00000000E-01	-1.49012000E-08	 3.50000000E+00
	 5.00000000E-01	 2.50000000E-01	 4.00000000E+00
	-7.45058000E-09	 5.00000000E-01	 4.00000000E+00
	-7.45058000E-09	 1.00000000E+00	 4.00000000E+00
	 2.50000000E-01	 5.00000000E-01	 4.00000000E+00
	 2.50000000E-01	 1.00000000E+00	 4.00000000E+00
	-7.45058000E-09	 5.00000000E-01	 3.50000000E+00
	-7.45058000E-09	 7.50000000E-01	 4.00000000E+00
	-7.45058000E-09	 1.00000000E+00	 3.50000000E+00
	-7.45058000E-09	-1.49012000E-08	 4.00000000E+00
	 2.50000000E-01	-1.49012000E-08	 4.00000000E+00
	-7.45058000E-09	-1.49012000E-08	 3.50000000E+00
	-7.45058000E-09	 2.50000000E-01	 4.00000000E+00
	 1.00000000E+00	 5.00000000E-01	 5.00000000E+00
	 1.00000000E+00	 1.00000000E+00	 5.00000000E+00
	 5.00000000E-01	 5.00000000E-01	 5.00000000E+00
	 5.00000000E-01	 1.00000000E+00	 5.00000000E+00
	 1.00000000E+00	 5.00000000E-01	 4.50000000E+00
	 1.00000000E+00	 7.50000000E-01	 5.00000000E+00
	 1.00000000E+00	 1.00000000E+00	 4.50000000E+00
	 7.50000000E-01	 5.00000000E-01	 5.00000000E+00
	 7.50000000E-01	 1.00000000E+00	 5.00000000E+00
	 5.00000000E-01	 5.00000000E-01	 4.50000000E+00
	 5.00000000E-01	 7.50000000E-01	 5.00000000E+00
	 5.00000000E-01	 1.00000000E+00	 4.50000000E+00
	 1.00000000E+00	-1.49012000E-08	 5.00000000E+00
	 5.00000000E-01	-1.49012000E-08	 5.00000000E+00
	 1.00000000E+00	-1.49012000E-08	 4.50000000E+00
	 1.00000000E+00	 2.50000000E-01	 5.00000000E+00
	 7.50000000E-01	-1.49012000E-08	 5.00000000E+00
	 5.00000000E-01	-1.49012000E-08	 4.50000000E+00
	 5.00000000E-01	 2.50000000E-01	 5.00000000E+00
	-7.45058000E-09	 5.00000000E-01	 5.00000000E+00
	-7.45058000E-09	 1.00000000E+00	 5.00000000E+00
	 2.50000000E-01	 5.00000000E-01	 5.00000000E+00
	 2.50000000E-01	 1.00000000E+00	 5.00000000E+00
	-7.45058000E-09	 5.00000000E-01	 4.50000000E+00
	-7.45058000E-09	 7.50000000E-01	 5.00000000E+00
	-7.45058000E-09	 1.00000000E+00	 4.50000000E+00
	-7.45058000E-09	-1.49012000E-08	 5.00000000E+00
	 2.50000000E-01	-1.49012000E-08	 5.00000000E+00
	-7.45058000E-09	-1.49012000E-08	 4.50000000E+00
	-7.45058000E-09	 2.50000000E-01	 5.00000000E+00
	 1.00000000E+00	 5.00000000E-01	 6.00000000E+00
	 1.00000000E+00	 1.00000000E+00	 6.00000000E+00
	 5.00000000E-01	 5.00000000E-01	 6.00000000E+00
	 5.00000000E-01	 1.00000000E+00	 6.00000000E+00
	 1.00000000E+00	 5.00000000E-01	 5.50000000E+00
	 1.00000000E+00	 7.50000000E-01	 6.00000000E+00
	 1.00000000E+00	 1.00000000E+00	 5.50000000E+00
	 7.50000000E-01	 5.00000000E-01	 6.00000000E+00
	 7.50000000E-01	 1.00000000E+00	 6.00000000E+00
	 5.00000000E-01	 5.00000000E-01	 5.50000000E+00
	 5.00000000E-01	 7.50000000E-01	 6.00000000E+00
	 5.00000000E-01	 1.00000000E+00	 5.50000000E+00
	 1.00000000E+00	-1.49012000E-08	 6.00000000E+00
	 5.00000000E-01	-1.49012000E-08	 6.00000000E+00
	 1.00000000E+00	-1.49012000E-08	 5.50000000E+00
	 1.00000000E+00	 2.50000000E-01	 6.00000000E+00
	 7.50000000E-01	-1.49012000E-08	 6.00000000E+00
	 5.00000000E-01	-1.49012000E-08	 5.50000000E+00
	 5.00000000E-01	 2.50000000E-01	 6.00000000E+00
	-7.45058000E-09	 5.00000000E-01	 6.00000000E+00
	-7.45058000E-09	 1.00000000E+00	 6.00000000E+00
	 2.50000000E-01	 5.00000000E-01	 6.00000000E+00
	 2.50000000E-01	 1.00000000E+00	 6.00000000E+00
	-7.45058000E-09	 5.00000000E-01	 5.50000000E+00
	-7.45058000E-09	 7.50000000E-01	 6.00000000E+00
	-7.45058000E-09	 1.00000000E+00	 5.50000000E+00
	-7.45058000E-09	-1.49012000E-08	 6.00000000E+00
	 2.50000000E-01	-1.49012000E-08	 6.00000000E+00
	-7.45058000E-09	-1.49012000E-08	 5.50000000E+00
	-7.45058000E-09	 2.50000000E-01	 6.00000000E+00
	 1.00000000E+00	 5.00000000E-01	 7.00000000E+00
[...]
POINT_DATA 522
FIELD U 1
	U 3 522 double
		 0.00000000E+00	 0.00000000E+00	 0.00000000E+00
		 0.00000000E+00	 0.00000000E+00	 0.00000000E+00
		 1.57937000E-08	-8.10294000E-07	-3.59593000E-07
		-1.95140000E-05	-1.77256000E-07	 4.76524000E-06
		 0.00000000E+00	 0.00000000E+00	 0.00000000E+00
		 0.00000000E+00	 0.00000000E+00	 0.00000000E+00
		-4.02788000E-08	-2.13057000E-05	-4.16333000E-07
		-2.13874000E-05	-2.04005000E-05	 5.50013000E-06
		 0.00000000E+00	 0.00000000E+00	 0.00000000E+00
		 5.64753000E-08	 1.17047000E-06	-1.80466000E-07
		-9.74923000E-06	-5.14322000E-07	 2.80007000E-06
		-9.53989000E-06	 6.12320000E-07	 5.10386000E-06
		 0.00000000E+00	 0.00000000E+00	 0.00000000E+00
		 0.00000000E+00	 0.00000000E+00	 0.00000000E+00
		-1.05566000E-08	-1.10403000E-05	-3.90803000E-07
		-2.04091000E-05	-1.02135000E-05	 3.23106000E-06
		 0.00000000E+00	 0.00000000E+00	 0.00000000E+00
		-7.49797000E-09	-8.21457000E-06	-1.89505000E-07
		-1.06681000E-05	-2.08098000E-05	 1.18417000E-06
		-9.19212000E-06	-8.47016000E-06	 5.24297000E-06
		 0.00000000E+00	 0.00000000E+00	 0.00000000E+00
		 1.95546000E-05	-2.67719000E-07	-5.48016000E-06
		 0.00000000E+00	 0.00000000E+00	 0.00000000E+00
		 2.13183000E-05	-2.05126000E-05	-6.32399000E-06
		 0.00000000E+00	 0.00000000E+00	 0.00000000E+00
		 9.66000000E-06	 5.01688000E-07	-5.48114000E-06
		 9.78026000E-06	-5.55710000E-07	-3.51096000E-06
		 0.00000000E+00	 0.00000000E+00	 0.00000000E+00
		 2.04003000E-05	-1.03167000E-05	-4.00666000E-06
		 0.00000000E+00	 0.00000000E+00	 0.00000000E+00
		 9.18701000E-06	-8.59455000E-06	-5.64257000E-06
		 1.05894000E-05	-2.08710000E-05	-2.00481000E-06
		 0.00000000E+00	 0.00000000E+00	 0.00000000E+00
		 0.00000000E+00	 0.00000000E+00	 0.00000000E+00
		-1.00113000E-07	-4.35155000E-05	-4.49905000E-07
		-2.22182000E-05	-4.18160000E-05	 4.68429000E-06
		 0.00000000E+00	 0.00000000E+00	 0.00000000E+00
		 0.00000000E+00	 0.00000000E+00	 0.00000000E+00
		-6.83916000E-08	-3.22978000E-05	-4.35279000E-07
		-2.17938000E-05	-3.12105000E-05	 7.59145000E-06
		 0.00000000E+00	 0.00000000E+00	 0.00000000E+00
		-7.67641000E-08	-1.72077000E-05	-2.17820000E-07
		-1.13383000E-05	-4.26301000E-05	-1.68876000E-06
		-7.93209000E-06	-1.68296000E-05	 5.06275000E-06
		 0.00000000E+00	 0.00000000E+00	 0.00000000E+00
		 2.20262000E-05	-4.19399000E-05	-5.56819000E-06
		 0.00000000E+00	 0.00000000E+00	 0.00000000E+00
		 2.16606000E-05	-3.13279000E-05	-8.44958000E-06
		 0.00000000E+00	 0.00000000E+00	 0.00000000E+00
		 7.78402000E-06	-1.69681000E-05	-5.52390000E-06
		 1.11379000E-05	-4.26995000E-05	 8.02114000E-07
		-2.13343000E-07	 2.63170000E-05	-5.75902000E-07
		-5.46854000E-05	 3.13799000E-05	-3.39877000E-05
		-2.15670000E-07	-3.52462000E-05	-6.42664000E-07
		-6.78820000E-05	-2.92246000E-05	-3.25332000E-05
		-8.25386000E-08	 1.68589000E-06	-4.88625000E-07
		-2.75135000E-05	 2.73888000E-05	-1.66278000E-05
		-3.34602000E-05	 4.61168000E-06	-6.23926000E-06
		-2.12220000E-07	-3.08563000E-06	-6.16319000E-07
		-6.12671000E-05	 2.61891000E-06	-3.69299000E-05
		-1.09808000E-07	-3.47866000E-05	-5.71005000E-07
		-3.39613000E-05	-3.36547000E-05	-1.97774000E-05
		-3.95021000E-05	-3.15731000E-05	-5.14455000E-06
		 5.42235000E-05	 3.13208000E-05	 3.29155000E-05
		 6.74119000E-05	-2.92418000E-05	 3.13292000E-05
		 3.32931000E-05	 4.52096000E-06	 5.26942000E-06
		 2.70843000E-05	 2.73316000E-05	 1.54852000E-05
		 6.07976000E-05	 2.58752000E-06	 3.57761000E-05
		 3.92712000E-05	-3.16633000E-05	 4.02544000E-06
		 3.35202000E-05	-3.36538000E-05	 1.84915000E-05
		-2.14543000E-07	-1.08977000E-04	-6.83404000E-07
		-7.87451000E-05	-1.01647000E-04	-3.41141000E-05
		-2.21502000E-07	-7.05684000E-05	-6.52265000E-07
		-7.32404000E-05	-6.41961000E-05	-2.77367000E-05
		-1.41003000E-07	-7.70901000E-05	-6.28925000E-07
		-3.97135000E-05	-1.06713000E-04	-2.59734000E-05
		-4.44947000E-05	-7.31277000E-05	-6.36181000E-06
		 7.83155000E-05	-1.01630000E-04	 3.28166000E-05
		 7.27983000E-05	-6.41931000E-05	 2.65096000E-05
		 4.42178000E-05	-7.32200000E-05	 5.15008000E-06
		 3.92895000E-05	-1.06687000E-04	 2.46059000E-05
		-3.65938000E-07	 2.87475000E-04	-3.44539000E-07
		-1.52089000E-04	 2.97461000E-04	-1.74241000E-04
		-2.46835000E-07	 1.16073000E-04	-2.01704000E-07
		-1.84951000E-04	 1.30066000E-04	-1.74098000E-04
		-3.35104000E-07	 1.03804000E-04	-5.80105000E-07
		-7.69470000E-05	 2.88298000E-04	-7.74739000E-05
		-9.05287000E-05	 1.12296000E-04	-9.14570000E-05
		-3.19286000E-07	 2.05323000E-04	-3.22693000E-07
		-1.68535000E-04	 2.18165000E-04	-1.85592000E-04
		-3.17846000E-07	 1.28284000E-06	-5.57535000E-07
		-9.23893000E-05	 1.18950000E-04	-8.89378000E-05
		-1.12962000E-04	 1.16484000E-05	-8.94804000E-05
		 1.51341000E-04	 2.97871000E-04	 1.73561000E-04
		 1.84481000E-04	 1.30591000E-04	 1.73716000E-04
		 8.98203000E-05	 1.12453000E-04	 9.04326000E-05
		 7.61785000E-05	 2.88585000E-04	 7.68434000E-05
		 1.67932000E-04	 2.18610000E-04	 1.84939000E-04
		 1.12318000E-04	 1.18966000E-05	 8.84683000E-05
		 9.19043000E-05	 1.19164000E-04	 8.86080000E-05
		-1.31875000E-08	-8.19626000E-05	 1.55666000E-07
		-2.12402000E-04	-6.67007000E-05	-1.73665000E-04
		-1.37324000E-07	 2.10430000E-05	-5.27991000E-08
		-1.98488000E-04	 3.52603000E-05	-1.60822000E-04
		-2.27027000E-07	-1.21467000E-04	-4.51986000E-07
		-1.06312000E-04	-7.81894000E-05	-1.01431000E-04
		-1.32142000E-04	-1.09822000E-04	-9.13741000E-05
		 2.12263000E-04	-6.60335000E-05	 1.74036000E-04
		 1.98103000E-04	 3.58312000E-05	 1.60783000E-04
		 1.31629000E-04	-1.09495000E-04	 9.05084000E-05
		 1.06247000E-04	-7.79247000E-05	 1.01780000E-04
		-4.82629000E-08	 1.25424000E-03	 1.29949000E-06
		-4.67836000E-04	 1.24002000E-03	-3.23615000E-04
		 9.60944000E-07	 7.75886000E-04	 1.77782000E-06
		-4.71630000E-04	 7.72307000E-04	-3.35191000E-04
		-2.97320000E-07	 6.57471000E-04	 1.83883000E-07
		-2.37117000E-04	 1.24480000E-03	-1.06555000E-04
		-2.70168000E-04	 6.58119000E-04	-2.76765000E-04
		 4.80122000E-07	 1.01531000E-03	 1.69787000E-06
		-4.69657000E-04	 1.00979000E-03	-3.63326000E-04
		 2.42011000E-07	 3.68864000E-04	 5.32904000E-07
		-2.34768000E-04	 7.71060000E-04	-1.45546000E-04
		-2.98099000E-04	 3.76451000E-04	-2.79865000E-04
		 4.67776000E-04	 1.24184000E-03	 3.27030000E-04
		 4.73579000E-04	 7.73856000E-04	 3.39396000E-04
		 2.69554000E-04	 6.58824000E-04	 2.77148000E-04
		 2.37238000E-04	 1.24529000E-03	 1.09184000E-04
		 4.70548000E-04	 1.01166000E-03	 3.67580000E-04
		 2.98498000E-04	 3.77197000E-04	 2.81058000E-04
		 2.36758000E-04	 7.71951000E-04	 1.49076000E-04
		 1.61061000E-06	 3.09085000E-04	 2.30161000E-06
		-4.65381000E-04	 3.05223000E-04	-3.23054000E-04
		 1.25669000E-06	 5.43690000E-04	 1.94185000E-06
		-4.67959000E-04	 5.40634000E-04	-3.05147000E-04
		 6.67054000E-07	 6.08488000E-05	 1.11534000E-06
		-2.30438000E-04	 3.04961000E-04	-1.63832000E-04
		-3.18570000E-04	 6.88343000E-05	-2.75672000E-04
		 4.69070000E-04	 3.06437000E-04	 3.27936000E-04
		 4.70935000E-04	 5.42039000E-04	 3.09344000E-04
		 3.19957000E-04	 6.96538000E-05	 2.78240000E-04
		 2.33879000E-04	 3.05794000E-04	 1.68477000E-04
		-2.30989000E-06	 2.85741000E-03	 1.01086000E-05
		-1.30313000E-03	 2.74140000E-03	 2.78647000E-04
		 1.36931000E-07	 1.65872000E-03	 6.49227000E-06
		-1.08958000E-03	 1.54962000E-03	 2.46422000E-04
		 1.96592000E-08	 2.07967000E-03	 4.09847000E-06
		-6.54667000E-04	 2.82532000E-03	 2.88126000E-04
		-8.07424000E-04	 2.01253000E-03	-1.86445000E-04
		-9.26549000E-07	 2.23041000E-03	 8.25572000E-06
		-1.19529000E-03	 2.12007000E-03	 1.80813000E-04
		 1.32009000E-06	 1.30249000E-03	 3.61300000E-06
		-5.44561000E-04	 1.63131000E-03	 1.92776000E-04
		-7.29233000E-04	 1.24833000E-03	-2.10682000E-04
		 1.30067000E-03	 2.75187000E-03	-2.58587000E-04
		 1.09249000E-03	 1.55616000E-03	-2.33226000E-04
		 8.08275000E-04	 2.01770000E-03	 1.96393000E-04
		 6.49817000E-04	 2.83167000E-03	-2.67759000E-04
		 1.19630000E-03	 2.12824000E-03	-1.64395000E-04
		 7.33202000E-04	 1.25204000E-03	 2.18931000E-04
		 5.45414000E-04	 1.63396000E-03	-1.79110000E-04
		 1.76049000E-06	 6.74808000E-04	 3.81156000E-06
		-8.68306000E-04	 5.72620000E-04	 2.73327000E-04
		 1.23248000E-06	 1.14087000E-03	 4.82228000E-06
		-9.79130000E-04	 1.03295000E-03	 3.01691000E-04
		 2.19173000E-06	 6.17290000E-04	 3.31202000E-06
		-4.35109000E-04	 6.51630000E-04	 1.58413000E-04
		-6.37305000E-04	 5.66825000E-04	-1.88177000E-04
		 8.72889000E-04	 5.75940000E-04	-2.65040000E-04
		 9.82751000E-04	 1.03767000E-03	-2.91418000E-04
		 6.42517000E-04	 5.68618000E-04	 1.94732000E-04
		 4.38708000E-04	 6.52368000E-04	-1.50350000E-04
		-1.62011000E-05	 1.86062000E-03	 1.51559000E-05
		-2.51998000E-03	 1.65674000E-03	 2.61128000E-03
		-9.37238000E-06	-4.05754000E-04	 7.53914000E-06
		-2.07433000E-03	-6.29062000E-04	 2.60550000E-03
		-9.30901000E-06	 3.03339000E-03	 1.69652000E-05
		-1.25934000E-03	 1.81978000E-03	 1.38544000E-03
		-1.91564000E-03	 2.86965000E-03	 1.28391000E-03
		-1.24916000E-05	 6.73164000E-04	 1.11096000E-05
		-2.29817000E-03	 4.52258000E-04	 2.53478000E-03
		-4.52382000E-06	 1.30798000E-03	 9.00636000E-06
		-1.04105000E-03	-4.58360000E-04	 1.30359000E-03
		-1.55793000E-03	 1.14039000E-03	 1.25181000E-03
		 2.48442000E-03	 1.67796000E-03	-2.57963000E-03
		 2.05316000E-03	-6.08106000E-04	-2.58749000E-03
		 1.89788000E-03	 2.88184000E-03	-1.25310000E-03
		 1.22813000E-03	 1.82785000E-03	-1.35558000E-03
		 2.26905000E-03	 4.73729000E-04	-2.50892000E-03
		 1.54929000E-03	 1.14892000E-03	-1.23367000E-03
		 1.02196000E-03	-4.44792000E-04	-1.28900000E-03
		-5.43967000E-06	-2.26664000E-03	-1.53772000E-06
		-1.63615000E-03	-2.48246000E-03	 2.59510000E-03
		-7.34428000E-06	-1.39381000E-03	 4.13521000E-06
		-1.85379000E-03	-1.61679000E-03	 2.67759000E-03
		-2.21449000E-06	-7.38169000E-05	 1.80412000E-06
		-8.25162000E-04	-2.31789000E-03	 1.21816000E-03
		-1.19348000E-03	-2.28777000E-04	 1.27350000E-03
		 1.63128000E-03	-2.46056000E-03	-2.59542000E-03
		 1.84241000E-03	-1.59259000E-03	-2.66849000E-03
		 1.19343000E-03	-2.23557000E-04	-1.26539000E-03
		 8.16235000E-04	-2.30382000E-03	-1.21977000E-03
		 2.95033000E-05	-5.96990000E-03	-6.40684000E-06
		-2.79420000E-03	-6.09806000E-03	 4.72871000E-03
		 2.79775000E-05	-8.73469000E-03	-3.21059000E-05
		-2.64639000E-03	-8.83958000E-03	 4.74664000E-03
		 1.59477000E-06	-1.27157000E-03	-4.10816000E-07
		-1.39088000E-03	-6.02295000E-03	 2.28771000E-03
		-2.82360000E-03	-1.43150000E-03	 3.89049000E-03
		 2.80637000E-05	-7.37437000E-03	-1.68124000E-05
		-2.71866000E-03	-7.48894000E-03	 4.74547000E-03
		 2.84843000E-06	-3.91204000E-03	-3.00992000E-06
		-1.31551000E-03	-8.76244000E-03	 2.28976000E-03
		-2.47009000E-03	-4.09142000E-03	 3.91417000E-03
		 2.87883000E-03	-5.99412000E-03	-4.76924000E-03
		 2.72042000E-03	-8.77646000E-03	-4.83006000E-03
		 2.82581000E-03	-1.37258000E-03	-3.88163000E-03
		 1.45227000E-03	-5.95687000E-03	-2.31221000E-03
		 2.80367000E-03	-7.40607000E-03	-4.80518000E-03
		 2.48326000E-03	-4.03324000E-03	-3.92333000E-03
		 1.37475000E-03	-8.73992000E-03	-2.35606000E-03
		 2.62841000E-05	-1.13369000E-02	-5.26709000E-05
		-2.51717000E-03	-1.14492000E-02	 4.71306000E-03
		 2.72821000E-05	-1.00540000E-02	-4.70272000E-05
		-2.58571000E-03	-1.01563000E-02	 4.76543000E-03
		 4.51994000E-06	-6.22983000E-03	-9.05443000E-06
		-1.23959000E-03	-1.13657000E-02	 2.22579000E-03
		-2.15455000E-03	-6.41018000E-03	 3.86487000E-03
		 2.56868000E-03	-1.14046000E-02	-4.80823000E-03
		 2.64404000E-03	-1.01096000E-02	-4.85872000E-03
		 2.16176000E-03	-6.36124000E-03	-3.90033000E-03
		 1.29420000E-03	-1.13568000E-02	-2.32325000E-03
		 5.17374000E-05	-1.62475000E-02	-7.69148000E-05
		-2.85453000E-03	-1.61512000E-02	 4.84054000E-03
		 9.09533000E-05	-1.92049000E-02	-1.00144000E-04
		-2.84896000E-03	-1.93683000E-02	 5.04998000E-03
		 2.75573000E-05	-1.11851000E-02	-1.75893000E-05
		-1.34535000E-03	-1.61735000E-02	 2.40416000E-03
		-2.80824000E-03	-1.11999000E-02	 4.90587000E-03
		 8.30810000E-05	-1.76888000E-02	-8.21669000E-05
		-2.85332000E-03	-1.77419000E-02	 4.90757000E-03
		 5.44036000E-05	-1.39957000E-02	-8.25921000E-05
		-1.33436000E-03	-1.93060000E-02	 2.43455000E-03
		-2.79455000E-03	-1.40660000E-02	 4.99121000E-03
		 2.75726000E-03	-1.63107000E-02	-5.04518000E-03
		 2.82500000E-03	-1.91245000E-02	-5.12441000E-03
		 2.81909000E-03	-1.11974000E-02	-5.03023000E-03
		 1.39220000E-03	-1.63127000E-02	-2.55339000E-03
		 2.78202000E-03	-1.77030000E-02	-5.09015000E-03
		 2.80040000E-03	-1.40052000E-02	-5.10758000E-03
		 1.44960000E-03	-1.91617000E-02	-2.61033000E-03
		 3.77903000E-05	-2.21117000E-02	-1.14560000E-04
		-2.82629000E-03	-2.23244000E-02	 5.06589000E-03
		 7.19833000E-05	-2.06723000E-02	-1.07958000E-04
		-2.84174000E-03	-2.08782000E-02	 5.09784000E-03
		 4.41178000E-05	-1.67829000E-02	-1.14870000E-04
		-1.40706000E-03	-2.22539000E-02	 2.42493000E-03
		-2.70936000E-03	-1.68882000E-02	 5.00839000E-03
		 2.85187000E-03	-2.19435000E-02	-5.14045000E-03
		 2.84520000E-03	-2.05368000E-02	-5.13694000E-03
		 2.77137000E-03	-1.67590000E-02	-5.11061000E-03
		 1.45423000E-03	-2.20091000E-02	-2.62645000E-03
		 0.00000000E+00	 0.00000000E+00	 0.00000000E+00
		 0.00000000E+00	 0.00000000E+00	 0.00000000E+00
		 7.10615000E-05	-1.13301000E-02	-1.51534000E-04
		-3.27423000E-03	-1.23213000E-02	 1.26886000E-02
		 0.00000000E+00	 0.00000000E+00	 0.00000000E+00
		 0.00000000E+00	 0.00000000E+00	 0.00000000E+00
		 6.38927000E-05	-1.37689000E-02	-1.80900000E-04
		-1.50513000E-03	-1.48110000E-02	 1.27806000E-02
		 0.00000000E+00	 0.00000000E+00	 0.00000000E+00
		 4.43831000E-05	-1.89205000E-03	-4.62538000E-05
		-1.60624000E-03	-1.15264000E-02	 6.32540000E-03
		-2.63899000E-03	-3.07438000E-03	 6.34676000E-03
		 0.00000000E+00	 0.00000000E+00	 0.00000000E+00
		 0.00000000E+00	 0.00000000E+00	 0.00000000E+00
		 6.91708000E-05	-1.28428000E-02	-1.70087000E-04
		-2.37480000E-03	-1.38537000E-02	 1.25782000E-02
		 0.00000000E+00	 0.00000000E+00	 0.00000000E+00
		 2.42214000E-05	-3.52306000E-03	-5.20571000E-05
		-7.20309000E-04	-1.39772000E-02	 6.19657000E-03
		-7.36603000E-04	-4.68318000E-03	 6.15538000E-03
		 0.00000000E+00	 0.00000000E+00	 0.00000000E+00
		 3.38753000E-03	-1.19339000E-02	-1.30478000E-02
		 0.00000000E+00	 0.00000000E+00	 0.00000000E+00
		 1.63785000E-03	-1.44192000E-02	-1.32036000E-02
		 0.00000000E+00	 0.00000000E+00	 0.00000000E+00
		 2.70751000E-03	-2.95147000E-03	-6.45762000E-03
		 1.73841000E-03	-1.13248000E-02	-6.64914000E-03
		 0.00000000E+00	 0.00000000E+00	 0.00000000E+00
		 2.50503000E-03	-1.34624000E-02	-1.29731000E-02
		 0.00000000E+00	 0.00000000E+00	 0.00000000E+00
		 7.86826000E-04	-4.56345000E-03	-6.26684000E-03
		 8.48682000E-04	-1.37775000E-02	-6.57950000E-03
		 0.00000000E+00	 0.00000000E+00	 0.00000000E+00
		 0.00000000E+00	 0.00000000E+00	 0.00000000E+00
		 5.03617000E-05	-1.44726000E-02	-1.61572000E-04
		 2.74450000E-04	-1.54400000E-02	 1.26828000E-02
		 0.00000000E+00	 0.00000000E+00	 0.00000000E+00
		 0.00000000E+00	 0.00000000E+00	 0.00000000E+00
		 5.70579000E-05	-1.44112000E-02	-1.80808000E-04
		-6.27157000E-04	-1.54180000E-02	 1.28578000E-02
		 0.00000000E+00	 0.00000000E+00	 0.00000000E+00
		 3.00081000E-06	-3.41452000E-03	-3.27336000E-05
		 1.62357000E-04	-1.46497000E-02	 6.02681000E-03
		 1.22358000E-03	-4.53708000E-03	 6.36419000E-03
		 0.00000000E+00	 0.00000000E+00	 0.00000000E+00
		-1.40963000E-04	-1.50657000E-02	-1.30569000E-02
		 0.00000000E+00	 0.00000000E+00	 0.00000000E+00
		 7.55324000E-04	-1.50288000E-02	-1.32797000E-02
		 0.00000000E+00	 0.00000000E+00	 0.00000000E+00
		-1.19825000E-03	-4.41383000E-03	-6.44059000E-03
		-4.83982000E-05	-1.44672000E-02	-6.36373000E-03
		 1.81748000E-04	-4.82214000E-02	-8.61763000E-04
		-4.54015000E-03	-4.95671000E-02	 2.31932000E-02
		 1.90751000E-04	-5.21777000E-02	-9.86696000E-04
		-3.01708000E-03	-5.35210000E-02	 2.31015000E-02
		 1.26817000E-04	-2.69036000E-02	-4.05345000E-04
		-2.17885000E-03	-4.87269000E-02	 1.11872000E-02
		-3.96375000E-03	-2.81409000E-02	 1.83317000E-02
		 1.88050000E-04	-5.03693000E-02	-9.34089000E-04
		-3.77688000E-03	-5.17118000E-02	 2.30548000E-02
		 1.19485000E-04	-3.01461000E-02	-4.75629000E-04
		-1.41015000E-03	-5.26801000E-02	 1.09953000E-02
		-2.28024000E-03	-3.13801000E-02	 1.83027000E-02
		 4.90460000E-03	-4.83197000E-02	-2.50020000E-02
		 3.40891000E-03	-5.23074000E-02	-2.51608000E-02
		 4.19677000E-03	-2.73756000E-02	-1.92213000E-02
		 2.53921000E-03	-4.80994000E-02	-1.29323000E-02
		 4.16196000E-03	-5.04924000E-02	-2.50040000E-02
		 2.52636000E-03	-3.06255000E-02	-1.93351000E-02
		 1.79855000E-03	-5.20776000E-02	-1.29863000E-02
		 1.80304000E-04	-5.46477000E-02	-1.03508000E-03
		-1.49500000E-03	-5.59484000E-02	 2.30166000E-02
		 1.86924000E-04	-5.35815000E-02	-1.02031000E-03
		-2.25362000E-03	-5.49425000E-02	 2.31787000E-02
		 1.01596000E-04	-3.17159000E-02	-4.80666000E-04
		-6.66466000E-04	-5.51175000E-02	 1.08003000E-02
		-6.13051000E-04	-3.29373000E-02	 1.82548000E-02
		 1.91143000E-03	-5.47886000E-02	-2.51726000E-02
		 2.66017000E-03	-5.37125000E-02	-2.53102000E-02
		 8.60876000E-04	-3.22176000E-02	-1.92955000E-02
		 1.04426000E-03	-5.45559000E-02	-1.28849000E-02
		 3.62823000E-04	-1.05416000E-01	-2.50458000E-03
		-5.52810000E-03	-1.07063000E-01	 3.03653000E-02
		 3.87872000E-04	-1.10682000E-01	-2.73974000E-03
		-4.31756000E-03	-1.12433000E-01	 3.01679000E-02
		 2.64470000E-04	-7.45718000E-02	-1.55298000E-03
		-2.57796000E-03	-1.06090000E-01	 1.39424000E-02
		-5.05506000E-03	-7.60927000E-02	 2.71850000E-02
		 3.79535000E-04	-1.08200000E-01	-2.62732000E-03
		-4.92205000E-03	-1.09909000E-01	 3.01682000E-02
		 2.78350000E-04	-7.92126000E-02	-1.73566000E-03
		-1.99127000E-03	-1.11407000E-01	 1.36255000E-02
		-3.69719000E-03	-8.07341000E-02	 2.70461000E-02
		 6.21537000E-03	-1.04856000E-01	-3.54390000E-02
		 5.10482000E-03	-1.10152000E-01	-3.57501000E-02
		 5.57695000E-03	-7.43656000E-02	-3.03794000E-02
		 3.28925000E-03	-1.04989000E-01	-1.89617000E-02
		 5.66120000E-03	-1.07652000E-01	-3.55156000E-02
		 4.27331000E-03	-7.90155000E-02	-3.06040000E-02
		 2.74619000E-03	-1.10278000E-01	-1.91454000E-02
		 3.88107000E-04	-1.14819000E-01	-2.90468000E-03
		-3.23526000E-03	-1.16666000E-01	 2.99593000E-02
		 3.90424000E-04	-1.12911000E-01	-2.83486000E-03
		-3.77819000E-03	-1.14589000E-01	 3.01898000E-02
		 2.81676000E-04	-8.25304000E-02	-1.84182000E-03
		-1.39677000E-03	-1.15589000E-01	 1.33019000E-02
		-2.39020000E-03	-8.40594000E-02	 2.69014000E-02
		 3.99182000E-03	-1.14335000E-01	-3.59008000E-02
		 4.55088000E-03	-1.12375000E-01	-3.59687000E-02
		 2.94766000E-03	-8.23543000E-02	-3.06730000E-02
		 2.17927000E-03	-1.14455000E-01	-1.91742000E-02
		 6.62672000E-04	-1.78275000E-01	-5.16495000E-03
		-5.96605000E-03	-1.80063000E-01	 3.38156000E-02
		 6.92330000E-04	-1.84599000E-01	-5.49415000E-03
		-5.36512000E-03	-1.86846000E-01	 3.35398000E-02
		 4.67008000E-04	-1.40197000E-01	-3.71253000E-03
		-2.64913000E-03	-1.79077000E-01	 1.42695000E-02
		-5.85720000E-03	-1.42024000E-01	 3.25563000E-02
		 6.81770000E-04	-1.81485000E-01	-5.33365000E-03
		-5.65304000E-03	-1.83453000E-01	 3.36489000E-02
		 4.89502000E-04	-1.46084000E-01	-4.04097000E-03
		-2.21636000E-03	-1.85613000E-01	 1.39307000E-02
		-4.95742000E-03	-1.47860000E-01	 3.23611000E-02
		 7.13500000E-03	-1.77039000E-01	-4.42001000E-02
		 6.46939000E-03	-1.83236000E-01	-4.45747000E-02
		 6.77145000E-03	-1.39282000E-01	-4.00503000E-02
		 3.89119000E-03	-1.77582000E-01	-2.46076000E-02
		 6.80878000E-03	-1.80222000E-01	-4.43717000E-02
		 5.88009000E-03	-1.45154000E-01	-4.04113000E-02
		 3.56700000E-03	-1.83816000E-01	-2.49338000E-02
		 5.62701000E-04	-1.90287000E-01	-5.77641000E-03
		-4.66449000E-03	-1.92870000E-01	 3.32187000E-02
		 6.31123000E-04	-1.87490000E-01	-5.64577000E-03
		-5.01124000E-03	-1.90435000E-01	 3.34440000E-02
		 4.66775000E-04	-1.51066000E-01	-4.33332000E-03
		-2.17111000E-03	-1.91450000E-01	 1.35513000E-02
		-3.91747000E-03	-1.52705000E-01	 3.20893000E-02
		 5.81574000E-03	-1.88792000E-01	-4.48032000E-02