<?xml version="1.0"?>
<VTKFile type="UnstructuredGrid" version="0.1" byte_order="LittleEndian">
	<UnstructuredGrid>
		<Piece NumberOfPoints="522" NumberOfCells="64">
			<Points>
				<DataArray type="Float64" NumberOfComponents="3" format="ascii">
					 1.00000000E+00	 1.00000000E+00	-5.96046000E-08
					 1.00000000E+00	 5.00000000E-01	-5.96046000E-08
					 1.00000000E+00	 5.00000000E-01	 1.00000000E+00
					 1.00000000E+00	 1.00000000E+00	 1.00000000E+00
					 5.00000000E-01	 1.00000000E+00	-5.96046000E-08
					 5.00000000E-01	 5.00000000E-01	-5.96046000E-08
					 5.00000000E-01	 5.00000000E-01	 1.00000000E+00
					 5.00000000E-01	 1.00000000E+00	 1.00000000E+00
					 1.00000000E+00	 7.50000000E-01	-5.96046000E-08
					 1.00000000E+00	 5.00000000E-01	 5.00000000E-01
					 1.00000000E+00	 7.50000000E-01	 1.00000000E+00
					 1.00000000E+00	 1.00000000E+00	 5.00000000E-01
					 7.50000000E-01	 1.00000000E+00	-5.96046000E-08
					 7.50000000E-01	 5.00000000E-01	-5.96046000E-08
					 7.50000000E-01	 5.00000000E-01	 1.00000000E+00
					 7.50000000E-01	 1.00000000E+00	 1.00000000E+00
					 5.00000000E-01	 7.50000000E-01	-5.96046000E-08
					 5.00000000E-01	 5.00000000E-01	 5.00000000E-01
					 5.00000000E-01	 7.50000000E-01	 1.00000000E+00
					 5.00000000E-01	 1.00000000E+00	 5.00000000E-01
					 1.00000000E+00	-1.49012000E-08	-5.96046000E-08
					 1.00000000E+00	-1.49012000E-08	 1.00000000E+00
					 5.00000000E-01	-1.49012000E-08	-5.96046000E-08
					 5.00000000E-01	-1.49012000E-08	 1.00000000E+00
					 1.00000000E+00	 2.50000000E-01	-5.96046000E-08
					 1.00000000E+00	-1.49012000E-08	 5.00000000E-01
					 1.00000000E+00	 2.50000000E-01	 1.00000000E+00
					 7.50000000E-01	-1.49012000E-08	-5.96046000E-08
					 7.50000000E-01	-1.49012000E-08	 1.00000000E+00
					 5.00000000E-01	 2.50000000E-01	-5.96046000E-08
					 5.00000000E-01	-1.49012000E-08	 5.00000000E-01
					 5.00000000E-01	 2.50000000E-01	 1.00000000E+00
					-7.45058000E-09	 1.00000000E+00	-5.96046000E-08
					-7.45058000E-09	 5.00000000E-01	-5.96046000E-08
					-7.45058000E-09	 5.00000000E-01	 1.00000000E+00
					-7.45058000E-09	 1.00000000E+00	 1.00000000E+00
					 2.50000000E-01	 1.00000000E+00	-5.96046000E-08
					 2.50000000E-01	 5.00000000E-01	-5.96046000E-08
					 2.50000000E-01	 5.00000000E-01	 1.00000000E+00
					 2.50000000E-01	 1.00000000E+00	 1.00000000E+00
					-7.45058000E-09	 7.50000000E-01	-5.96046000E-08
					-7.45058000E-09	 5.00000000E-01	 5.00000000E-01
					-7.45058000E-09	 7.50000000E-01	 1.00000000E+00
					-7.45058000E-09	 1.00000000E+00	 5.00000000E-01
					-7.45058000E-09	-1.49012000E-08	-5.96046000E-08
					-7.45058000E-09	-1.49012000E-08	 1.00000000E+00
					 2.50000000E-01	-1.49012000E-08	-5.96046000E-08
					 2.50000000E-01	-1.49012000E-08	 1.00000000E+00
					-7.45058000E-09	 2.50000000E-01	-5.96046000E-08
					-7.45058000E-09	-1.49012000E-08	 5.00000000E-01
					-7.45058000E-09	 2.50000000E-01	 1.00000000E+00
					 1.00000000E+00	 5.00000000E-01	 2.00000000E+00
					 1.00000000E+00	 1.00000000E+00	 2.00000000E+00
					 5.00000000E-01	 5.00000000E-01	 2.00000000E+00
					 5.00000000E-01	 1.00000000E+00	 2.00000000E+00
					 1.00000000E+00	 5.00000000E-01	 1.50000000E+00
					 1.00000000E+00	 7.50000000E-01	 2.00000000E+00
					 1.00000000E+00	 1.00000000E+00	 1.50000000E+00
					 7.50000000E-01	 5.00000000E-01	 2.00000000E+00
					 7.50000000E-01	 1.00000000E+00	 2.00000000E+00
					 5.00000000E-01	 5.00000000E-01	 1.50000000E+00
					 5.00000000E-01	 7.50000000E-01	 2.00000000E+00
					 5.00000000E-01	 1.00000000E+00	 1.50000000E+00
					 1.00000000E+00	-1.49012000E-08	 2.00000000E+00
					 5.00000000E-01	-1.49012000E-08	 2.00000000E+00
					 1.00000000E+00	-1.49012000E-08	 1.50000000E+00
					 1.00000000E+00	 2.50000000E-01	 2.00000000E+00
					 7.50000000E-01	-1.49012000E-08	 2.00000000E+00
					 5.00000000E-01	-1.49012000E-08	 1.50000000E+00
					 5.00000000E-01	 2.50000000E-01	 2.00000000E+00
					-7.45058000E-09	 5.00000000E-01	 2.00000000E+00
					-7.45058000E-09	 1.00000000E+00	 2.00000000E+00
					 2.50000000E-01	 5.00000000E-01	 2.00000000E+00
					 2.50000000E-01	 1.00000000E+00	 2.00000000E+00
					-7.45058000E-09	 5.00000000E-01	 1.50000000E+00
					-7.45058000E-09	 7.50000000E-01	 2.00000000E+00
					-7.45058000E-09	 1.00000000E+00	 1.50000000E+00
					-7.45058000E-09	-1.49012000E-08	 2.00000000E+00
					 2.50000000E-01	-1.49012000E-08	 2.00000000E+00
					-7.45058000E-09	-1.49012000E-08	 1.50000000E+00
					-7.45058000E-09	 2.50000000E-01	 2.00000000E+00
					 1.00000000E+00	 5.00000000E-01	 3.00000000E+00
					 1.00000000E+00	 1.00000000E+00	 3.00000000E+00
					 5.00000000E-01	 5.00000000E-01	 3.00000000E+00
					 5.00000000E-01	 1.00000000E+00	 3.00000000E+00
					 1.00000000E+00	 5.00000000E-01	 2.50000000E+00
					 1.00000000E+00	 7.50000000E-01	 3.00000000E+00
					 1.00000000E+00	 1.00000000E+00	 2.50000000E+00
					 7.50000000E-01	 5.00000000E-01	 3.00000000E+00
					 7.50000000E-01	 1.00000000E+00	 3.00000000E+00
					 5.00000000E-01	 5.00000000E-01	 2.50000000E+00
					 5.00000000E-01	 7.50000000E-01	 3.00000000E+00
					 5.00000000E-01	 1.00000000E+00	 2.50000000E+00
					 1.00000000E+00	-1.49012000E-08	 3.00000000E+00
					 5.00000000E-01	-1.49012000E-08	 3.00000000E+00
					 1.00000000E+00	-1.49012000E-08	 2.50000000E+00
					 1.00000000E+00	 2.50000000E-01	 3.00000000E+00
					 7.50000000E-01	-1.49012000E-08	 3.00000000E+00
					 5.00000000E-01	-1.49012000E-08	 2.50000000E+00
					 5.00000000E-01	 2.50000000E-01	 3.00000000E+00
					-7.45058000E-09	 5.00000000E-01	 3.00000000E+00
					-7.45058000E-09	 1.00000000E+00	 3.00000000E+00
					 2.50000000E-01	 5.00000000E-01	 3.00000000E+00
					 2.50000000E-01	 1.00000000E+00	 3.00000000E+00
					-7.45058000E-09	 5.00000000E-01	 2.50000000E+00
					-7.45058000E-09	 7.50000000E-01	 3.00000000E+00
					-7.45058000E-09	 1.00000000E+00	 2.50000000E+00
					-7.45058000E-09	-1.49012000E-08	 3.00000000E+00
					 2.50000000E-01	-1.49012000E-08	 3.00000000E+00
					-7.45058000E-09	-1.49012000E-08	 2.50000000E+00
					-7.45058000E-09	 2.50000000E-01	 3.00000000E+00
					 1.00000000E+00	 5.00000000E-01	 4.00000000E+00
					 1.00000000E+00	 1.00000000E+00	 4.00000000E+00
					 5.00000000E-01	 5.00000000E-01	 4.00000000E+00
					 5.00000000E-01	 1.00000000E+00	 4.00000000E+00
					 1.00000000E+00	 5.00000000E-01	 3.50000000E+00
					 1.00000000E+00	 7.50000000E-01	 4.00000000E+00
					 1.00000000E+00	 1.00000000E+00	 3.50000000E+00
					 7.50000000E-01	 5.00000000E-01	 4.00000000E+00
					 7.50000000E-01	 1.00000000E+00	 4.00000000E+00
					 5.00000000E-01	 5.00000000E-01	 3.50000000E+00
					 5.00000000E-01	 7.50000000E-01	 4.00000000E+00
					 5.00000000E-01	 1.00000000E+00	 3.50000000E+00
					 1.00000000E+00	-1.49012000E-08	 4.00000000E+00
					 5.00000000E-01	-1.49012000E-08	 4.00000000E+00
					 1.00000000E+00	-1.49012000E-08	 3.50000000E+00
					 1.00000000E+00	 2.50000000E-01	 4.00000000E+00
					 7.50000000E-01	-1.49012000E-08	 4.00000000E+00
					 5.00000000E-01	-1.49012000E-08	 3.50000000E+00
					 5.00000000E-01	 2.50000000E-01	 4.00000000E+00
					-7.45058000E-09	 5.00000000E-01	 4.00000000E+00
					-7.45058000E-09	 1.00000000E+00	 4.00000000E+00
					 2.50000000E-01	 5.00000000E-01	 4.00000000E+00
					 2.50000000E-01	 1.00000000E+00	 4.00000000E+00
					-7.45058000E-09	 5.00000000E-01	 3.50000000E+00
					-7.45058000E-09	 7.50000000E-01	 4.00000000E+00
					-7.45058000E-09	 1.00000000E+00	 3.50000000E+00
					-7.45058000E-09	-1.49012000E-08	 4.00000000E+00
					 2.50000000E-01	-1.49012000E-08	 4.00000000E+00
					-7.45058000E-09	-1.49012000E-08	 3.50000000E+00
					-7.45058000E-09	 2.50000000E-01	 4.00000000E+00
					 1.00000000E+00	 5.00000000E-01	 5.00000000E+00
					 1.00000000E+00	 1.00000000E+00	 5.00000000E+00
					 5.00000000E-01	 5.00000000E-01	 5.00000000E+00
					 5.00000000E-01	 1.00000000E+00	 5.00000000E+00
					 1.00000000E+00	 5.00000000E-01	 4.50000000E+00
					 1.00000000E+00	 7.50000000E-01	 5.00000000E+00
					 1.00000000E+00	 1.00000000E+00	 4.50000000E+00
					 7.50000000E-01	 5.00000000E-01	 5.00000000E+00
					 7.50000000E-01	 1.00000000E+00	 5.00000000E+00
					 5.00000000E-01	 5.00000000E-01	 4.50000000E+00
					 5.00000000E-01	 7.50000000E-01	 5.00000000E+00
					 5.00000000E-01	 1.00000000E+00	 4.50000000E+00
					 1.00000000E+00	-1.49012000E-08	 5.00000000E+00
					 5.00000000E-01	-1.49012000E-08	 5.00000000E+00
					 1.00000000E+00	-1.49012000E-08	 4.50000000E+00
					 1.00000000E+00	 2.50000000E-01	 5.00000000E+00
					 7.50000000E-01	-1.49012000E-08	 5.00000000E+00
					 5.00000000E-01	-1.49012000E-08	 4.50000000E+00
					 5.00000000E-01	 2.50000000E-01	 5.00000000E+00
					-7.45058000E-09	 5.00000000E-01	 5.00000000E+00
					-7.45058000E-09	 1.00000000E+00	 5.00000000E+00
					 2.50000000E-01	 5.00000000E-01	 5.00000000E+00
					 2.50000000E-01	 1.00000000E+00	 5.00000000E+00
					-7.45058000E-09	 5.00000000E-01	 4.50000000E+00
					-7.45058000E-09	 7.50000000E-01	 5.00000000E+00
					-7.45058000E-09	 1.00000000E+00	 4.50000000E+00
					-7.45058000E-09	-1.49012000E-08	 5.00000000E+00
					 2.50000000E-01	-1.49012000E-08	 5.00000000E+00
					-7.45058000E-09	-1.49012000E-08	 4.50000000E+00
					-7.45058000E-09	 2.50000000E-01	 5.00000000E+00
					 1.00000000E+00	 5.00000000E-01	 6.00000000E+00
					 1.00000000E+00	 1.00000000E+00	 6.00000000E+00
					 5.00000000E-01	 5.00000000E-01	 6.00000000E+00
					 5.00000000E-01	 1.00000000E+00	 6.00000000E+00
					 1.00000000E+00	 5.00000000E-01	 5.50000000E+00
					 1.00000000E+00	 7.50000000E-01	 6.00000000E+00
					 1.00000000E+00	 1.00000000E+00	 5.50000000E+00
					 7.50000000E-01	 5.00000000E-01	 6.00000000E+00
					 7.50000000E-01	 1.00000000E+00	 6.00000000E+00
					 5.00000000E-01	 5.00000000E-01	 5.50000000E+00
					 5.00000000E-01	 7.50000000E-01	 6.00000000E+00
					 5.00000000E-01	 1.00000000E+00	 5.50000000E+00
					 1.00000000E+00	-1.49012000E-08	 6.00000000E+00
[...]
			<PointData>
				<DataArray type="Float32" Name="U" NumberOfComponents="3" ComponentName0="D1" ComponentName1="D2" ComponentName2="D3" format="ascii">
					 0.00000000E+00	 0.00000000E+00	 0.00000000E+00
					 0.00000000E+00	 0.00000000E+00	 0.00000000E+00
					-8.10146000E-06	-6.58819000E-04	 4.47527000E-05
					-7.75127000E-04	-5.60103000E-04	 1.62218000E-05
					 0.00000000E+00	 0.00000000E+00	 0.00000000E+00
					 0.00000000E+00	 0.00000000E+00	 0.00000000E+00
					-8.22779000E-07	-1.53041000E-03	 4.06153000E-05
					-9.57930000E-04	-1.43027000E-03	 4.40038000E-05
					 0.00000000E+00	 0.00000000E+00	 0.00000000E+00
					-3.48077000E-06	-3.38043000E-04	 2.15674000E-05
					-3.91241000E-04	-6.28033000E-04	 1.02387000E-05
					-5.16348000E-04	-3.46158000E-04	 2.81542000E-04
					 0.00000000E+00	 0.00000000E+00	 0.00000000E+00
					 0.00000000E+00	 0.00000000E+00	 0.00000000E+00
					-4.45818000E-06	-1.07595000E-03	 4.21753000E-05
					-8.66338000E-04	-9.76231000E-04	-2.35528000E-05
					 0.00000000E+00	 0.00000000E+00	 0.00000000E+00
					 3.95057000E-06	-8.51298000E-04	 1.78594000E-05
					-4.78802000E-04	-1.49928000E-03	-3.59302000E-05
					-5.23739000E-04	-8.51874000E-04	 3.00780000E-04
					 0.00000000E+00	 0.00000000E+00	 0.00000000E+00
					 7.55966000E-04	-5.49877000E-04	 7.27883000E-05
					 0.00000000E+00	 0.00000000E+00	 0.00000000E+00
					 9.53007000E-04	-1.41558000E-03	 3.72449000E-05
					 0.00000000E+00	 0.00000000E+00	 0.00000000E+00
					 5.07936000E-04	-3.33185000E-04	-2.36755000E-04
					 3.74313000E-04	-6.23431000E-04	 7.92241000E-05
					 0.00000000E+00	 0.00000000E+00	 0.00000000E+00
					 8.54094000E-04	-9.63455000E-04	 1.07231000E-04
					 0.00000000E+00	 0.00000000E+00	 0.00000000E+00
					 5.29860000E-04	-8.38179000E-04	-2.62853000E-04
					 4.76064000E-04	-1.49190000E-03	 1.16860000E-04
					 0.00000000E+00	 0.00000000E+00	 0.00000000E+00
					 0.00000000E+00	 0.00000000E+00	 0.00000000E+00
					 6.22675000E-06	-2.56982000E-03	 3.51093000E-05
					-1.13970000E-03	-2.47409000E-03	 6.84321000E-06
					 0.00000000E+00	 0.00000000E+00	 0.00000000E+00
					 0.00000000E+00	 0.00000000E+00	 0.00000000E+00
					 2.78928000E-06	-2.03092000E-03	 3.83857000E-05
					-1.04876000E-03	-1.93388000E-03	 1.15929000E-04
					 0.00000000E+00	 0.00000000E+00	 0.00000000E+00
					 1.04831000E-05	-1.39165000E-03	 1.63449000E-05
					-5.67251000E-04	-2.54070000E-03	-1.42629000E-04
					-5.02207000E-04	-1.37090000E-03	 2.76692000E-04
					 0.00000000E+00	 0.00000000E+00	 0.00000000E+00
					 1.14927000E-03	-2.45612000E-03	 6.37737000E-05
					 0.00000000E+00	 0.00000000E+00	 0.00000000E+00
					 1.05111000E-03	-1.91772000E-03	-3.85118000E-05
					 0.00000000E+00	 0.00000000E+00	 0.00000000E+00
					 5.21871000E-04	-1.35671000E-03	-2.41389000E-04
					 5.78952000E-04	-2.53124000E-03	 2.12267000E-04
					-1.34444000E-05	 1.08357000E-03	 6.98614000E-05
					-1.11895000E-03	 1.19692000E-03	-1.59055000E-03
					-8.19323000E-06	-1.48090000E-04	 7.68272000E-05
					-1.36082000E-03	-3.62273000E-05	-1.58723000E-03
					-1.43636000E-05	-2.35134000E-04	 5.94601000E-05
					-5.67886000E-04	 1.10496000E-03	-7.38814000E-04
					-1.00306000E-03	-1.30732000E-04	-7.31639000E-04
					-1.09617000E-05	 5.01814000E-04	 7.36568000E-05
					-1.24113000E-03	 6.14696000E-04	-1.59742000E-03
					-8.39722000E-06	-1.34012000E-03	 5.99077000E-05
					-6.85149000E-04	-1.28852000E-04	-7.40799000E-04
					-1.23220000E-03	-1.24470000E-03	-7.25785000E-04
					 1.08862000E-03	 1.21426000E-03	 1.73072000E-03
					 1.34277000E-03	-1.36179000E-05	 1.74064000E-03
					 9.69981000E-04	-1.20163000E-04	 8.51265000E-04
					 5.40061000E-04	 1.11383000E-03	 8.78536000E-04
					 1.21656000E-03	 6.35064000E-04	 1.74517000E-03
					 1.21224000E-03	-1.22767000E-03	 8.45881000E-04
					 6.68428000E-04	-1.17178000E-04	 8.94523000E-04
					-5.35260000E-07	-1.62014000E-03	 8.36784000E-05
					-1.60929000E-03	-1.51968000E-03	-1.57794000E-03
					-4.91264000E-06	-8.51942000E-04	 7.99363000E-05
					-1.48545000E-03	-7.40357000E-04	-1.58534000E-03
					-7.25283000E-07	-2.67987000E-03	 5.93646000E-05
					-7.99471000E-04	-1.60609000E-03	-7.32179000E-04
					-1.48841000E-03	-2.61012000E-03	-7.32381000E-04
					 1.60818000E-03	-1.49448000E-03	 1.74443000E-03
					 1.47494000E-03	-7.16143000E-04	 1.74412000E-03
					 1.48483000E-03	-2.58763000E-03	 8.51215000E-04
					 7.98538000E-04	-1.59351000E-03	 8.99813000E-04
					-9.47656000E-06	 6.37809000E-03	 9.24447000E-05
					-1.43288000E-03	 6.44131000E-03	-2.97791000E-03
					-2.46957000E-06	 4.86897000E-03	 1.00795000E-04
					-1.59603000E-03	 4.93426000E-03	-2.97787000E-03
					-8.75604000E-06	 3.32872000E-03	 8.17813000E-05
					-7.21175000E-04	 6.39003000E-03	-1.39177000E-03
					-1.23812000E-03	 3.41414000E-03	-2.34443000E-03
					-5.74392000E-06	 5.64263000E-03	 9.62227000E-05
					-1.51410000E-03	 5.70778000E-03	-3.01174000E-03
					-2.94006000E-06	 1.98841000E-03	 9.04516000E-05
					-7.98408000E-04	 4.88216000E-03	-1.42013000E-03
					-1.44705000E-03	 2.07964000E-03	-2.34494000E-03
					 1.41081000E-03	 6.47642000E-03	 3.16127000E-03
					 1.58995000E-03	 4.97277000E-03	 3.17838000E-03
					 1.21831000E-03	 3.44149000E-03	 2.50750000E-03
					 7.01246000E-04	 6.40714000E-03	 1.57646000E-03
					 1.50015000E-03	 5.74552000E-03	 3.20248000E-03
					 1.44065000E-03	 2.10957000E-03	 2.52509000E-03
					 7.93008000E-04	 4.90176000E-03	 1.62142000E-03
					 4.62291000E-06	 3.19273000E-03	 1.10317000E-04
					-1.74835000E-03	 3.26538000E-03	-2.95987000E-03
					 8.66074000E-07	 4.05194000E-03	 1.05602000E-04
					-1.67164000E-03	 4.11708000E-03	-2.94499000E-03
					 3.87422000E-06	 4.41386000E-04	 9.99499000E-05
					-8.75114000E-04	 3.20995000E-03	-1.43106000E-03
					-1.64458000E-03	 5.36146000E-04	-2.32706000E-03
					 1.75867000E-03	 3.30321000E-03	 3.17974000E-03
					 1.67360000E-03	 4.15542000E-03	 3.15571000E-03
					 1.65406000E-03	 5.65203000E-04	 2.52601000E-03
					 8.84583000E-04	 3.22925000E-03	 1.65125000E-03
					-1.46005000E-05	 1.42025000E-02	 9.60616000E-05
					-2.05845000E-03	 1.42365000E-02	-3.86775000E-03
					-5.86949000E-06	 1.21008000E-02	 1.10186000E-04
					-2.17090000E-03	 1.21340000E-02	-3.85361000E-03
					-1.28828000E-05	 1.00633000E-02	 9.68329000E-05
					-1.03631000E-03	 1.42056000E-02	-1.83240000E-03
					-1.71433000E-03	 1.01092000E-02	-3.45877000E-03
					-1.00015000E-05	 1.31661000E-02	 1.03417000E-04
					-2.11431000E-03	 1.31994000E-02	-3.91336000E-03
					-5.20149000E-06	 8.29462000E-03	 1.07803000E-04
					-1.08804000E-03	 1.21031000E-02	-1.87127000E-03
					-1.84293000E-03	 8.34148000E-03	-3.45302000E-03
					 2.02571000E-03	 1.42847000E-02	 4.05697000E-03
					 2.15638000E-03	 1.21861000E-02	 4.07081000E-03
					 1.68446000E-03	 1.01499000E-02	 3.65025000E-03
					 1.00608000E-03	 1.42287000E-02	 2.02368000E-03
					 2.09084000E-03	 1.32509000E-02	 4.11715000E-03
					 1.83005000E-03	 8.38721000E-03	 3.66668000E-03
					 1.07526000E-03	 1.21296000E-02	 2.09078000E-03
					 2.31231000E-06	 9.87553000E-03	 1.24986000E-04
					-2.27769000E-03	 9.91278000E-03	-3.83910000E-03
					-1.85759000E-06	 1.10032000E-02	 1.17271000E-04
					-2.22446000E-03	 1.10378000E-02	-3.79284000E-03
					 2.41655000E-06	 6.39077000E-03	 1.19496000E-04
					-1.13839000E-03	 9.87915000E-03	-1.91029000E-03
					-1.95995000E-03	 6.44520000E-03	-3.43583000E-03
					 2.28098000E-03	 9.96668000E-03	 4.08561000E-03
					 2.21863000E-03	 1.10900000E-02	 4.02425000E-03
					 1.96408000E-03	 6.49236000E-03	 3.67302000E-03
					 1.14265000E-03	 9.90767000E-03	 2.15919000E-03
					-3.22503000E-05	 2.36887000E-02	 7.88246000E-05
					-2.83611000E-03	 2.37253000E-02	-4.74057000E-03
					-2.01885000E-05	 2.08164000E-02	 9.53292000E-05
					-2.96390000E-03	 2.08517000E-02	-4.72321000E-03
					-1.95672000E-05	 1.87237000E-02	 9.15030000E-05
					-1.43398000E-03	 2.36907000E-02	-2.27594000E-03
					-2.43282000E-03	 1.87597000E-02	-4.28573000E-03
					-2.63122000E-05	 2.22700000E-02	 8.64348000E-05
					-2.89980000E-03	 2.23053000E-02	-4.79061000E-03
					-9.58286000E-06	 1.62467000E-02	 1.06267000E-04
					-1.49188000E-03	 2.08171000E-02	-2.31740000E-03
					-2.55395000E-03	 1.62821000E-02	-4.26841000E-03
					 2.77006000E-03	 2.37908000E-02	 4.89585000E-03
					 2.92101000E-03	 2.09195000E-02	 4.91118000E-03
					 2.39118000E-03	 1.88156000E-02	 4.46510000E-03
					 1.36896000E-03	 2.37217000E-02	 2.43292000E-03
					 2.84519000E-03	 2.23730000E-02	 4.96112000E-03
					 2.53204000E-03	 1.63405000E-02	 4.47724000E-03
					 1.45062000E-03	 2.08506000E-02	 2.50731000E-03
					-7.89069000E-06	 1.78039000E-02	 1.14164000E-04
					-3.09145000E-03	 1.78371000E-02	-4.70547000E-03
					-1.39347000E-05	 1.93276000E-02	 1.04832000E-04
					-3.02798000E-03	 1.93625000E-02	-4.65401000E-03
					-1.21320000E-08	 1.36382000E-02	 1.22560000E-04
					-1.54937000E-03	 1.78027000E-02	-2.35925000E-03
					-2.67266000E-03	 1.36741000E-02	-4.25474000E-03
					 3.07268000E-03	 1.79091000E-02	 4.93071000E-03
					 2.99708000E-03	 1.94310000E-02	 4.86078000E-03
					 2.67046000E-03	 1.37351000E-02	 4.49603000E-03
					 1.53277000E-03	 1.78399000E-02	 2.58659000E-03
					-6.73123000E-05	 3.50174000E-02	 3.43650000E-05
					-3.63689000E-03	 3.50419000E-02	-5.73971000E-03
					-5.00293000E-05	 3.13727000E-02	 5.70531000E-05
					-3.76592000E-03	 3.13975000E-02	-5.71874000E-03
					-4.83412000E-05	 2.91236000E-02	 5.83626000E-05
					-1.85254000E-03	 3.50109000E-02	-2.80105000E-03
					-3.24707000E-03	 2.91552000E-02	-5.23165000E-03
					-5.90010000E-05	 3.32144000E-02	 4.56076000E-05
					-3.70176000E-03	 3.32383000E-02	-5.78136000E-03
					-3.33518000E-05	 2.58539000E-02	 7.88496000E-05
					-1.90813000E-03	 3.13656000E-02	-2.83169000E-03
					-3.37518000E-03	 2.58842000E-02	-5.21103000E-03
					 3.50445000E-03	 3.51423000E-02	 5.80770000E-03
					 3.66702000E-03	 3.14950000E-02	 5.83160000E-03
					 3.15059000E-03	 2.92364000E-02	 5.34791000E-03
					 1.71853000E-03	 3.50601000E-02	 2.86957000E-03
					 3.58572000E-03	 3.33383000E-02	 5.87172000E-03
					 3.30768000E-03	 2.59657000E-02	 5.36720000E-03
					 1.80846000E-03	 3.14142000E-02	 2.94553000E-03
					-3.27724000E-05	 2.75829000E-02	 7.94817000E-05
					-3.90095000E-03	 2.76030000E-02	-5.69623000E-03
					-4.11295000E-05	 2.94962000E-02	 6.83596000E-05
					-3.83331000E-03	 2.95208000E-02	-5.65544000E-03
					-1.80544000E-05	 2.24400000E-02	 1.01006000E-04
					-1.96545000E-03	 2.75731000E-02	-2.86124000E-03
					-3.50604000E-03	 2.24671000E-02	-5.19021000E-03
					 3.83546000E-03	 2.77003000E-02	 5.85360000E-03
					 3.75150000E-03	 2.96169000E-02	 5.79045000E-03
					 3.46812000E-03	 2.25511000E-02	 5.38966000E-03
					 1.89988000E-03	 2.76224000E-02	 3.02008000E-03
					-1.30705000E-04	 4.82394000E-02	-3.12810000E-05
					-4.33933000E-03	 4.82276000E-02	-6.68141000E-03
					-1.11582000E-04	 4.39874000E-02	-1.21273000E-05
					-4.41007000E-03	 4.39713000E-02	-6.67574000E-03
					-9.41067000E-05	 4.14031000E-02	 5.51303000E-06
					-2.23397000E-03	 4.82222000E-02	-3.29942000E-03
					-4.00472000E-03	 4.14094000E-02	-6.24777000E-03
					-1.20865000E-04	 4.61266000E-02	-2.20420000E-05
					-4.37428000E-03	 4.61108000E-02	-6.71612000E-03
					-7.61756000E-05	 3.74255000E-02	 2.70855000E-05
					-2.26081000E-03	 4.39671000E-02	-3.32437000E-03
					-4.11689000E-03	 3.74309000E-02	-6.23327000E-03
					 4.07917000E-03	 4.83573000E-02	 6.61520000E-03
					 4.18617000E-03	 4.40999000E-02	 6.64872000E-03
					 3.81868000E-03	 4.15264000E-02	 6.25691000E-03
					 1.97274000E-03	 4.82860000E-02	 3.23583000E-03
					 4.13329000E-03	 4.62405000E-02	 6.66850000E-03
					 3.96563000E-03	 3.75454000E-02	 6.28609000E-03
					 2.03730000E-03	 4.40310000E-02	 3.29925000E-03
					-9.28597000E-05	 3.96412000E-02	 9.16457000E-06
					-4.49290000E-03	 3.96181000E-02	-6.64718000E-03
					-1.02376000E-04	 4.18254000E-02	-1.35608000E-06
					-4.45204000E-03	 4.18083000E-02	-6.63612000E-03
					-5.84127000E-05	 3.33181000E-02	 4.78555000E-05
					-2.29123000E-03	 3.96165000E-02	-3.32737000E-03
					-4.23817000E-03	 3.33171000E-02	-6.20756000E-03
					 4.30479000E-03	 3.97489000E-02	 6.66371000E-03
					 4.24514000E-03	 4.19368000E-02	 6.63189000E-03
					 4.12176000E-03	 3.34309000E-02	 6.30261000E-03
					 2.10481000E-03	 3.96828000E-02	 3.34459000E-03
					-2.22419000E-04	 6.23982000E-02	-1.22331000E-04
					-4.77115000E-03	 6.23519000E-02	-7.03566000E-03
					-1.94512000E-04	 5.78791000E-02	-1.04685000E-04
					-4.73642000E-03	 5.78248000E-02	-7.04215000E-03
					-1.74934000E-04	 5.53472000E-02	-7.49091000E-05
					-2.49916000E-03	 6.23773000E-02	-3.56124000E-03
					-4.60999000E-03	 5.53052000E-02	-6.93033000E-03
					-2.09384000E-04	 6.01356000E-02	-1.14367000E-04
					-4.75340000E-03	 6.00859000E-02	-7.04734000E-03
					-1.52508000E-04	 5.08976000E-02	-5.74282000E-05
					-2.46848000E-03	 5.78546000E-02	-3.56411000E-03
					-4.62489000E-03	 5.08523000E-02	-6.93262000E-03
					 4.33033000E-03	 6.24814000E-02	 6.78347000E-03
					 4.34386000E-03	 5.79500000E-02	 6.82477000E-03
					 4.26286000E-03	 5.54402000E-02	 6.77390000E-03
					 2.05511000E-03	 6.24404000E-02	 3.31430000E-03
					 4.33582000E-03	 6.02120000E-02	 6.81102000E-03
					 4.31730000E-03	 5.09851000E-02	 6.81175000E-03
					 2.07809000E-03	 5.79154000E-02	 3.35248000E-03
					-1.67269000E-04	 5.33424000E-02	-7.85220000E-05
					-4.72464000E-03	 5.32777000E-02	-7.01739000E-03
					-1.79768000E-04	 5.56126000E-02	-9.25704000E-05
					-4.73122000E-03	 5.55544000E-02	-7.03167000E-03
					-1.30807000E-04	 4.64046000E-02	-3.30861000E-05
					-2.44528000E-03	 5.33112000E-02	-3.54077000E-03
					-4.65466000E-03	 4.63518000E-02	-6.90520000E-03
					 4.37931000E-03	 5.34146000E-02	 6.85218000E-03
					 4.36315000E-03	 5.56832000E-02	 6.83864000E-03
					 4.38537000E-03	 4.64928000E-02	 6.83377000E-03
					 2.10801000E-03	 5.33796000E-02	 3.38116000E-03
					 0.00000000E+00	 0.00000000E+00	 0.00000000E+00
					 0.00000000E+00	 0.00000000E+00	 0.00000000E+00
					-5.86651000E-05	-2.53907000E-03	-1.28151000E-04
					-1.67030000E-03	-2.79291000E-03	 3.77565000E-03
					 0.00000000E+00	 0.00000000E+00	 0.00000000E+00
					 0.00000000E+00	 0.00000000E+00	 0.00000000E+00
					-8.39438000E-05	-3.86502000E-03	-1.97838000E-04
					-1.14579000E-03	-4.12961000E-03	 3.75461000E-03
					 0.00000000E+00	 0.00000000E+00	 0.00000000E+00
					-2.17760000E-06	-9.07525000E-05	-5.25200000E-05
					-8.67867000E-04	-2.57106000E-03	 1.90039000E-03
					-1.02433000E-03	-4.27896000E-04	 1.83281000E-03
					 0.00000000E+00	 0.00000000E+00	 0.00000000E+00
					 0.00000000E+00	 0.00000000E+00	 0.00000000E+00
					-6.96018000E-05	-3.29490000E-03	-1.64894000E-04
					-1.40221000E-03	-3.55003000E-03	 3.64892000E-03
					 0.00000000E+00	 0.00000000E+00	 0.00000000E+00
					-2.62720000E-05	-8.12807000E-04	-8.37623000E-05
					-6.15103000E-04	-3.89734000E-03	 1.73798000E-03
					-4.80086000E-04	-1.12213000E-03	 1.74053000E-03
					 0.00000000E+00	 0.00000000E+00	 0.00000000E+00
					 1.55100000E-03	-2.80212000E-03	-4.03959000E-03
					 0.00000000E+00	 0.00000000E+00	 0.00000000E+00
					 9.80816000E-04	-4.14569000E-03	-4.15501000E-03
					 0.00000000E+00	 0.00000000E+00	 0.00000000E+00
					 1.02459000E-03	-4.54272000E-04	-1.94843000E-03
					 7.48309000E-04	-2.57505000E-03	-2.15779000E-03
					 0.00000000E+00	 0.00000000E+00	 0.00000000E+00
					 1.26303000E-03	-3.56218000E-03	-3.98490000E-03
					 0.00000000E+00	 0.00000000E+00	 0.00000000E+00
					 4.34146000E-04	-1.16599000E-03	-1.91788000E-03
					 4.45444000E-04	-3.90473000E-03	-2.13446000E-03
					 0.00000000E+00	 0.00000000E+00	 0.00000000E+00
					 0.00000000E+00	 0.00000000E+00	 0.00000000E+00
					-1.15140000E-04	-4.66373000E-03	-2.61037000E-04
					-6.04511000E-04	-4.89062000E-03	 3.64772000E-03
					 0.00000000E+00	 0.00000000E+00	 0.00000000E+00
					 0.00000000E+00	 0.00000000E+00	 0.00000000E+00
					-9.80831000E-05	-4.35418000E-03	-2.28200000E-04
					-8.76558000E-04	-4.60022000E-03	 3.81792000E-03
					 0.00000000E+00	 0.00000000E+00	 0.00000000E+00
					-6.17721000E-05	-1.00391000E-03	-1.22726000E-04
					-3.63481000E-04	-4.68029000E-03	 1.53867000E-03
					 1.00344000E-04	-1.27684000E-03	 1.76341000E-03
					 0.00000000E+00	 0.00000000E+00	 0.00000000E+00
					 3.79579000E-04	-4.91115000E-03	-4.17032000E-03
					 0.00000000E+00	 0.00000000E+00	 0.00000000E+00
					 6.83406000E-04	-4.62258000E-03	-4.27690000E-03
					 0.00000000E+00	 0.00000000E+00	 0.00000000E+00
					-2.16963000E-04	-1.33650000E-03	-2.01918000E-03
					 1.35073000E-04	-4.69149000E-03	-2.06006000E-03
					-2.01669000E-04	-1.31359000E-02	-3.68814000E-04
					-3.14026000E-03	-1.32548000E-02	 6.36460000E-03
					-2.23708000E-04	-1.59579000E-02	-4.66814000E-04
					-2.94760000E-03	-1.60809000E-02	 6.31329000E-03
					-1.30617000E-04	-7.06347000E-03	-2.34191000E-04
					-1.66845000E-03	-1.31726000E-02	 3.00601000E-03
					-2.39589000E-03	-7.27642000E-03	 5.37502000E-03
					-2.13285000E-04	-1.45687000E-02	-4.20499000E-04
					-3.04340000E-03	-1.46887000E-02	 6.23581000E-03
					-1.55654000E-04	-9.11564000E-03	-3.21772000E-04
					-1.58000000E-03	-1.59940000E-02	 2.82770000E-03
					-2.00163000E-03	-9.32682000E-03	 5.33153000E-03
					 2.73616000E-03	-1.32046000E-02	-7.10829000E-03
					 2.49424000E-03	-1.60350000E-02	-7.25123000E-03
					 2.13329000E-03	-7.25736000E-03	-5.85248000E-03
					 1.26449000E-03	-1.31461000E-02	-3.74569000E-03
					 2.61564000E-03	-1.46476000E-02	-7.07981000E-03
					 1.69058000E-03	-9.31126000E-03	-5.98306000E-03
					 1.13581000E-03	-1.59731000E-02	-3.75963000E-03
					-2.49991000E-04	-1.85759000E-02	-5.62667000E-04
					-2.73582000E-03	-1.86765000E-02	 6.17046000E-03
					-2.37273000E-04	-1.72860000E-02	-5.12643000E-04
					-2.84169000E-03	-1.74341000E-02	 6.40120000E-03
					-1.84772000E-04	-1.07560000E-02	-4.04560000E-04
					-1.50219000E-03	-1.85965000E-02	 2.55648000E-03
					-1.59446000E-03	-1.09457000E-02	 5.20601000E-03
					 2.26030000E-03	-1.86487000E-02	-7.29960000E-03
					 2.37750000E-03	-1.73650000E-02	-7.43380000E-03
					 1.23596000E-03	-1.09429000E-02	-6.02037000E-03
					 1.00922000E-03	-1.85887000E-02	-3.67823000E-03
					-3.00881000E-04	-2.69280000E-02	-6.97944000E-04
					-4.43479000E-03	-2.67891000E-02	 5.96555000E-03
					-3.16153000E-04	-3.11243000E-02	-7.73928000E-04
					-4.64250000E-03	-3.11097000E-02	 5.92950000E-03
					-2.59135000E-04	-2.00034000E-02	-5.26055000E-04
					-2.36167000E-03	-2.68859000E-02	 2.62300000E-03
					-3.84148000E-03	-2.00168000E-02	 6.51655000E-03
					-3.07697000E-04	-2.89998000E-02	-7.32387000E-04
					-4.54259000E-03	-2.89376000E-02	 5.86541000E-03
					-2.79230000E-04	-2.35713000E-02	-6.22272000E-04
					-2.50321000E-03	-3.11505000E-02	 2.47058000E-03
					-3.85902000E-03	-2.36081000E-02	 6.47246000E-03
					 3.78194000E-03	-2.67899000E-02	-7.34134000E-03
					 3.99659000E-03	-3.09960000E-02	-7.49030000E-03
					 3.30971000E-03	-1.99660000E-02	-7.56914000E-03
					 1.74348000E-03	-2.68896000E-02	-4.00574000E-03
					 3.88733000E-03	-2.88610000E-02	-7.33933000E-03
					 3.29739000E-03	-2.35318000E-02	-7.71753000E-03
					 1.84363000E-03	-3.10969000E-02	-4.03729000E-03
					-3.31135000E-04	-3.55512000E-02	-8.56267000E-04
					-4.96112000E-03	-3.56769000E-02	 5.80536000E-03
					-3.24309000E-04	-3.33238000E-02	-8.16066000E-04
					-4.80603000E-03	-3.32457000E-02	 6.00462000E-03
					-2.89644000E-04	-2.71523000E-02	-7.20254000E-04
					-2.60968000E-03	-3.56516000E-02	 2.22928000E-03
					-3.91747000E-03	-2.72257000E-02	 6.32659000E-03
					 4.24761000E-03	-3.54562000E-02	-7.55663000E-03
					 4.12158000E-03	-3.31869000E-02	-7.64854000E-03
					 3.29681000E-03	-2.71143000E-02	-7.76920000E-03
					 1.94692000E-03	-3.55497000E-02	-3.98594000E-03
					-2.67721000E-04	-3.79127000E-02	-1.02599000E-03
					-5.05131000E-03	-3.75325000E-02	 2.84611000E-03