# vtk DataFile Version 3.0

ASCII
DATASET UNSTRUCTURED_GRID

POINTS 522 double
	 1.00000000E+00	 1.00000000E+00	-5.96046000E-08
	 1.00000000E+00	 5.00000000E-01	-5.96046000E-08
	 1.00000000E+00	 5.00000000E-01	 1.00000000E+00
	 1.00000000E+00	 1.00000000E+00	 1.00000000E+00
	 5.00000000E-01	 1.00000000E+00	-5.96046000E-08
	 5.00000000E-01	 5.00000000E-01	-5.96046000E-08
	 5.00000000E-01	 5.00000000E-01	 1.00000000E+00
	 5.00000000E-01	 1.00000000E+00	 1.00000000E+00
	 1.00000000E+00	 7.50000000E-01	-5.96046000E-08
	 1.00000000E+00	 5.00000000E-01	 5.00000000E-01
	 1.00000000E+00	 7.50000000E-01	 1.00000000E+00
	 1.00000000E+00	 1.00000000E+00	 5.00000000E-01
	 7.50000000E-01	 1.00000000E+00	-5.96046000E-08
	 7.50000000E-01	 5.00000000E-01	-5.96046000E-08
	 7.50000000E-01	 5.00000000E-01	 1.00000000E+00
	 7.50000000E-01	 1.00000000E+00	 1.00000000E+00
	 5.00000000E-01	 7.50000000E-01	-5.96046000E-08
	 5.00000000E-01	 5.00000000E-01	 5.00000000E-01
	 5.00000000E-01	 7.50000000E-01	 1.00000000E+00
	 5.00000000E-01	 1.00000000E+00	 5.00000000E-01
	 1.00000000E+00	-1.49012000E-08	-5.96046000E-08
	 1.00000000E+00	-1.49012000E-08	 1.00000000E+00
	 5.00000000E-01	-1.49012000E-08	-5.96046000E-08
	 5.00000000E-01	-1.49012000E-08	 1.00000000E+00
	 1.00000000E+00	 2.50000000E-01	-5.96046000E-08
	 1.00000000E+00	-1.49012000E-08	 5.00000000E-01
	 1.00000000E+00	 2.50000000E-01	 1.00000000E+00
	 7.50000000E-01	-1.49012000E-08	-5.96046000E-08
	 7.50000000E-01	-1.49012000E-08	 1.00000000E+00
	 5.00000000E-01	 2.50000000E-01	-5.96046000E-08
	 5.00000000E-01	-1.49012000E-08	 5.00000000E-01
	 5.00000000E-01	 2.50000000E-01	 1.00000000E+00
	-7.45058000E-09	 1.00000000E+00	-5.96046000E-08
	-7.45058000E-09	 5.00000000E-01	-5.96046000E-08
	-7.45058000E-09	 5.00000000E-01	 1.00000000E+00
	-7.45058000E-09	 1.00000000E+00	 1.00000000E+00
	 2.50000000E-01	 1.00000000E+00	-5.96046000E-08
	 2.50000000E-01	 5.00000000E-01	-5.96046000E-08
	 2.50000000E-01	 5.00000000E-01	 1.00000000E+00
	 2.50000000E-01	 1.00000000E+00	 1.00000000E+00
	-7.45058000E-09	 7.50000000E-01	-5.96046000E-08
	-7.45058000E-09	 5.00000000E-01	 5.00000000E-01
	-7.45058000E-09	 7.50000000E-01	 1.00000000E+00
	-7.45058000E-09	 1.00000000E+00	 5.00000000E-01
	-7.45058000E-09	-1.49012000E-08	-5.96046000E-08
	-7.45058000E-09	-1.49012000E-08	 1.00000000E+00
	 2.50000000E-01	-1.49012000E-08	-5.96046000E-08
	 2.50000000E-01	-1.49012000E-08	 1.00000000E+00
	-7.45058000E-09	 2.50000000E-01	-5.96046000E-08
	-7.45058000E-09	-1.49012000E-08	 5.00000000E-01
	-7.45058000E-09	 2.50000000E-01	 1.00000000E+00
	 1.00000000E+00	 5.00000000E-01	 2.00000000E+00
	 1.00000000E+00	 1.00000000E+00	 2.00000000E+00
	 5.00000000E-01	 5.00000000E-01	 2.00000000E+00
	 5.00000000E-01	 1.00000000E+00	 2.00000000E+00
	 1.00000000E+00	 5.00000000E-01	 1.50000000E+00
	 1.00000000E+00	 7.50000000E-01	 2.00000000E+00
	 1.00000000E+00	 1.00000000E+00	 1.50000000E+00
	 7.50000000E-01	 5.00000000E-01	 2.00000000E+00
	 7.50000000E-01	 1.00000000E+00	 2.00000000E+00
	 5.00000000E-01	 5.00000000E-01	 1.50000000E+00
	 5.00000000E-01	 7.50000000E-01	 2.00000000E+00
	 5.00000000E-01	 1.00000000E+00	 1.50000000E+00
	 1.00000000E+00	-1.49012000E-08	 2.00000000E+00
	 5.00000000E-01	-1.49012000E-08	 2.00000000E+00
	 1.00000000E+00	-1.49012000E-08	 1.50000000E+00
	 1.00000000E+00	 2.50000000E-01	 2.00000000E+00
	 7.50000000E-01	-1.49012000E-08	 2.00000000E+00
	 5.00000000E-01	-1.49012000E-08	 1.50000000E+00
	 5.00000000E-01	 2.50000000E-01	 2.00000000E+00
	-7.45058000E-09	 5.00000000E-01	 2.00000000E+00
	-7.45058000E-09	 1.00000000E+00	 2.00000000E+00
	 2.50000000E-01	 5.00000000E-01	 2.00000000E+00
	 2.50000000E-01	 1.00000000E+00	 2.00000000E+00
	-7.45058000E-09	 5.00000000E-01	 1.50000000E+00
	-7.45058000E-09	 7.50000000E-01	 2.00000000E+00
	-7.45058000E-09	 1.00000000E+00	 1.50000000E+00
	-7.45058000E-09	-1.49012000E-08	 2.00000000E+00
	 2.50000000E-01	-1.49012000E-08	 2.00000000E+00
	-7.45058000E-09	-1.49012000E-08	 1.50000000E+00
	-7.45058000E-09	 2.50000000E-01	 2.00000000E+00
	 1.00000000E+00	 5.00000000E-01	 3.00000000E+00
	 1.00000000E+00	 1.00000000E+00	 3.00000000E+00
	 5.00000000E-01	 5.00000000E-01	 3.00000000E+00
	 5.00000000E-01	 1.00000000E+00	 3.00000000E+00
	 1.00000000E+00	 5.00000000E-01	 2.50000000E+00
	 1.00000000E+00	 7.50000000E-01	 3.00000000E+00
	 1.00000000E+00	 1.00000000E+00	 2.50000000E+00
	 7.50000000E-01	 5.00000000E-01	 3.00000000E+00
	 7.50000000E-01	 1.00000000E+00	 3.00000000E+00
	 5.00000000E-01	 5.00000000E-01	 2.50000000E+00
	 5.00000000E-01	 7.50000000E-01	 3.00000000E+00
	 5.00000000E-01	 1.00000000E+00	 2.50000000E+00
	 1.00000000E+00	-1.49012000E-08	 3.00000000E+00
	 5.00000000E-01	-1.49012000E-08	 3.00000000E+00
	 1.00000000E+00	-1.49012000E-08	 2.50000000E+00
	 1.00000000E+00	 2.50000000E-01	 3.00000000E+00
	 7.50000000E-01	-1.49012000E-08	 3.00000000E+00
	 5.00000000E-01	-1.49012000E-08	 2.50000000E+00
	 5.00000000E-01	 2.50000000E-01	 3.00000000E+00
	-7.45058000E-09	 5.00000000E-01	 3.00000000E+00
	-7.45058000E-09	 1.00000000E+00	 3.00000000E+00
	 2.50000000E-01	 5.00000000E-01	 3.00000000E+00
	 2.50000000E-01	 1.00000000E+00	 3.00000000E+00
	-7.45058000E-09	 5.00000000E-01	 2.50000000E+00
	-7.45058000E-09	 7.50000000E-01	 3.00000000E+00
	-7.45058000E-09	 1.00000000E+00	 2.50000000E+00
	-7.45058000E-09	-1.49012000E-08	 3.00000000E+00
	 2.50000000E-01	-1.49012000E-08	 3.00000000E+00
	-7.45058000E-09	-1.49012000E-08	 2.50000000E+00
	-7.45058000E-09	 2.50000000E-01	 3.00000000E+00
	 1.00000000E+00	 5.00000000E-01	 4.00000000E+00
	 1.00000000E+00	 1.00000000E+00	 4.00000000E+00
	 5.00000000E-01	 5.00000000E-01	 4.00000000E+00
	 5.00000000E-01	 1.00000000E+00	 4.00000000E+00
	 1.00000000E+00	 5.00000000E-01	 3.50000000E+00
	 1.00000000E+00	 7.50000000E-01	 4.00000000E+00
	 1.00000000E+00	 1.00000000E+00	 3.50000000E+00
	 7.50000000E-01	 5.00000000E-01	 4.00000000E+00
	 7.50000000E-01	 1.00000000E+00	 4.00000000E+00
	 5.00000000E-01	 5.00000000E-01	 3.50000000E+00
	 5.00000000E-01	 7.50000000E-01	 4.00000000E+00
	 5.00000000E-01	 1.00000000E+00	 3.50000000E+00
	 1.00000000E+00	-1.49012000E-08	 4.00000000E+00
	 5.00000000E-01	-1.49012000E-08	 4.00000000E+00
	 1.00000000E+00	-1.49012000E-08	 3.50000000E+00
	 1.00000000E+00	 2.50000000E-01	 4.00000000E+00
	 7.50000000E-01	-1.49012000E-08	 4.00000000E+00
	 5.00000000E-01	-1.49012000E-08	 3.50000000E+00
	 5.00000000E-01	 2.50000000E-01	 4.00000000E+00
	-7.45058000E-09	 5.00000000E-01	 4.00000000E+00
	-7.45058000E-09	 1.00000000E+00	 4.00000000E+00
	 2.50000000E-01	 5.00000000E-01	 4.00000000E+00
	 2.50000000E-01	 1.00000000E+00	 4.00000000E+00
	-7.45058000E-09	 5.00000000E-01	 3.50000000E+00
	-7.45058000E-09	 7.50000000E-01	 4.00000000E+00
	-7.45058000E-09	 1.00000000E+00	 3.50000000E+00
	-7.45058000E-09	-1.49012000E-08	 4.00000000E+00
	 2.50000000E-01	-1.49012000E-08	 4.00000000E+00
	-7.45058000E-09	-1.49012000E-08	 3.50000000E+00
	-7.45058000E-09	 2.50000000E-01	 4.00000000E+00
	 1.00000000E+00	 5.00000000E-01	 5.00000000E+00
	 1.00000000E+00	 1.00000000E+00	 5.00000000E+00
	 5.00000000E-01	 5.00000000E-01	 5.00000000E+00
	 5.00000000E-01	 1.00000000E+00	 5.00000000E+00
	 1.00000000E+00	 5.00000000E-01	 4.50000000E+00
	 1.00000000E+00	 7.50000000E-01	 5.00000000E+00
	 1.00000000E+00	 1.00000000E+00	 4.50000000E+00
	 7.50000000E-01	 5.00000000E-01	 5.00000000E+00
	 7.50000000E-01	 1.00000000E+00	 5.00000000E+00
	 5.00000000E-01	 5.00000000E-01	 4.50000000E+00
	 5.00000000E-01	 7.50000000E-01	 5.00000000E+00
	 5.00000000E-01	 1.00000000E+00	 4.50000000E+00
	 1.00000000E+00	-1.49012000E-08	 5.00000000E+00
	 5.00000000E-01	-1.49012000E-08	 5.00000000E+00
	 1.00000000E+00	-1.49012000E-08	 4.50000000E+00
	 1.00000000E+00	 2.50000000E-01	 5.00000000E+00
	 7.50000000E-01	-1.49012000E-08	 5.00000000E+00
	 5.00000000E-01	-1.49012000E-08	 4.50000000E+00
	 5.00000000E-01	 2.50000000E-01	 5.00000000E+00
	-7.45058000E-09	 5.00000000E-01	 5.00000000E+00
	-7.45058000E-09	 1.00000000E+00	 5.00000000E+00
	 2.50000000E-01	 5.00000000E-01	 5.00000000E+00
	 2.50000000E-01	 1.00000000E+00	 5.00000000E+00
	-7.45058000E-09	 5.00000000E-01	 4.50000000E+00
	-7.45058000E-09	 7.50000000E-01	 5.00000000E+00
	-7.45058000E-09	 1.00000000E+00	 4.50000000E+00
	-7.45058000E-09	-1.49012000E-08	 5.00000000E+00
	 2.50000000E-01	-1.49012000E-08	 5.00000000E+00
	-7.45058000E-09	-1.49012000E-08	 4.50000000E+00
	-7.45058000E-09	 2.50000000E-01	 5.00000000E+00
	 1.00000000E+00	 5.00000000E-01	 6.00000000E+00
	 1.00000000E+00	 1.00000000E+00	 6.00000000E+00
	 5.00000000E-01	 5.00000000E-01	 6.00000000E+00
	 5.00000000E-01	 1.00000000E+00	 6.00000000E+00
	 1.00000000E+00	 5.00000000E-01	 5.50000000E+00
	 1.00000000E+00	 7.50000000E-01	 6.00000000E+00
	 1.00000000E+00	 1.00000000E+00	 5.50000000E+00
	 7.50000000E-01	 5.00000000E-01	 6.00000000E+00
	 7.50000000E-01	 1.00000000E+00	 6.00000000E+00
	 5.00000000E-01	 5.00000000E-01	 5.50000000E+00
	 5.00000000E-01	 7.50000000E-01	 6.00000000E+00
	 5.00000000E-01	 1.00000000E+00	 5.50000000E+00
	 1.00000000E+00	-1.49012000E-08	 6.00000000E+00
	 5.00000000E-01	-1.49012000E-08	 6.00000000E+00
	 1.00000000E+00	-1.49012000E-08	 5.50000000E+00
	 1.00000000E+00	 2.50000000E-01	 6.00000000E+00
	 7.50000000E-01	-1.49012000E-08	 6.00000000E+00
	 5.00000000E-01	-1.49012000E-08	 5.50000000E+00
	 5.00000000E-01	 2.50000000E-01	 6.00000000E+00
	-7.45058000E-09	 5.00000000E-01	 6.00000000E+00
	-7.45058000E-09	 1.00000000E+00	 6.00000000E+00
	 2.50000000E-01	 5.00000000E-01	 6.00000000E+00
	 2.50000000E-01	 1.00000000E+00	 6.00000000E+00
	-7.45058000E-09	 5.00000000E-01	 5.50000000E+00
	-7.45058000E-09	 7.50000000E-01	 6.00000000E+00
	-7.45058000E-09	 1.00000000E+00	 5.50000000E+00
	-7.45058000E-09	-1.49012000E-08	 6.00000000E+00
	 2.50000000E-01	-1.49012000E-08	 6.00000000E+00
	-7.45058000E-09	-1.49012000E-08	 5.50000000E+00
	-7.45058000E-09	 2.50000000E-01	 6.00000000E+00
	 1.00000000E+00	 5.00000000E-01	 7.00000000E+00
[...]
POINT_DATA 522
FIELD U 1
	U 3 522 double
		 0.00000000E+00	 0.00000000E+00	 0.00000000E+00
		 0.00000000E+00	 0.00000000E+00	 0.00000000E+00
		-2.18038000E-05	 3.94506000E-04	 4.88034000E-05
		-5.99959000E-05	 4.18800000E-04	-3.32227000E-04
		 0.00000000E+00	 0.00000000E+00	 0.00000000E+00
		 0.00000000E+00	 0.00000000E+00	 0.00000000E+00
		-1.35272000E-05	 3.14639000E-04	 4.89610000E-05
		-1.34625000E-04	 3.43112000E-04	-3.26166000E-04
		 0.00000000E+00	 0.00000000E+00	 0.00000000E+00
		-1.85551000E-05	 8.27262000E-05	 2.50053000E-05
		-4.17142000E-05	 3.95497000E-04	-1.36290000E-04
		 3.60491000E-05	 1.06664000E-04	-1.44775000E-04
		 0.00000000E+00	 0.00000000E+00	 0.00000000E+00
		 0.00000000E+00	 0.00000000E+00	 0.00000000E+00
		-1.78665000E-05	 3.65063000E-04	 4.85100000E-05
		-9.70803000E-05	 3.93222000E-04	-3.49338000E-04
		 0.00000000E+00	 0.00000000E+00	 0.00000000E+00
		-1.04972000E-05	 1.03217000E-04	 2.10945000E-05
		-7.31916000E-05	 3.18351000E-04	-1.53865000E-04
		-1.77569000E-05	 1.30965000E-04	-1.40459000E-04
		 0.00000000E+00	 0.00000000E+00	 0.00000000E+00
		 1.67831000E-05	 4.31771000E-04	 4.29634000E-04
		 0.00000000E+00	 0.00000000E+00	 0.00000000E+00
		 1.06540000E-04	 3.57578000E-04	 4.23641000E-04
		 0.00000000E+00	 0.00000000E+00	 0.00000000E+00
		-7.31329000E-05	 1.20925000E-04	 1.96743000E-04
		-1.77132000E-06	 4.01731000E-04	 2.33389000E-04
		 0.00000000E+00	 0.00000000E+00	 0.00000000E+00
		 6.11518000E-05	 4.06688000E-04	 4.46180000E-04
		 0.00000000E+00	 0.00000000E+00	 0.00000000E+00
		-4.06292000E-06	 1.45149000E-04	 1.85001000E-04
		 4.57758000E-05	 3.25241000E-04	 2.51299000E-04
		 0.00000000E+00	 0.00000000E+00	 0.00000000E+00
		 0.00000000E+00	 0.00000000E+00	 0.00000000E+00
		-4.24340000E-06	 1.53153000E-04	 4.94951000E-05
		-1.97086000E-04	 1.86459000E-04	-3.31761000E-04
		 0.00000000E+00	 0.00000000E+00	 0.00000000E+00
		 0.00000000E+00	 0.00000000E+00	 0.00000000E+00
		-8.72426000E-06	 2.45849000E-04	 4.91323000E-05
		-1.65337000E-04	 2.74215000E-04	-2.98066000E-04
		 0.00000000E+00	 0.00000000E+00	 0.00000000E+00
		-2.64215000E-06	 6.90588000E-05	 2.07111000E-05
		-1.02467000E-04	 1.59317000E-04	-1.86629000E-04
		-6.03573000E-05	 1.03537000E-04	-1.48796000E-04
		 0.00000000E+00	 0.00000000E+00	 0.00000000E+00
		 1.86092000E-04	 2.03541000E-04	 4.30003000E-04
		 0.00000000E+00	 0.00000000E+00	 0.00000000E+00
		 1.45953000E-04	 2.89656000E-04	 3.95632000E-04
		 0.00000000E+00	 0.00000000E+00	 0.00000000E+00
		 5.34594000E-05	 1.19450000E-04	 1.92793000E-04
		 9.31384000E-05	 1.67886000E-04	 2.85091000E-04
		-2.12198000E-05	 2.18898000E-03	 9.93685000E-05
		-5.47865000E-04	 2.26042000E-03	-1.13560000E-03
		-1.28414000E-05	 1.57037000E-03	 1.00231000E-04
		-7.15396000E-04	 1.64638000E-03	-1.12938000E-03
		-2.02560000E-05	 1.02231000E-03	 7.40098000E-05
		-2.85269000E-04	 2.20289000E-03	-4.80520000E-04
		-2.53077000E-04	 1.07157000E-03	-6.61465000E-04
		-1.72287000E-05	 1.90135000E-03	 9.96970000E-05
		-6.31440000E-04	 1.97572000E-03	-1.18306000E-03
		-1.12117000E-05	 7.17495000E-04	 7.49535000E-05
		-3.63831000E-04	 1.58630000E-03	-5.28372000E-04
		-3.80845000E-04	 7.73827000E-04	-6.49883000E-04
		 5.05814000E-04	 2.27981000E-03	 1.33414000E-03
		 6.89857000E-04	 1.66542000E-03	 1.32997000E-03
		 2.13474000E-04	 1.08869000E-03	 8.10433000E-04
		 2.42915000E-04	 2.21251000E-03	 6.79604000E-04
		 5.97387000E-04	 1.99516000E-03	 1.38207000E-03
		 3.58549000E-04	 7.89593000E-04	 8.00162000E-04
		 3.38213000E-04	 1.59583000E-03	 7.29020000E-04
		-4.11376000E-06	 7.82735000E-04	 9.96888000E-05
		-8.78152000E-04	 8.58189000E-04	-1.13563000E-03
		-8.40130000E-06	 1.19799000E-03	 1.00411000E-04
		-7.96930000E-04	 1.27430000E-03	-1.07483000E-03
		-2.24543000E-06	 2.82109000E-04	 7.55832000E-05
		-4.40464000E-04	 7.98590000E-04	-5.88356000E-04
		-4.95942000E-04	 3.44245000E-04	-6.60555000E-04
		 8.69738000E-04	 8.77701000E-04	 1.33537000E-03
		 7.80015000E-04	 1.29328000E-03	 1.27608000E-03
		 4.91027000E-04	 3.60426000E-04	 8.11533000E-04
		 4.32243000E-04	 8.08466000E-04	 7.87855000E-04
		-2.03763000E-05	 6.50972000E-03	 1.30453000E-04
		-1.22248000E-03	 6.58128000E-03	-2.32144000E-03
		-1.40068000E-05	 5.21514000E-03	 1.38902000E-04
		-1.39715000E-03	 5.28852000E-03	-2.31593000E-03
		-2.26450000E-05	 4.02134000E-03	 1.17907000E-04
		-6.22168000E-04	 6.52201000E-03	-1.04419000E-03
		-8.90579000E-04	 4.09912000E-03	-1.71980000E-03
		-1.70370000E-05	 5.88523000E-03	 1.35165000E-04
		-1.31006000E-03	 5.95828000E-03	-2.36508000E-03
		-1.56538000E-05	 3.06236000E-03	 1.22023000E-04
		-7.05324000E-04	 5.22770000E-03	-1.08388000E-03
		-1.06522000E-03	 3.13866000E-03	-1.71591000E-03
		 1.17792000E-03	 6.60782000E-03	 2.58262000E-03
		 1.36761000E-03	 5.31984000E-03	 2.59384000E-03
		 8.43104000E-04	 4.11983000E-03	 1.95525000E-03
		 5.80373000E-04	 6.53486000E-03	 1.30539000E-03
		 1.27301000E-03	 5.98821000E-03	 2.63536000E-03
		 1.03294000E-03	 3.16248000E-03	 1.95990000E-03
		 6.76896000E-04	 5.24383000E-03	 1.36181000E-03
		-6.71106000E-06	 3.74516000E-03	 1.46304000E-04
		-1.56676000E-03	 3.81800000E-03	-2.30661000E-03
		-1.08028000E-05	 4.50313000E-03	 1.42268000E-04
		-1.48194000E-03	 4.57684000E-03	-2.26810000E-03
		-7.68010000E-06	 1.92264000E-03	 1.24483000E-04
		-7.85915000E-04	 3.75767000E-03	-1.11934000E-03
		-1.24286000E-03	 1.99392000E-03	-1.71393000E-03
		 1.55412000E-03	 3.84987000E-03	 2.59912000E-03
		 1.46024000E-03	 4.60843000E-03	 2.55263000E-03
		 1.22742000E-03	 2.01943000E-03	 1.96324000E-03
		 7.72796000E-04	 3.77423000E-03	 1.41214000E-03
		-2.05117000E-05	 1.34886000E-02	 1.47506000E-04
		-2.07320000E-03	 1.35251000E-02	-3.36191000E-03
		-1.22551000E-05	 1.13712000E-02	 1.58886000E-04
		-2.19343000E-03	 1.14098000E-02	-3.35756000E-03
		-1.77164000E-05	 9.67053000E-03	 1.40913000E-04
		-1.04724000E-03	 1.34917000E-02	-1.51431000E-03
		-1.59424000E-03	 9.72246000E-03	-2.87972000E-03
		-1.58491000E-05	 1.24447000E-02	 1.53130000E-04
		-2.13274000E-03	 1.24828000E-02	-3.43705000E-03
		-1.10108000E-05	 8.00928000E-03	 1.51117000E-04
		-1.10214000E-03	 1.13747000E-02	-1.58251000E-03
		-1.75134000E-03	 8.06629000E-03	-2.87550000E-03
		 2.02747000E-03	 1.35704000E-02	 3.65486000E-03
		 2.16711000E-03	 1.14601000E-02	 3.67333000E-03
		 1.55474000E-03	 9.75874000E-03	 3.16127000E-03
		 1.00480000E-03	 1.35132000E-02	 1.80886000E-03
		 2.09719000E-03	 1.25326000E-02	 3.74103000E-03
		 1.72784000E-03	 8.10709000E-03	 3.17731000E-03
		 1.07693000E-03	 1.14007000E-02	 1.89972000E-03
		-4.17972000E-06	 9.12837000E-03	 1.71621000E-04
		-2.30350000E-03	 9.17315000E-03	-3.33758000E-03
		-8.64334000E-06	 1.02661000E-02	 1.65020000E-04
		-2.24837000E-03	 1.03055000E-02	-3.28056000E-03
		-4.11169000E-06	 6.19183000E-03	 1.61302000E-04
		-1.15583000E-03	 9.13506000E-03	-1.63443000E-03
		-1.89608000E-03	 6.25391000E-03	-2.85983000E-03
		 2.29671000E-03	 9.22232000E-03	 3.67886000E-03
		 2.23132000E-03	 1.03549000E-02	 3.60891000E-03
		 1.88945000E-03	 6.29357000E-03	 3.18183000E-03
		 1.14787000E-03	 9.16111000E-03	 1.97691000E-03
		-3.88869000E-05	 2.24653000E-02	 1.43356000E-04
		-3.29948000E-03	 2.24819000E-02	-4.01007000E-03
		-2.30580000E-05	 1.91653000E-02	 1.62094000E-04
		-3.37158000E-03	 1.91769000E-02	-3.98713000E-03
		-2.82479000E-05	 1.78281000E-02	 1.47845000E-04
		-1.66755000E-03	 2.24650000E-02	-1.84995000E-03
		-2.66221000E-03	 1.78519000E-02	-3.71193000E-03
		-3.08577000E-05	 2.08258000E-02	 1.52556000E-04
		-3.33570000E-03	 2.08377000E-02	-4.08981000E-03
		-1.68318000E-05	 1.51473000E-02	 1.62332000E-04
		-1.69714000E-03	 1.91620000E-02	-1.92052000E-03
		-2.74770000E-03	 1.51707000E-02	-3.70168000E-03
		 3.21839000E-03	 2.25455000E-02	 4.29430000E-03
		 3.32356000E-03	 1.92437000E-02	 4.30843000E-03
		 2.60120000E-03	 1.79051000E-02	 4.00464000E-03
		 1.58869000E-03	 2.24949000E-02	 2.13596000E-03
		 3.27099000E-03	 2.09050000E-02	 4.39239000E-03
		 2.71179000E-03	 1.52287000E-02	 4.02326000E-03
		 1.65026000E-03	 1.91957000E-02	 2.24395000E-03
		-7.79863000E-06	 1.57700000E-02	 1.81951000E-04
		-3.44359000E-03	 1.57850000E-02	-3.97088000E-03
		-1.53275000E-05	 1.74781000E-02	 1.71945000E-04
		-3.40730000E-03	 1.74908000E-02	-3.88269000E-03
		-5.70120000E-06	 1.23690000E-02	 1.78947000E-04
		-1.72703000E-03	 1.57670000E-02	-1.99818000E-03
		-2.82339000E-03	 1.24002000E-02	-3.68031000E-03
		 3.42810000E-03	 1.58519000E-02	 4.33131000E-03
		 3.37589000E-03	 1.75563000E-02	 4.22343000E-03
		 2.81237000E-03	 1.24582000E-02	 4.03488000E-03
		 1.71149000E-03	 1.58024000E-02	 2.36106000E-03
		-7.37465000E-05	 3.24423000E-02	 1.17015000E-04
		-4.40413000E-03	 3.24883000E-02	-4.90614000E-03
		-5.33704000E-05	 2.80248000E-02	 1.43538000E-04
		-4.55668000E-03	 2.80660000E-02	-4.87299000E-03
		-5.34441000E-05	 2.72798000E-02	 1.34732000E-04
		-2.23844000E-03	 3.24423000E-02	-2.33974000E-03
		-3.88647000E-03	 2.73136000E-02	-4.38655000E-03
		-6.36501000E-05	 3.02577000E-02	 1.30146000E-04
		-4.48099000E-03	 3.02994000E-02	-4.95912000E-03
		-3.46041000E-05	 2.33876000E-02	 1.57084000E-04
		-2.30506000E-03	 2.80205000E-02	-2.38058000E-03
		-3.99227000E-03	 2.34149000E-02	-4.35315000E-03
		 4.25281000E-03	 3.25798000E-02	 5.13946000E-03
		 4.44875000E-03	 2.81621000E-02	 5.15932000E-03
		 3.77641000E-03	 2.73893000E-02	 4.65423000E-03
		 2.08999000E-03	 3.24868000E-02	 2.57400000E-03
		 4.35080000E-03	 3.03953000E-02	 5.21841000E-03
		 3.92176000E-03	 2.34937000E-02	 4.66511000E-03
		 2.19806000E-03	 2.80692000E-02	 2.66761000E-03
		-3.13693000E-05	 2.34345000E-02	 1.67492000E-04
		-4.71879000E-03	 2.34661000E-02	-4.85520000E-03
		-4.27375000E-05	 2.57517000E-02	 1.56186000E-04
		-4.63815000E-03	 2.57916000E-02	-4.78365000E-03
		-1.54451000E-05	 1.93645000E-02	 1.78480000E-04
		-2.37248000E-03	 2.34252000E-02	-2.43819000E-03
		-4.10580000E-03	 1.93882000E-02	-4.34204000E-03
		 4.65745000E-03	 2.35628000E-02	 5.18961000E-03
		 4.55324000E-03	 2.58872000E-02	 5.09523000E-03
		 4.07581000E-03	 1.94668000E-02	 4.69639000E-03
		 2.31009000E-03	 2.34750000E-02	 2.77330000E-03
		-1.29765000E-04	 4.46477000E-02	 5.19472000E-05
		-5.29767000E-03	 4.46583000E-02	-6.19021000E-03
		-1.05013000E-04	 3.94129000E-02	 8.25586000E-05
		-5.41182000E-03	 3.94154000E-02	-6.17494000E-03
		-9.80636000E-05	 3.82184000E-02	 8.77031000E-05
		-2.71223000E-03	 4.46344000E-02	-2.99444000E-03
		-4.88125000E-03	 3.82485000E-02	-5.56923000E-03
		-1.16559000E-04	 4.20508000E-02	 6.72371000E-05
		-5.35393000E-03	 4.20549000E-02	-6.23006000E-03
		-7.63899000E-05	 3.33449000E-02	 1.18534000E-04
		-2.75816000E-03	 3.93940000E-02	-3.01796000E-03
		-5.03868000E-03	 3.33689000E-02	-5.54253000E-03
		 5.03481000E-03	 4.47964000E-02	 6.28892000E-03
		 5.19902000E-03	 3.95577000E-02	 6.33556000E-03
		 4.68067000E-03	 3.83630000E-02	 5.74423000E-03
		 2.45160000E-03	 4.47030000E-02	 3.09607000E-03
		 5.11786000E-03	 4.21966000E-02	 6.35976000E-03
		 4.88441000E-03	 3.34894000E-02	 5.77940000E-03
		 2.54717000E-03	 3.94660000E-02	 3.18145000E-03
		-8.00683000E-05	 3.40337000E-02	 1.17980000E-04
		-5.54137000E-03	 3.40249000E-02	-6.12865000E-03
		-9.34812000E-05	 3.67407000E-02	 9.96620000E-05
		-5.47808000E-03	 3.67412000E-02	-6.12133000E-03
		-5.34325000E-05	 2.82916000E-02	 1.47865000E-04
		-2.80795000E-03	 3.40083000E-02	-3.01104000E-03
		-5.20983000E-03	 2.83028000E-02	-5.50981000E-03
		 5.37983000E-03	 3.41698000E-02	 6.36103000E-03
		 5.28862000E-03	 3.68840000E-02	 6.31758000E-03
		 5.10488000E-03	 2.84238000E-02	 5.80587000E-03
		 2.64754000E-03	 3.40828000E-02	 3.24502000E-03
		-2.30032000E-04	 5.83598000E-02	-2.97954000E-05
		-5.80367000E-03	 5.83189000E-02	-6.70267000E-03
		-1.85561000E-04	 5.28147000E-02	-5.25949000E-06
		-5.75959000E-03	 5.27654000E-02	-6.70676000E-03
		-1.75263000E-04	 5.15183000E-02	 1.33518000E-05
		-3.01926000E-03	 5.83430000E-02	-3.34213000E-03
		-5.61882000E-03	 5.14839000E-02	-6.55719000E-03
		-2.09149000E-04	 5.55855000E-02	-1.98422000E-05
		-5.78070000E-03	 5.55406000E-02	-6.71403000E-03
		-1.43487000E-04	 4.60488000E-02	 3.94206000E-05
		-2.97507000E-03	 5.27942000E-02	-3.33868000E-03
		-5.65053000E-03	 4.60080000E-02	-6.55482000E-03
		 5.35026000E-03	 5.84537000E-02	 6.62541000E-03
		 5.38223000E-03	 5.28936000E-02	 6.67818000E-03
		 5.27111000E-03	 5.16326000E-02	 6.56960000E-03
		 2.56018000E-03	 5.84075000E-02	 3.27739000E-03
		 5.36394000E-03	 5.56695000E-02	 6.65672000E-03
		 5.35885000E-03	 4.61546000E-02	 6.62043000E-03
		 2.60148000E-03	 5.28552000E-02	 3.32301000E-03
		-1.42705000E-04	 4.72367000E-02	 3.80340000E-05
		-5.73676000E-03	 4.71747000E-02	-6.65496000E-03
		-1.62215000E-04	 5.00265000E-02	 1.46696000E-05
		-5.74968000E-03	 4.99745000E-02	-6.68973000E-03
		-1.12328000E-04	 4.05073000E-02	 8.01565000E-05
		-2.93620000E-03	 4.72073000E-02	-3.28738000E-03
		-5.70156000E-03	 4.04530000E-02	-6.50301000E-03
		 5.43335000E-03	 4.73221000E-02	 6.71284000E-03
		 5.41103000E-03	 5.01090000E-02	 6.70165000E-03
		 5.46593000E-03	 4.06117000E-02	 6.65133000E-03
		 2.64597000E-03	 4.72805000E-02	 3.35740000E-03
		 0.00000000E+00	 0.00000000E+00	 0.00000000E+00
		 0.00000000E+00	 0.00000000E+00	 0.00000000E+00
		-4.23552000E-05	-3.71440000E-03	-1.69800000E-04
		-2.31522000E-03	-3.88648000E-03	 4.02522000E-03
		 0.00000000E+00	 0.00000000E+00	 0.00000000E+00
		 0.00000000E+00	 0.00000000E+00	 0.00000000E+00
		-6.69237000E-05	-5.77994000E-03	-2.38982000E-04
		-1.91791000E-03	-5.96069000E-03	 4.02915000E-03
		 0.00000000E+00	 0.00000000E+00	 0.00000000E+00
		 6.81250000E-06	-6.13733000E-04	-7.37689000E-05
		-1.18171000E-03	-3.71538000E-03	 1.97209000E-03
		-1.55274000E-03	-9.75054000E-04	 2.23070000E-03
		 0.00000000E+00	 0.00000000E+00	 0.00000000E+00
		 0.00000000E+00	 0.00000000E+00	 0.00000000E+00
		-5.30826000E-05	-4.82942000E-03	-2.05922000E-04
		-2.11087000E-03	-5.00250000E-03	 3.88318000E-03
		 0.00000000E+00	 0.00000000E+00	 0.00000000E+00
		-2.12657000E-05	-1.84482000E-03	-1.02975000E-04
		-9.93358000E-04	-5.78044000E-03	 1.79028000E-03
		-9.74996000E-04	-2.17457000E-03	 2.15746000E-03
		 0.00000000E+00	 0.00000000E+00	 0.00000000E+00
		 2.23211000E-03	-3.89238000E-03	-4.36974000E-03
		 0.00000000E+00	 0.00000000E+00	 0.00000000E+00
		 1.78941000E-03	-5.97752000E-03	-4.50984000E-03
		 0.00000000E+00	 0.00000000E+00	 0.00000000E+00
		 1.57266000E-03	-1.00663000E-03	-2.39395000E-03
		 1.09593000E-03	-3.71839000E-03	-2.31191000E-03
		 0.00000000E+00	 0.00000000E+00	 0.00000000E+00
		 2.00824000E-03	-5.01433000E-03	-4.29854000E-03
		 0.00000000E+00	 0.00000000E+00	 0.00000000E+00
		 9.39601000E-04	-2.22466000E-03	-2.37842000E-03
		 8.58719000E-04	-5.79032000E-03	-2.26814000E-03
		 0.00000000E+00	 0.00000000E+00	 0.00000000E+00
		 0.00000000E+00	 0.00000000E+00	 0.00000000E+00
		-9.77469000E-05	-7.41951000E-03	-2.99406000E-04
		-1.51528000E-03	-7.57209000E-03	 3.89957000E-03
		 0.00000000E+00	 0.00000000E+00	 0.00000000E+00
		 0.00000000E+00	 0.00000000E+00	 0.00000000E+00
		-8.07325000E-05	-6.67990000E-03	-2.68776000E-04
		-1.71827000E-03	-6.84520000E-03	 4.13411000E-03
		 0.00000000E+00	 0.00000000E+00	 0.00000000E+00
		-5.97378000E-05	-2.52735000E-03	-1.39277000E-04
		-8.08705000E-04	-7.40805000E-03	 1.53114000E-03
		-3.44622000E-04	-2.80857000E-03	 2.16590000E-03
		 0.00000000E+00	 0.00000000E+00	 0.00000000E+00
		 1.32526000E-03	-7.59516000E-03	-4.49730000E-03
		 0.00000000E+00	 0.00000000E+00	 0.00000000E+00
		 1.56087000E-03	-6.86866000E-03	-4.67286000E-03
		 0.00000000E+00	 0.00000000E+00	 0.00000000E+00
		 2.30376000E-04	-2.87293000E-03	-2.45971000E-03
		 6.15498000E-04	-7.42376000E-03	-2.12814000E-03
		-1.77741000E-04	-1.41122000E-02	-4.03559000E-04
		-3.61632000E-03	-1.41965000E-02	 5.80417000E-03
		-1.92478000E-04	-1.74677000E-02	-5.04852000E-04
		-3.47957000E-03	-1.75562000E-02	 5.73858000E-03
		-1.07064000E-04	-8.33772000E-03	-2.79941000E-04
		-1.89673000E-03	-1.41434000E-02	 2.69914000E-03
		-3.04737000E-03	-8.50060000E-03	 5.16950000E-03
		-1.85793000E-04	-1.58009000E-02	-4.57528000E-04
		-3.54890000E-03	-1.58865000E-02	 5.70795000E-03
		-1.27619000E-04	-1.11182000E-02	-3.69994000E-04
		-1.83156000E-03	-1.74999000E-02	 2.55542000E-03
		-2.75503000E-03	-1.12873000E-02	 5.11437000E-03
		 3.26335000E-03	-1.41475000E-02	-6.61122000E-03
		 3.08989000E-03	-1.75153000E-02	-6.74620000E-03
		 2.83638000E-03	-8.47829000E-03	-5.73356000E-03
		 1.54165000E-03	-1.41182000E-02	-3.50657000E-03
		 3.17853000E-03	-1.58478000E-02	-6.62035000E-03
		 2.50256000E-03	-1.12739000E-02	-5.85739000E-03
		 1.45025000E-03	-1.74812000E-02	-3.56215000E-03
		-2.11917000E-04	-2.06790000E-02	-6.01265000E-04
		-3.33558000E-03	-2.07545000E-02	 5.60654000E-03
		-2.02454000E-04	-1.90830000E-02	-5.50934000E-04
		-3.40696000E-03	-1.91952000E-02	 5.76973000E-03
		-1.52641000E-04	-1.35949000E-02	-4.53941000E-04
		-1.77832000E-03	-2.07013000E-02	 2.34874000E-03
		-2.49001000E-03	-1.37706000E-02	 4.99643000E-03
		 2.93531000E-03	-2.07308000E-02	-6.80636000E-03
		 3.01245000E-03	-1.91329000E-02	-6.87162000E-03
		 2.19639000E-03	-1.37717000E-02	-5.90484000E-03
		 1.36105000E-03	-2.06932000E-02	-3.54685000E-03
		-2.77485000E-04	-2.67531000E-02	-6.72862000E-04
		-4.60211000E-03	-2.66402000E-02	 5.41802000E-03
		-2.79961000E-04	-3.11182000E-02	-7.43207000E-04
		-4.75447000E-03	-3.11283000E-02	 5.37988000E-03
		-2.37544000E-04	-2.04498000E-02	-5.37927000E-04
		-2.43273000E-03	-2.67163000E-02	 2.37086000E-03
		-4.11804000E-03	-2.04644000E-02	 5.87317000E-03
		-2.78049000E-04	-2.89172000E-02	-7.04392000E-04
		-4.68174000E-03	-2.88802000E-02	 5.32462000E-03
		-2.47472000E-04	-2.43269000E-02	-6.33048000E-04
		-2.54040000E-03	-3.11484000E-02	 2.22887000E-03
		-4.13844000E-03	-2.43560000E-02	 5.81962000E-03
		 3.99750000E-03	-2.66292000E-02	-6.74026000E-03
		 4.18248000E-03	-3.10054000E-02	-6.87617000E-03
		 3.63083000E-03	-2.04127000E-02	-6.94373000E-03
		 1.86174000E-03	-2.67135000E-02	-3.70257000E-03
		 4.08726000E-03	-2.87927000E-02	-6.73906000E-03
		 3.64071000E-03	-2.42800000E-02	-7.08032000E-03
		 1.95368000E-03	-3.10891000E-02	-3.73312000E-03
		-2.82691000E-04	-3.56741000E-02	-8.17203000E-04
		-5.01016000E-03	-3.58149000E-02	 5.27251000E-03
		-2.81723000E-04	-3.33882000E-02	-7.82202000E-04
		-4.88587000E-03	-3.33345000E-02	 5.44592000E-03
		-2.47889000E-04	-2.82209000E-02	-7.25898000E-04
		-2.61459000E-03	-3.57739000E-02	 2.01569000E-03
		-4.18344000E-03	-2.82784000E-02	 5.69021000E-03
		 4.39465000E-03	-3.55869000E-02	-6.94261000E-03
		 4.28804000E-03	-3.32681000E-02	-7.01982000E-03
		 3.64497000E-03	-2.81658000E-02	-7.13816000E-03
		 2.04902000E-03	-3.56667000E-02	-3.69270000E-03
		-2.36213000E-04	-3.71111000E-02	-9.11308000E-04
		-5.08086000E-03	-3.67637000E-02	 2.81208000E-03
		-2.37925000E-04	-4.22409000E-02	-8.97897000E-04
		-5.69253000E-03	-4.23738000E-02	 2.84084000E-03
		-3.08156000E-04	-3.24616000E-02	-7.96376000E-04
		-2.65590000E-03	-3.70011000E-02	 9.17639000E-04
		-4.96786000E-03	-3.23210000E-02	 4.33365000E-03
		-2.37178000E-04	-3.95763000E-02	-9.04353000E-04
		-5.37901000E-03	-3.94177000E-02	 2.82892000E-03
		-3.14241000E-04	-3.73220000E-02	-8.75115000E-04
		-2.84093000E-03	-4.23585000E-02	 9.38401000E-04
		-5.36847000E-03	-3.71476000E-02	 4.36532000E-03
		 4.41997000E-03	-3.68618000E-02	-4.63021000E-03
		 4.90194000E-03	-4.18275000E-02	-4.63059000E-03
		 4.31005000E-03	-3.22640000E-02	-5.91600000E-03
		 2.09268000E-03	-3.70568000E-02	-2.73864000E-03
		 4.66374000E-03	-3.92760000E-02	-4.63318000E-03
		 4.65953000E-03	-3.70798000E-02	-6.00208000E-03
		 2.32287000E-03	-4.20773000E-02	-2.73324000E-03
		-3.67203000E-04	-4.78919000E-02	-8.87903000E-04
		-6.18053000E-03	-4.84147000E-02	 2.83674000E-03
		-3.02531000E-04	-4.49658000E-02	-8.92303000E-04
		-5.93698000E-03	-4.58096000E-02	 2.85522000E-03
		-3.36113000E-04	-4.25442000E-02	-9.84178000E-04
		-3.38455000E-03	-4.81910000E-02	 9.26582000E-04
		-5.62658000E-03	-4.22768000E-02	 4.28040000E-03
		 5.43241000E-03	-4.73221000E-02	-4.60474000E-03