# vtk DataFile Version 3.0

ASCII
DATASET UNSTRUCTURED_GRID

POINTS 522 double
	 1.00000000E+00	 1.00000000E+00	-5.96046000E-08
	 1.00000000E+00	 5.00000000E-01	-5.96046000E-08
	 1.00000000E+00	 5.00000000E-01	 1.00000000E+00
	 1.00000000E+00	 1.00000000E+00	 1.00000000E+00
	 5.00000000E-01	 1.00000000E+00	-5.96046000E-08
	 5.00000000E-01	 5.00000000E-01	-5.96046000E-08
	 5.00000000E-01	 5.00000000E-01	 1.00000000E+00
	 5.00000000E-01	 1.00000000E+00	 1.00000000E+00
	 1.00000000E+00	 7.50000000E-01	-5.96046000E-08
	 1.00000000E+00	 5.00000000E-01	 5.00000000E-01
	 1.00000000E+00	 7.50000000E-01	 1.00000000E+00
	 1.00000000E+00	 1.00000000E+00	 5.00000000E-01
	 7.50000000E-01	 1.00000000E+00	-5.96046000E-08
	 7.50000000E-01	 5.00000000E-01	-5.96046000E-08
	 7.50000000E-01	 5.00000000E-01	 1.00000000E+00
	 7.50000000E-01	 1.00000000E+00	 1.00000000E+00
	 5.00000000E-01	 7.50000000E-01	-5.96046000E-08
	 5.00000000E-01	 5.00000000E-01	 5.00000000E-01
	 5.00000000E-01	 7.50000000E-01	 1.00000000E+00
	 5.00000000E-01	 1.00000000E+00	 5.00000000E-01
	 1.00000000E+00	-1.49012000E-08	-5.96046000E-08
	 1.00000000E+00	-1.49012000E-08	 1.00000000E+00
	 5.00000000E-01	-1.49012000E-08	-5.96046000E-08
	 5.00000000E-01	-1.49012000E-08	 1.00000000E+00
	 1.00000000E+00	 2.50000000E-01	-5.96046000E-08
	 1.00000000E+00	-1.49012000E-08	 5.00000000E-01
	 1.00000000E+00	 2.50000000E-01	 1.00000000E+00
	 7.50000000E-01	-1.49012000E-08	-5.96046000E-08
	 7.50000000E-01	-1.49012000E-08	 1.00000000E+00
	 5.00000000E-01	 2.50000000E-01	-5.96046000E-08
	 5.00000000E-01	-1.49012000E-08	 5.00000000E-01
	 5.00000000E-01	 2.50000000E-01	 1.00000000E+00
	-7.45058000E-09	 1.00000000E+00	-5.96046000E-08
	-7.45058000E-09	 5.00000000E-01	-5.96046000E-08
	-7.45058000E-09	 5.00000000E-01	 1.00000000E+00
	-7.45058000E-09	 1.00000000E+00	 1.00000000E+00
	 2.50000000E-01	 1.00000000E+00	-5.96046000E-08
	 2.50000000E-01	 5.00000000E-01	-5.96046000E-08
	 2.50000000E-01	 5.00000000E-01	 1.00000000E+00
	 2.50000000E-01	 1.00000000E+00	 1.00000000E+00
	-7.45058000E-09	 7.50000000E-01	-5.96046000E-08
	-7.45058000E-09	 5.00000000E-01	 5.00000000E-01
	-7.45058000E-09	 7.50000000E-01	 1.00000000E+00
	-7.45058000E-09	 1.00000000E+00	 5.00000000E-01
	-7.45058000E-09	-1.49012000E-08	-5.96046000E-08
	-7.45058000E-09	-1.49012000E-08	 1.00000000E+00
	 2.50000000E-01	-1.49012000E-08	-5.96046000E-08
	 2.50000000E-01	-1.49012000E-08	 1.00000000E+00
	-7.45058000E-09	 2.50000000E-01	-5.96046000E-08
	-7.45058000E-09	-1.49012000E-08	 5.00000000E-01
	-7.45058000E-09	 2.50000000E-01	 1.00000000E+00
	 1.00000000E+00	 5.00000000E-01	 2.00000000E+00
	 1.00000000E+00	 1.00000000E+00	 2.00000000E+00
	 5.00000000E-01	 5.00000000E-01	 2.00000000E+00
	 5.00000000E-01	 1.00000000E+00	 2.00000000E+00
	 1.00000000E+00	 5.00000000E-01	 1.50000000E+00
	 1.00000000E+00	 7.50000000E-01	 2.00000000E+00
	 1.00000000E+00	 1.00000000E+00	 1.50000000E+00
	 7.50000000E-01	 5.00000000E-01	 2.00000000E+00
	 7.50000000E-01	 1.00000000E+00	 2.00000000E+00
	 5.00000000E-01	 5.00000000E-01	 1.50000000E+00
	 5.00000000E-01	 7.50000000E-01	 2.00000000E+00
	 5.00000000E-01	 1.00000000E+00	 1.50000000E+00
	 1.00000000E+00	-1.49012000E-08	 2.00000000E+00
	 5.00000000E-01	-1.49012000E-08	 2.00000000E+00
	 1.00000000E+00	-1.49012000E-08	 1.50000000E+00
	 1.00000000E+00	 2.50000000E-01	 2.00000000E+00
	 7.50000000E-01	-1.49012000E-08	 2.00000000E+00
	 5.00000000E-01	-1.49012000E-08	 1.50000000E+00
	 5.00000000E-01	 2.50000000E-01	 2.00000000E+00
	-7.45058000E-09	 5.00000000E-01	 2.00000000E+00
	-7.45058000E-09	 1.00000000E+00	 2.00000000E+00
	 2.50000000E-01	 5.00000000E-01	 2.00000000E+00
	 2.50000000E-01	 1.00000000E+00	 2.00000000E+00
	-7.45058000E-09	 5.00000000E-01	 1.50000000E+00
	-7.45058000E-09	 7.50000000E-01	 2.00000000E+00
	-7.45058000E-09	 1.00000000E+00	 1.50000000E+00
	-7.45058000E-09	-1.49012000E-08	 2.00000000E+00
	 2.50000000E-01	-1.49012000E-08	 2.00000000E+00
	-7.45058000E-09	-1.49012000E-08	 1.50000000E+00
	-7.45058000E-09	 2.50000000E-01	 2.00000000E+00
	 1.00000000E+00	 5.00000000E-01	 3.00000000E+00
	 1.00000000E+00	 1.00000000E+00	 3.00000000E+00
	 5.00000000E-01	 5.00000000E-01	 3.00000000E+00
	 5.00000000E-01	 1.00000000E+00	 3.00000000E+00
	 1.00000000E+00	 5.00000000E-01	 2.50000000E+00
	 1.00000000E+00	 7.50000000E-01	 3.00000000E+00
	 1.00000000E+00	 1.00000000E+00	 2.50000000E+00
	 7.50000000E-01	 5.00000000E-01	 3.00000000E+00
	 7.50000000E-01	 1.00000000E+00	 3.00000000E+00
	 5.00000000E-01	 5.00000000E-01	 2.50000000E+00
	 5.00000000E-01	 7.50000000E-01	 3.00000000E+00
	 5.00000000E-01	 1.00000000E+00	 2.50000000E+00
	 1.00000000E+00	-1.49012000E-08	 3.00000000E+00
	 5.00000000E-01	-1.49012000E-08	 3.00000000E+00
	 1.00000000E+00	-1.49012000E-08	 2.50000000E+00
	 1.00000000E+00	 2.50000000E-01	 3.00000000E+00
	 7.50000000E-01	-1.49012000E-08	 3.00000000E+00
	 5.00000000E-01	-1.49012000E-08	 2.50000000E+00
	 5.00000000E-01	 2.50000000E-01	 3.00000000E+00
	-7.45058000E-09	 5.00000000E-01	 3.00000000E+00
	-7.45058000E-09	 1.00000000E+00	 3.00000000E+00
	 2.50000000E-01	 5.00000000E-01	 3.00000000E+00
	 2.50000000E-01	 1.00000000E+00	 3.00000000E+00
	-7.45058000E-09	 5.00000000E-01	 2.50000000E+00
	-7.45058000E-09	 7.50000000E-01	 3.00000000E+00
	-7.45058000E-09	 1.00000000E+00	 2.50000000E+00
	-7.45058000E-09	-1.49012000E-08	 3.00000000E+00
	 2.50000000E-01	-1.49012000E-08	 3.00000000E+00
	-7.45058000E-09	-1.49012000E-08	 2.50000000E+00
	-7.45058000E-09	 2.50000000E-01	 3.00000000E+00
	 1.00000000E+00	 5.00000000E-01	 4.00000000E+00
	 1.00000000E+00	 1.00000000E+00	 4.00000000E+00
	 5.00000000E-01	 5.00000000E-01	 4.00000000E+00
	 5.00000000E-01	 1.00000000E+00	 4.00000000E+00
	 1.00000000E+00	 5.00000000E-01	 3.50000000E+00
	 1.00000000E+00	 7.50000000E-01	 4.00000000E+00
	 1.00000000E+00	 1.00000000E+00	 3.50000000E+00
	 7.50000000E-01	 5.00000000E-01	 4.00000000E+00
	 7.50000000E-01	 1.00000000E+00	 4.00000000E+00
	 5.00000000E-01	 5.00000000E-01	 3.50000000E+00
	 5.00000000E-01	 7.50000000E-01	 4.00000000E+00
	 5.00000000E-01	 1.00000000E+00	 3.50000000E+00
	 1.00000000E+00	-1.49012000E-08	 4.00000000E+00
	 5.00000000E-01	-1.49012000E-08	 4.00000000E+00
	 1.00000000E+00	-1.49012000E-08	 3.50000000E+00
	 1.00000000E+00	 2.50000000E-01	 4.00000000E+00
	 7.50000000E-01	-1.49012000E-08	 4.00000000E+00
	 5.00000000E-01	-1.49012000E-08	 3.50000000E+00
	 5.00000000E-01	 2.50000000E-01	 4.00000000E+00
	-7.45058000E-09	 5.00000000E-01	 4.00000000E+00
	-7.45058000E-09	 1.00000000E+00	 4.00000000E+00
	 2.50000000E-01	 5.00000000E-01	 4.00000000E+00
	 2.50000000E-01	 1.00000000E+00	 4.00000000E+00
	-7.45058000E-09	 5.00000000E-01	 3.50000000E+00
	-7.45058000E-09	 7.50000000E-01	 4.00000000E+00
	-7.45058000E-09	 1.00000000E+00	 3.50000000E+00
	-7.45058000E-09	-1.49012000E-08	 4.00000000E+00
	 2.50000000E-01	-1.49012000E-08	 4.00000000E+00
	-7.45058000E-09	-1.49012000E-08	 3.50000000E+00
	-7.45058000E-09	 2.50000000E-01	 4.00000000E+00
	 1.00000000E+00	 5.00000000E-01	 5.00000000E+00
	 1.00000000E+00	 1.00000000E+00	 5.00000000E+00
	 5.00000000E-01	 5.00000000E-01	 5.00000000E+00
	 5.00000000E-01	 1.00000000E+00	 5.00000000E+00
	 1.00000000E+00	 5.00000000E-01	 4.50000000E+00
	 1.00000000E+00	 7.50000000E-01	 5.00000000E+00
	 1.00000000E+00	 1.00000000E+00	 4.50000000E+00
	 7.50000000E-01	 5.00000000E-01	 5.00000000E+00
	 7.50000000E-01	 1.00000000E+00	 5.00000000E+00
	 5.00000000E-01	 5.00000000E-01	 4.50000000E+00
	 5.00000000E-01	 7.50000000E-01	 5.00000000E+00
	 5.00000000E-01	 1.00000000E+00	 4.50000000E+00
	 1.00000000E+00	-1.49012000E-08	 5.00000000E+00
	 5.00000000E-01	-1.49012000E-08	 5.00000000E+00
	 1.00000000E+00	-1.49012000E-08	 4.50000000E+00
	 1.00000000E+00	 2.50000000E-01	 5.00000000E+00
	 7.50000000E-01	-1.49012000E-08	 5.00000000E+00
	 5.00000000E-01	-1.49012000E-08	 4.50000000E+00
	 5.00000000E-01	 2.50000000E-01	 5.00000000E+00
	-7.45058000E-09	 5.00000000E-01	 5.00000000E+00
	-7.45058000E-09	 1.00000000E+00	 5.00000000E+00
	 2.50000000E-01	 5.00000000E-01	 5.00000000E+00
	 2.50000000E-01	 1.00000000E+00	 5.00000000E+00
	-7.45058000E-09	 5.00000000E-01	 4.50000000E+00
	-7.45058000E-09	 7.50000000E-01	 5.00000000E+00
	-7.45058000E-09	 1.00000000E+00	 4.50000000E+00
	-7.45058000E-09	-1.49012000E-08	 5.00000000E+00
	 2.50000000E-01	-1.49012000E-08	 5.00000000E+00
	-7.45058000E-09	-1.49012000E-08	 4.50000000E+00
	-7.45058000E-09	 2.50000000E-01	 5.00000000E+00
	 1.00000000E+00	 5.00000000E-01	 6.00000000E+00
	 1.00000000E+00	 1.00000000E+00	 6.00000000E+00
	 5.00000000E-01	 5.00000000E-01	 6.00000000E+00
	 5.00000000E-01	 1.00000000E+00	 6.00000000E+00
	 1.00000000E+00	 5.00000000E-01	 5.50000000E+00
	 1.00000000E+00	 7.50000000E-01	 6.00000000E+00
	 1.00000000E+00	 1.00000000E+00	 5.50000000E+00
	 7.50000000E-01	 5.00000000E-01	 6.00000000E+00
	 7.50000000E-01	 1.00000000E+00	 6.00000000E+00
	 5.00000000E-01	 5.00000000E-01	 5.50000000E+00
	 5.00000000E-01	 7.50000000E-01	 6.00000000E+00
	 5.00000000E-01	 1.00000000E+00	 5.50000000E+00
	 1.00000000E+00	-1.49012000E-08	 6.00000000E+00
	 5.00000000E-01	-1.49012000E-08	 6.00000000E+00
	 1.00000000E+00	-1.49012000E-08	 5.50000000E+00
	 1.00000000E+00	 2.50000000E-01	 6.00000000E+00
	 7.50000000E-01	-1.49012000E-08	 6.00000000E+00
	 5.00000000E-01	-1.49012000E-08	 5.50000000E+00
	 5.00000000E-01	 2.50000000E-01	 6.00000000E+00
	-7.45058000E-09	 5.00000000E-01	 6.00000000E+00
	-7.45058000E-09	 1.00000000E+00	 6.00000000E+00
	 2.50000000E-01	 5.00000000E-01	 6.00000000E+00
	 2.50000000E-01	 1.00000000E+00	 6.00000000E+00
	-7.45058000E-09	 5.00000000E-01	 5.50000000E+00
	-7.45058000E-09	 7.50000000E-01	 6.00000000E+00
	-7.45058000E-09	 1.00000000E+00	 5.50000000E+00
	-7.45058000E-09	-1.49012000E-08	 6.00000000E+00
	 2.50000000E-01	-1.49012000E-08	 6.00000000E+00
	-7.45058000E-09	-1.49012000E-08	 5.50000000E+00
	-7.45058000E-09	 2.50000000E-01	 6.00000000E+00
	 1.00000000E+00	 5.00000000E-01	 7.00000000E+00
[...]
POINT_DATA 522
FIELD U 1
	U 3 522 double
		 0.00000000E+00	 0.00000000E+00	 0.00000000E+00
		 0.00000000E+00	 0.00000000E+00	 0.00000000E+00
		-1.93367000E-05	 4.39775000E-03	-4.22336000E-05
		 5.40748000E-04	 4.59104000E-03	-3.97445000E-03
		 0.00000000E+00	 0.00000000E+00	 0.00000000E+00
		 0.00000000E+00	 0.00000000E+00	 0.00000000E+00
		-2.61242000E-05	 4.71053000E-03	-5.63628000E-05
		 4.53502000E-05	 4.92433000E-03	-4.03417000E-03
		 0.00000000E+00	 0.00000000E+00	 0.00000000E+00
		-4.68832000E-06	 1.05347000E-03	-1.37124000E-05
		 2.61216000E-04	 4.40699000E-03	-1.95720000E-03
		 6.44903000E-04	 1.38241000E-03	-2.05755000E-03
		 0.00000000E+00	 0.00000000E+00	 0.00000000E+00
		 0.00000000E+00	 0.00000000E+00	 0.00000000E+00
		-2.25579000E-05	 4.63726000E-03	-5.05668000E-05
		 2.90392000E-04	 4.84101000E-03	-4.00565000E-03
		 0.00000000E+00	 0.00000000E+00	 0.00000000E+00
		-1.14099000E-05	 1.37152000E-03	-2.22098000E-05
		 9.83868000E-06	 4.72708000E-03	-1.99100000E-03
		 4.55820000E-05	 1.70684000E-03	-2.01435000E-03
		 0.00000000E+00	 0.00000000E+00	 0.00000000E+00
		-5.81711000E-04	 4.61447000E-03	 3.88475000E-03
		 0.00000000E+00	 0.00000000E+00	 0.00000000E+00
		-9.70139000E-05	 4.94802000E-03	 3.91615000E-03
		 0.00000000E+00	 0.00000000E+00	 0.00000000E+00
		-6.54245000E-04	 1.38634000E-03	 2.02584000E-03
		-3.01009000E-04	 4.41849000E-03	 1.87156000E-03
		 0.00000000E+00	 0.00000000E+00	 0.00000000E+00
		-3.35918000E-04	 4.86510000E-03	 3.89904000E-03
		 0.00000000E+00	 0.00000000E+00	 0.00000000E+00
		-6.68472000E-05	 1.70660000E-03	 1.96621000E-03
		-6.20875000E-05	 4.73880000E-03	 1.87681000E-03
		 0.00000000E+00	 0.00000000E+00	 0.00000000E+00
		 0.00000000E+00	 0.00000000E+00	 0.00000000E+00
		-3.25862000E-05	 4.53998000E-03	-6.58315000E-05
		-4.40595000E-04	 4.74292000E-03	-3.99745000E-03
		 0.00000000E+00	 0.00000000E+00	 0.00000000E+00
		 0.00000000E+00	 0.00000000E+00	 0.00000000E+00
		-2.92549000E-05	 4.70916000E-03	-6.08399000E-05
		-1.94298000E-04	 4.91546000E-03	-4.01917000E-03
		 0.00000000E+00	 0.00000000E+00	 0.00000000E+00
		-1.99843000E-05	 1.16584000E-03	-3.00954000E-05
		-2.38836000E-04	 4.55453000E-03	-1.97704000E-03
		-5.56114000E-04	 1.49788000E-03	-2.07397000E-03
		 0.00000000E+00	 0.00000000E+00	 0.00000000E+00
		 3.78801000E-04	 4.76541000E-03	 3.86185000E-03
		 0.00000000E+00	 0.00000000E+00	 0.00000000E+00
		 1.37345000E-04	 4.93925000E-03	 3.89295000E-03
		 0.00000000E+00	 0.00000000E+00	 0.00000000E+00
		 5.19350000E-04	 1.49444000E-03	 2.00958000E-03
		 1.74729000E-04	 4.56537000E-03	 1.84437000E-03
		-4.23703000E-05	 1.61023000E-02	-1.58365000E-04
		 1.54308000E-04	 1.62481000E-02	-7.14987000E-03
		-4.97192000E-05	 1.60783000E-02	-1.65749000E-04
		-2.77490000E-04	 1.62377000E-02	-7.16853000E-03
		-3.14862000E-05	 9.42058000E-03	-8.96160000E-05
		 5.40587000E-05	 1.61296000E-02	-3.58494000E-03
		 4.22444000E-04	 9.62787000E-03	-5.63711000E-03
		-4.62504000E-05	 1.61360000E-02	-1.63027000E-04
		-6.05944000E-05	 1.62914000E-02	-7.20891000E-03
		-3.89508000E-05	 9.64123000E-03	-1.02110000E-04
		-1.62389000E-04	 1.61130000E-02	-3.64714000E-03
		-4.69340000E-05	 9.85525000E-03	-5.66107000E-03
		-2.40832000E-04	 1.63343000E-02	 6.82699000E-03
		 1.77605000E-04	 1.63259000E-02	 6.83045000E-03
		-4.87984000E-04	 9.67831000E-03	 5.45125000E-03
		-1.39265000E-04	 1.61710000E-02	 3.26711000E-03
		-3.28626000E-05	 1.63801000E-02	 6.87615000E-03
		-3.09892000E-05	 9.90734000E-03	 5.45013000E-03
		 6.30223000E-05	 1.61567000E-02	 3.31416000E-03
		-5.58469000E-05	 1.56471000E-02	-1.67143000E-04
		-6.89448000E-04	 1.58100000E-02	-7.15890000E-03
		-5.30344000E-05	 1.59106000E-02	-1.67041000E-04
		-4.83748000E-04	 1.60695000E-02	-7.12531000E-03
		-4.60051000E-05	 9.40447000E-03	-1.09410000E-04
		-3.74405000E-04	 1.56829000E-02	-3.68136000E-03
		-4.96074000E-04	 9.63106000E-03	-5.65702000E-03
		 5.78204000E-04	 1.58997000E-02	 6.81789000E-03
		 3.77635000E-04	 1.61576000E-02	 6.78505000E-03
		 4.06226000E-04	 9.68292000E-03	 5.43134000E-03
		 2.63201000E-04	 1.57282000E-02	 3.34527000E-03
		-5.52663000E-05	 3.40740000E-02	-3.69692000E-04
		-9.42820000E-04	 3.41053000E-02	-9.65425000E-03
		-6.08276000E-05	 3.30546000E-02	-3.53545000E-04
		-1.20069000E-03	 3.30942000E-02	-9.66547000E-03
		-4.98918000E-05	 2.43796000E-02	-2.51740000E-04
		-5.01625000E-04	 3.40580000E-02	-4.85748000E-03
		-3.01466000E-04	 2.44709000E-02	-8.52150000E-03
		-5.82094000E-05	 3.35965000E-02	-3.62247000E-04
		-1.07162000E-03	 3.36330000E-02	-9.76336000E-03
		-5.70482000E-05	 2.39416000E-02	-2.49389000E-04
		-6.30048000E-04	 3.30405000E-02	-4.95474000E-03
		-6.67232000E-04	 2.40439000E-02	-8.53840000E-03
		 8.30982000E-04	 3.42676000E-02	 8.91071000E-03
		 1.07855000E-03	 3.32596000E-02	 8.95349000E-03
		 1.99925000E-04	 2.45950000E-02	 8.01234000E-03
		 3.90665000E-04	 3.41336000E-02	 4.11747000E-03
		 9.54469000E-04	 3.38008000E-02	 9.03391000E-03
		 5.52376000E-04	 2.41712000E-02	 8.03340000E-03
		 5.08384000E-04	 3.31213000E-02	 4.24656000E-03
		-6.49112000E-05	 3.17951000E-02	-3.32253000E-04
		-1.44514000E-03	 3.18364000E-02	-9.61730000E-03
		-6.30771000E-05	 3.24582000E-02	-3.43679000E-04
		-1.32275000E-03	 3.24995000E-02	-9.56911000E-03
		-6.25867000E-05	 2.31600000E-02	-2.40889000E-04
		-7.54512000E-04	 3.17815000E-02	-4.99598000E-03
		-1.01182000E-03	 2.32686000E-02	-8.51105000E-03
		 1.31543000E-03	 3.20027000E-02	 8.94746000E-03
		 1.19634000E-03	 3.26629000E-02	 8.87683000E-03
		 8.86438000E-04	 2.33977000E-02	 8.02261000E-03
		 6.24847000E-04	 3.18655000E-02	 4.33008000E-03
		-6.70858000E-05	 5.58975000E-02	-6.47766000E-04
		-2.55804000E-03	 5.57838000E-02	-1.06400000E-02
		-6.62826000E-05	 5.34294000E-02	-5.97856000E-04
		-2.52089000E-03	 5.33110000E-02	-1.06167000E-02
		-6.06353000E-05	 4.47831000E-02	-5.05116000E-04
		-1.31099000E-03	 5.58509000E-02	-5.47461000E-03
		-1.72479000E-03	 4.47386000E-02	-1.03614000E-02
		-6.68116000E-05	 5.46581000E-02	-6.22902000E-04
		-2.53948000E-03	 5.45382000E-02	-1.07454000E-02
		-6.35967000E-05	 4.30633000E-02	-4.73005000E-04
		-1.29358000E-03	 5.33784000E-02	-5.55203000E-03
		-1.83736000E-03	 4.30205000E-02	-1.03612000E-02
		 2.42346000E-03	 5.59857000E-02	 9.34555000E-03
		 2.38824000E-03	 5.35148000E-02	 9.42241000E-03
		 1.60280000E-03	 4.49275000E-02	 9.34915000E-03
		 1.17657000E-03	 5.59447000E-02	 4.17924000E-03
		 2.40568000E-03	 5.47459000E-02	 9.50086000E-03
		 1.70992000E-03	 4.32121000E-02	 9.41303000E-03
		 1.16108000E-03	 5.34781000E-02	 4.35654000E-03
		-6.46041000E-05	 5.09894000E-02	-5.47695000E-04
		-2.48309000E-03	 5.08746000E-02	-1.05398000E-02
		-6.56050000E-05	 5.22040000E-02	-5.72685000E-04
		-2.50233000E-03	 5.20879000E-02	-1.04923000E-02
		-6.53563000E-05	 4.12365000E-02	-4.38057000E-04
		-1.27519000E-03	 5.09378000E-02	-5.57721000E-03
		-1.94280000E-03	 4.11966000E-02	-1.02944000E-02
		 2.35385000E-03	 5.10785000E-02	 9.44578000E-03
		 2.37104000E-03	 5.22883000E-02	 9.34850000E-03
		 1.81224000E-03	 4.13881000E-02	 9.41604000E-03
		 1.14616000E-03	 5.10410000E-02	 4.48192000E-03
		-6.36214000E-05	 7.69967000E-02	-9.02857000E-04
		-4.01942000E-03	 7.68182000E-02	-1.00095000E-02
		-5.18957000E-05	 7.31484000E-02	-8.19115000E-04
		-3.81067000E-03	 7.29604000E-02	-9.93010000E-03
		-6.96815000E-05	 6.67809000E-02	-7.84428000E-04
		-2.03851000E-03	 7.69344000E-02	-5.36170000E-03
		-3.34137000E-03	 6.66319000E-02	-1.04541000E-02
		-5.76224000E-05	 7.50485000E-02	-8.60080000E-04
		-3.91473000E-03	 7.48609000E-02	-1.00570000E-02
		-6.37469000E-05	 6.35869000E-02	-7.15910000E-04
		-1.93174000E-03	 7.30811000E-02	-5.36870000E-03
		-3.19442000E-03	 6.34283000E-02	-1.04030000E-02
		 3.89244000E-03	 7.70093000E-02	 8.20825000E-03
		 3.70836000E-03	 7.31497000E-02	 8.29668000E-03
		 3.20154000E-03	 6.68309000E-02	 8.88863000E-03
		 1.91156000E-03	 7.70271000E-02	 3.55672000E-03
		 3.80066000E-03	 7.50543000E-02	 8.34206000E-03
		 3.06711000E-03	 6.36284000E-02	 8.97463000E-03
		 1.82850000E-03	 7.31755000E-02	 3.73155000E-03
		-4.10871000E-05	 6.94792000E-02	-7.37805000E-04
		-3.61331000E-03	 6.92933000E-02	-9.84429000E-03
		-4.63307000E-05	 7.12889000E-02	-7.78638000E-04
		-3.71212000E-03	 7.11029000E-02	-9.80164000E-03
		-5.78087000E-05	 6.05206000E-02	-6.49025000E-04
		-1.82860000E-03	 6.94103000E-02	-5.37089000E-03
		-3.05412000E-03	 6.03652000E-02	-1.03186000E-02
		 3.53283000E-03	 6.94798000E-02	 8.37315000E-03
		 3.62107000E-03	 7.12879000E-02	 8.24840000E-03
		 2.93857000E-03	 6.05648000E-02	 9.02390000E-03
		 1.74680000E-03	 6.95065000E-02	 3.89673000E-03
		-3.36674000E-05	 9.48616000E-02	-1.06955000E-03
		-4.92649000E-03	 9.47072000E-02	-9.00118000E-03
		-1.20397000E-05	 9.00509000E-02	-9.75720000E-04
		-4.74952000E-03	 8.98940000E-02	-8.90153000E-03
		-4.96140000E-05	 8.63224000E-02	-9.96364000E-04
		-2.47955000E-03	 9.48069000E-02	-5.00159000E-03
		-4.53977000E-03	 8.61561000E-02	-9.48405000E-03
		-2.25097000E-05	 9.24391000E-02	-1.02243000E-03
		-4.83885000E-03	 9.22788000E-02	-9.00079000E-03
		-3.23974000E-05	 8.19311000E-02	-9.04654000E-04
		-2.38276000E-03	 8.99903000E-02	-4.95366000E-03
		-4.33745000E-03	 8.17571000E-02	-9.38696000E-03
		 4.86171000E-03	 9.48864000E-02	 6.86232000E-03
		 4.72798000E-03	 9.00631000E-02	 6.95176000E-03
		 4.44261000E-03	 8.63400000E-02	 7.49487000E-03
		 2.41109000E-03	 9.48933000E-02	 2.86056000E-03
		 4.79571000E-03	 9.24550000E-02	 6.95716000E-03
		 4.27484000E-03	 8.19352000E-02	 7.58167000E-03
		 2.35860000E-03	 9.00763000E-02	 3.00234000E-03
		 7.54700000E-06	 8.53846000E-02	-8.82237000E-04
		-4.59223000E-03	 8.52208000E-02	-8.81412000E-03
		-1.99835000E-06	 8.76984000E-02	-9.28892000E-04
		-4.67164000E-03	 8.75421000E-02	-8.79944000E-03
		-1.73264000E-05	 7.77122000E-02	-8.15047000E-04
		-2.29078000E-03	 8.53196000E-02	-4.92056000E-03
		-4.15143000E-03	 7.75359000E-02	-9.30276000E-03
		 4.61052000E-03	 8.53860000E-02	 7.05196000E-03
		 4.67023000E-03	 8.77069000E-02	 6.94388000E-03
		 4.12015000E-03	 7.77094000E-02	 7.67651000E-03
		 2.30723000E-03	 8.54048000E-02	 3.15645000E-03
		 1.26497000E-06	 1.10067000E-01	-1.18393000E-03
		-5.20303000E-03	 1.09930000E-01	-8.33111000E-03
		 2.91351000E-05	 1.04911000E-01	-1.09082000E-03
		-5.07443000E-03	 1.04788000E-01	-8.23584000E-03
		-1.91221000E-05	 1.02747000E-01	-1.13386000E-03
		-2.59436000E-03	 1.09999000E-01	-4.76818000E-03
		-5.16183000E-03	 1.02621000E-01	-8.63157000E-03
		 1.53075000E-05	 1.07480000E-01	-1.13740000E-03
		-5.13495000E-03	 1.07350000E-01	-8.27637000E-03
		 7.56273000E-06	 9.76734000E-02	-1.03650000E-03
		-2.51904000E-03	 1.04862000E-01	-4.67634000E-03
		-5.00444000E-03	 9.75335000E-02	-8.53049000E-03
		 5.20100000E-03	 1.10095000E-01	 5.96145000E-03
		 5.13664000E-03	 1.04940000E-01	 6.05814000E-03
		 5.12526000E-03	 1.02783000E-01	 6.36696000E-03
		 2.60006000E-03	 1.10090000E-01	 2.40593000E-03
		 5.16839000E-03	 1.07506000E-01	 6.00208000E-03
		 5.02191000E-03	 9.76948000E-02	 6.45680000E-03
		 2.58176000E-03	 1.04935000E-01	 2.49733000E-03
		 5.79039000E-05	 9.98513000E-02	-9.97106000E-04
		-4.95984000E-03	 9.97303000E-02	-8.15791000E-03
		 4.40761000E-05	 1.02367000E-01	-1.04402000E-03
		-5.01581000E-03	 1.02247000E-01	-8.19874000E-03
		 3.21968000E-05	 9.27167000E-02	-9.40935000E-04
		-2.44938000E-03	 9.98009000E-02	-4.59204000E-03
		-4.87677000E-03	 9.25668000E-02	-8.44191000E-03
		 5.08100000E-03	 9.98712000E-02	 6.16629000E-03
		 5.10927000E-03	 1.02396000E-01	 6.11241000E-03
		 4.94216000E-03	 9.27242000E-02	 6.56019000E-03
		 2.56603000E-03	 9.98706000E-02	 2.59998000E-03
		 6.58683000E-05	 1.23583000E-01	-1.27427000E-03
		-4.85300000E-03	 1.23060000E-01	-7.94838000E-03
		 5.19923000E-05	 1.18613000E-01	-1.18184000E-03
		-4.92300000E-03	 1.18487000E-01	-7.98812000E-03
		 3.23336000E-05	 1.16876000E-01	-1.23805000E-03
		-2.41627000E-03	 1.23372000E-01	-4.70204000E-03
		-5.06003000E-03	 1.16781000E-01	-8.11358000E-03
		 5.66445000E-05	 1.21090000E-01	-1.22618000E-03
		-4.90422000E-03	 1.20751000E-01	-7.92818000E-03
		 5.24719000E-05	 1.11820000E-01	-1.14145000E-03
		-2.46337000E-03	 1.18545000E-01	-4.60917000E-03
		-4.97628000E-03	 1.11726000E-01	-8.04733000E-03
		 5.06785000E-03	 1.23678000E-01	 5.57271000E-03
		 5.08605000E-03	 1.18705000E-01	 5.67931000E-03
		 5.13227000E-03	 1.16947000E-01	 5.69618000E-03
		 2.56749000E-03	 1.23643000E-01	 2.17638000E-03
		 5.07987000E-03	 1.21185000E-01	 5.60752000E-03
		 5.10442000E-03	 1.11877000E-01	 5.79985000E-03
		 2.57663000E-03	 1.18664000E-01	 2.25892000E-03
		 6.61034000E-05	 1.13663000E-01	-1.11916000E-03
		-4.91355000E-03	 1.13602000E-01	-8.00594000E-03
		 5.73122000E-05	 1.16149000E-01	-1.14612000E-03
		-4.91795000E-03	 1.16053000E-01	-8.01034000E-03
		 7.40418000E-05	 1.06800000E-01	-1.05920000E-03
		-2.43306000E-03	 1.13635000E-01	-4.56850000E-03
		-4.91960000E-03	 1.06718000E-01	-8.01528000E-03
		 5.09892000E-03	 1.13732000E-01	 5.79551000E-03
		 5.09069000E-03	 1.16227000E-01	 5.74795000E-03
		 5.09565000E-03	 1.06846000E-01	 5.91271000E-03
		 2.58624000E-03	 1.13696000E-01	 2.34353000E-03
		 0.00000000E+00	 0.00000000E+00	 0.00000000E+00
		 0.00000000E+00	 0.00000000E+00	 0.00000000E+00
		-9.89811000E-07	-8.71250000E-03	 1.26367000E-04
		-3.27592000E-03	-9.49368000E-03	 1.03604000E-02
		 0.00000000E+00	 0.00000000E+00	 0.00000000E+00
		 0.00000000E+00	 0.00000000E+00	 0.00000000E+00
		 2.98076000E-05	-1.12895000E-02	 6.41011000E-05
		-1.86047000E-03	-1.21007000E-02	 1.03970000E-02
		 0.00000000E+00	 0.00000000E+00	 0.00000000E+00
		-1.97307000E-06	-1.38291000E-03	 7.03091000E-05
		-1.64466000E-03	-8.86793000E-03	 5.33438000E-03
		-2.45701000E-03	-2.36275000E-03	 5.22192000E-03
		 0.00000000E+00	 0.00000000E+00	 0.00000000E+00
		 0.00000000E+00	 0.00000000E+00	 0.00000000E+00
		 1.68711000E-05	-1.02325000E-02	 9.40753000E-05
		-2.55540000E-03	-1.10220000E-02	 1.02020000E-02
		 0.00000000E+00	 0.00000000E+00	 0.00000000E+00
		 1.84043000E-05	-3.01408000E-03	 4.53837000E-05
		-9.16490000E-04	-1.14486000E-02	 5.13950000E-03
		-9.18426000E-04	-3.95863000E-03	 5.05178000E-03
		 0.00000000E+00	 0.00000000E+00	 0.00000000E+00
		 3.26861000E-03	-9.16994000E-03	-1.01459000E-02
		 0.00000000E+00	 0.00000000E+00	 0.00000000E+00
		 1.93383000E-03	-1.17926000E-02	-1.03103000E-02
		 0.00000000E+00	 0.00000000E+00	 0.00000000E+00
		 2.44703000E-03	-2.21309000E-03	-5.08359000E-03
		 1.64021000E-03	-8.69920000E-03	-5.09809000E-03
		 0.00000000E+00	 0.00000000E+00	 0.00000000E+00
		 2.59539000E-03	-1.07066000E-02	-1.00496000E-02
		 0.00000000E+00	 0.00000000E+00	 0.00000000E+00
		 9.63368000E-04	-3.82438000E-03	-4.95696000E-03
		 9.78424000E-04	-1.12926000E-02	-5.02688000E-03
		 0.00000000E+00	 0.00000000E+00	 0.00000000E+00
		 0.00000000E+00	 0.00000000E+00	 0.00000000E+00
		 4.64178000E-05	-1.25045000E-02	 2.90870000E-05
		-4.47007000E-04	-1.32492000E-02	 1.02662000E-02
		 0.00000000E+00	 0.00000000E+00	 0.00000000E+00
		 0.00000000E+00	 0.00000000E+00	 0.00000000E+00
		 3.96858000E-05	-1.21256000E-02	 3.87029000E-05
		-1.16108000E-03	-1.29042000E-02	 1.04871000E-02
		 0.00000000E+00	 0.00000000E+00	 0.00000000E+00
		 3.03552000E-05	-3.26380000E-03	 4.66880000E-05
		-2.01337000E-04	-1.26344000E-02	 4.89751000E-03
		 6.80523000E-04	-4.15994000E-03	 5.19980000E-03
		 0.00000000E+00	 0.00000000E+00	 0.00000000E+00
		 5.67080000E-04	-1.29731000E-02	-1.02426000E-02
		 0.00000000E+00	 0.00000000E+00	 0.00000000E+00
		 1.25800000E-03	-1.26086000E-02	-1.04522000E-02
		 0.00000000E+00	 0.00000000E+00	 0.00000000E+00
		-6.02848000E-04	-4.03604000E-03	-5.10587000E-03
		 3.03545000E-04	-1.25021000E-02	-4.84852000E-03
		-4.01611000E-05	-3.76399000E-02	-7.30451000E-05
		-4.79101000E-03	-3.86417000E-02	 1.90405000E-02
		 1.71979000E-06	-4.17641000E-02	-2.73516000E-04
		-3.52504000E-03	-4.27662000E-02	 1.88703000E-02
		-5.69370000E-06	-2.08261000E-02	 9.35700000E-05
		-2.41347000E-03	-3.80043000E-02	 9.49983000E-03
		-4.13864000E-03	-2.17776000E-02	 1.49748000E-02
		-1.64899000E-05	-3.98378000E-02	-1.79764000E-04
		-4.15583000E-03	-4.08426000E-02	 1.88813000E-02
		 2.52952000E-05	-2.42811000E-02	-3.36980000E-05
		-1.76091000E-03	-4.21274000E-02	 9.24751000E-03
		-2.75959000E-03	-2.52288000E-02	 1.48763000E-02
		 4.72491000E-03	-3.77678000E-02	-1.92407000E-02
		 3.54626000E-03	-4.19419000E-02	-1.94725000E-02
		 4.12693000E-03	-2.12098000E-02	-1.48383000E-02
		 2.33410000E-03	-3.75640000E-02	-9.65900000E-03
		 4.14205000E-03	-4.00028000E-02	-1.92921000E-02
		 2.82821000E-03	-2.46949000E-02	-1.49963000E-02
		 1.77317000E-03	-4.17174000E-02	-9.80435000E-03
		 1.70640000E-05	-4.47028000E-02	-4.27613000E-04
		-2.28636000E-03	-4.56635000E-02	 1.86853000E-02
		 1.17688000E-05	-4.33701000E-02	-3.55539000E-04
		-2.90307000E-03	-4.43856000E-02	 1.88752000E-02
		 3.82059000E-05	-2.64118000E-02	-1.22714000E-04
		-1.14360000E-03	-4.50384000E-02	 8.97618000E-03
		-1.42447000E-03	-2.73488000E-02	 1.47586000E-02
		 2.37718000E-03	-4.49050000E-02	-1.95968000E-02
		 2.96369000E-03	-4.35562000E-02	-1.96455000E-02
		 1.54705000E-03	-2.68655000E-02	-1.50552000E-02
		 1.19402000E-03	-4.46703000E-02	-9.83988000E-03
		-1.43019000E-04	-8.37387000E-02	-9.27939000E-04
		-5.42236000E-03	-8.48105000E-02	 2.49830000E-02
		-9.35008000E-05	-8.85647000E-02	-1.23668000E-03
		-4.53982000E-03	-8.97425000E-02	 2.47271000E-02
		-8.40477000E-05	-5.87943000E-02	-4.07661000E-04
		-2.77653000E-03	-8.41632000E-02	 1.19303000E-02
		-5.21119000E-03	-5.98623000E-02	 2.24254000E-02
		-1.14484000E-04	-8.62579000E-02	-1.08479000E-03
		-4.98113000E-03	-8.73995000E-02	 2.48323000E-02
		-4.10361000E-05	-6.33812000E-02	-6.72929000E-04
		-2.34381000E-03	-8.90457000E-02	 1.16174000E-02
		-4.11724000E-03	-6.44573000E-02	 2.22096000E-02
		 5.11253000E-03	-8.33848000E-02	-2.68695000E-02
		 4.37056000E-03	-8.82541000E-02	-2.72678000E-02
		 5.04959000E-03	-5.86907000E-02	-2.32954000E-02
		 2.48095000E-03	-8.34630000E-02	-1.37860000E-02
		 4.74291000E-03	-8.59216000E-02	-2.70627000E-02
		 4.05850000E-03	-6.33091000E-02	-2.36113000E-02
		 2.13843000E-03	-8.83151000E-02	-1.41220000E-02
		-6.86306000E-05	-9.26167000E-02	-1.50527000E-03
		-3.79437000E-03	-9.38924000E-02	 2.44008000E-02
		-7.83777000E-05	-9.07073000E-02	-1.37850000E-03
		-4.16827000E-03	-9.18088000E-02	 2.46443000E-02
		-1.23792000E-05	-6.69506000E-02	-8.90798000E-04
		-1.90441000E-03	-9.31488000E-02	 1.12354000E-02
		-3.09687000E-03	-6.80349000E-02	 2.19469000E-02
		 3.63705000E-03	-9.23571000E-02	-2.75061000E-02
		 4.00657000E-03	-9.03992000E-02	-2.74714000E-02
		 3.06189000E-03	-6.69046000E-02	-2.37860000E-02
		 1.77421000E-03	-9.24056000E-02	-1.43005000E-02
		-2.27825000E-04	-1.41179000E-01	-2.39632000E-03
		-5.19484000E-03	-1.42077000E-01	 2.67518000E-02
		-1.83858000E-04	-1.46096000E-01	-2.73268000E-03
		-5.07304000E-03	-1.47440000E-01	 2.64654000E-02
		-2.20996000E-04	-1.11590000E-01	-1.60821000E-03
		-2.71426000E-03	-1.41599000E-01	 1.20464000E-02
		-5.40110000E-03	-1.12686000E-01	 2.63604000E-02
		-2.03285000E-04	-1.43625000E-01	-2.56436000E-03
		-5.12311000E-03	-1.44694000E-01	 2.66548000E-02
		-1.78004000E-04	-1.16552000E-01	-1.98211000E-03
		-2.50736000E-03	-1.46727000E-01	 1.17704000E-02
		-4.91788000E-03	-1.17592000E-01	 2.61339000E-02
		 4.58523000E-03	-1.40389000E-01	-3.15568000E-02
		 4.42290000E-03	-1.45162000E-01	-3.19351000E-02
		 4.94560000E-03	-1.10992000E-01	-2.96064000E-02
		 2.17716000E-03	-1.40778000E-01	-1.68391000E-02
		 4.50915000E-03	-1.42789000E-01	-3.17954000E-02
		 4.50714000E-03	-1.15934000E-01	-3.00242000E-02
		 2.10619000E-03	-1.45593000E-01	-1.72401000E-02
		-2.91583000E-04	-1.50837000E-01	-3.06026000E-03
		-4.83962000E-03	-1.52535000E-01	 2.60990000E-02
		-2.34245000E-04	-1.48451000E-01	-2.90029000E-03
		-4.95327000E-03	-1.50491000E-01	 2.62861000E-02
		-1.75812000E-04	-1.21035000E-01	-2.35543000E-03
		-2.68159000E-03	-1.51630000E-01	 1.14162000E-02
		-4.29790000E-03	-1.21949000E-01	 2.57615000E-02
		 4.27203000E-03	-1.49772000E-01	-3.22133000E-02