# vtk DataFile Version 3.0

ASCII
DATASET UNSTRUCTURED_GRID

POINTS 522 double
	 1.00000000E+00	 1.00000000E+00	-5.96046000E-08
	 1.00000000E+00	 5.00000000E-01	-5.96046000E-08
	 1.00000000E+00	 5.00000000E-01	 1.00000000E+00
	 1.00000000E+00	 1.00000000E+00	 1.00000000E+00
	 5.00000000E-01	 1.00000000E+00	-5.96046000E-08
	 5.00000000E-01	 5.00000000E-01	-5.96046000E-08
	 5.00000000E-01	 5.00000000E-01	 1.00000000E+00
	 5.00000000E-01	 1.00000000E+00	 1.00000000E+00
	 1.00000000E+00	 7.50000000E-01	-5.96046000E-08
	 1.00000000E+00	 5.00000000E-01	 5.00000000E-01
	 1.00000000E+00	 7.50000000E-01	 1.00000000E+00
	 1.00000000E+00	 1.00000000E+00	 5.00000000E-01
	 7.50000000E-01	 1.00000000E+00	-5.96046000E-08
	 7.50000000E-01	 5.00000000E-01	-5.96046000E-08
	 7.50000000E-01	 5.00000000E-01	 1.00000000E+00
	 7.50000000E-01	 1.00000000E+00	 1.00000000E+00
	 5.00000000E-01	 7.50000000E-01	-5.96046000E-08
	 5.00000000E-01	 5.00000000E-01	 5.00000000E-01
	 5.00000000E-01	 7.50000000E-01	 1.00000000E+00
	 5.00000000E-01	 1.00000000E+00	 5.00000000E-01
	 1.00000000E+00	-1.49012000E-08	-5.96046000E-08
	 1.00000000E+00	-1.49012000E-08	 1.00000000E+00
	 5.00000000E-01	-1.49012000E-08	-5.96046000E-08
	 5.00000000E-01	-1.49012000E-08	 1.00000000E+00
	 1.00000000E+00	 2.50000000E-01	-5.96046000E-08
	 1.00000000E+00	-1.49012000E-08	 5.00000000E-01
	 1.00000000E+00	 2.50000000E-01	 1.00000000E+00
	 7.50000000E-01	-1.49012000E-08	-5.96046000E-08
	 7.50000000E-01	-1.49012000E-08	 1.00000000E+00
	 5.00000000E-01	 2.50000000E-01	-5.96046000E-08
	 5.00000000E-01	-1.49012000E-08	 5.00000000E-01
	 5.00000000E-01	 2.50000000E-01	 1.00000000E+00
	-7.45058000E-09	 1.00000000E+00	-5.96046000E-08
	-7.45058000E-09	 5.00000000E-01	-5.96046000E-08
	-7.45058000E-09	 5.00000000E-01	 1.00000000E+00
	-7.45058000E-09	 1.00000000E+00	 1.00000000E+00
	 2.50000000E-01	 1.00000000E+00	-5.96046000E-08
	 2.50000000E-01	 5.00000000E-01	-5.96046000E-08
	 2.50000000E-01	 5.00000000E-01	 1.00000000E+00
	 2.50000000E-01	 1.00000000E+00	 1.00000000E+00
	-7.45058000E-09	 7.50000000E-01	-5.96046000E-08
	-7.45058000E-09	 5.00000000E-01	 5.00000000E-01
	-7.45058000E-09	 7.50000000E-01	 1.00000000E+00
	-7.45058000E-09	 1.00000000E+00	 5.00000000E-01
	-7.45058000E-09	-1.49012000E-08	-5.96046000E-08
	-7.45058000E-09	-1.49012000E-08	 1.00000000E+00
	 2.50000000E-01	-1.49012000E-08	-5.96046000E-08
	 2.50000000E-01	-1.49012000E-08	 1.00000000E+00
	-7.45058000E-09	 2.50000000E-01	-5.96046000E-08
	-7.45058000E-09	-1.49012000E-08	 5.00000000E-01
	-7.45058000E-09	 2.50000000E-01	 1.00000000E+00
	 1.00000000E+00	 5.00000000E-01	 2.00000000E+00
	 1.00000000E+00	 1.00000000E+00	 2.00000000E+00
	 5.00000000E-01	 5.00000000E-01	 2.00000000E+00
	 5.00000000E-01	 1.00000000E+00	 2.00000000E+00
	 1.00000000E+00	 5.00000000E-01	 1.50000000E+00
	 1.00000000E+00	 7.50000000E-01	 2.00000000E+00
	 1.00000000E+00	 1.00000000E+00	 1.50000000E+00
	 7.50000000E-01	 5.00000000E-01	 2.00000000E+00
	 7.50000000E-01	 1.00000000E+00	 2.00000000E+00
	 5.00000000E-01	 5.00000000E-01	 1.50000000E+00
	 5.00000000E-01	 7.50000000E-01	 2.00000000E+00
	 5.00000000E-01	 1.00000000E+00	 1.50000000E+00
	 1.00000000E+00	-1.49012000E-08	 2.00000000E+00
	 5.00000000E-01	-1.49012000E-08	 2.00000000E+00
	 1.00000000E+00	-1.49012000E-08	 1.50000000E+00
	 1.00000000E+00	 2.50000000E-01	 2.00000000E+00
	 7.50000000E-01	-1.49012000E-08	 2.00000000E+00
	 5.00000000E-01	-1.49012000E-08	 1.50000000E+00
	 5.00000000E-01	 2.50000000E-01	 2.00000000E+00
	-7.45058000E-09	 5.00000000E-01	 2.00000000E+00
	-7.45058000E-09	 1.00000000E+00	 2.00000000E+00
	 2.50000000E-01	 5.00000000E-01	 2.00000000E+00
	 2.50000000E-01	 1.00000000E+00	 2.00000000E+00
	-7.45058000E-09	 5.00000000E-01	 1.50000000E+00
	-7.45058000E-09	 7.50000000E-01	 2.00000000E+00
	-7.45058000E-09	 1.00000000E+00	 1.50000000E+00
	-7.45058000E-09	-1.49012000E-08	 2.00000000E+00
	 2.50000000E-01	-1.49012000E-08	 2.00000000E+00
	-7.45058000E-09	-1.49012000E-08	 1.50000000E+00
	-7.45058000E-09	 2.50000000E-01	 2.00000000E+00
	 1.00000000E+00	 5.00000000E-01	 3.00000000E+00
	 1.00000000E+00	 1.00000000E+00	 3.00000000E+00
	 5.00000000E-01	 5.00000000E-01	 3.00000000E+00
	 5.00000000E-01	 1.00000000E+00	 3.00000000E+00
	 1.00000000E+00	 5.00000000E-01	 2.50000000E+00
	 1.00000000E+00	 7.50000000E-01	 3.00000000E+00
	 1.00000000E+00	 1.00000000E+00	 2.50000000E+00
	 7.50000000E-01	 5.00000000E-01	 3.00000000E+00
	 7.50000000E-01	 1.00000000E+00	 3.00000000E+00
	 5.00000000E-01	 5.00000000E-01	 2.50000000E+00
	 5.00000000E-01	 7.50000000E-01	 3.00000000E+00
	 5.00000000E-01	 1.00000000E+00	 2.50000000E+00
	 1.00000000E+00	-1.49012000E-08	 3.00000000E+00
	 5.00000000E-01	-1.49012000E-08	 3.00000000E+00
	 1.00000000E+00	-1.49012000E-08	 2.50000000E+00
	 1.00000000E+00	 2.50000000E-01	 3.00000000E+00
	 7.50000000E-01	-1.49012000E-08	 3.00000000E+00
	 5.00000000E-01	-1.49012000E-08	 2.50000000E+00
	 5.00000000E-01	 2.50000000E-01	 3.00000000E+00
	-7.45058000E-09	 5.00000000E-01	 3.00000000E+00
	-7.45058000E-09	 1.00000000E+00	 3.00000000E+00
	 2.50000000E-01	 5.00000000E-01	 3.00000000E+00
	 2.50000000E-01	 1.00000000E+00	 3.00000000E+00
	-7.45058000E-09	 5.00000000E-01	 2.50000000E+00
	-7.45058000E-09	 7.50000000E-01	 3.00000000E+00
	-7.45058000E-09	 1.00000000E+00	 2.50000000E+00
	-7.45058000E-09	-1.49012000E-08	 3.00000000E+00
	 2.50000000E-01	-1.49012000E-08	 3.00000000E+00
	-7.45058000E-09	-1.49012000E-08	 2.50000000E+00
	-7.45058000E-09	 2.50000000E-01	 3.00000000E+00
	 1.00000000E+00	 5.00000000E-01	 4.00000000E+00
	 1.00000000E+00	 1.00000000E+00	 4.00000000E+00
	 5.00000000E-01	 5.00000000E-01	 4.00000000E+00
	 5.00000000E-01	 1.00000000E+00	 4.00000000E+00
	 1.00000000E+00	 5.00000000E-01	 3.50000000E+00
	 1.00000000E+00	 7.50000000E-01	 4.00000000E+00
	 1.00000000E+00	 1.00000000E+00	 3.50000000E+00
	 7.50000000E-01	 5.00000000E-01	 4.00000000E+00
	 7.50000000E-01	 1.00000000E+00	 4.00000000E+00
	 5.00000000E-01	 5.00000000E-01	 3.50000000E+00
	 5.00000000E-01	 7.50000000E-01	 4.00000000E+00
	 5.00000000E-01	 1.00000000E+00	 3.50000000E+00
	 1.00000000E+00	-1.49012000E-08	 4.00000000E+00
	 5.00000000E-01	-1.49012000E-08	 4.00000000E+00
	 1.00000000E+00	-1.49012000E-08	 3.50000000E+00
	 1.00000000E+00	 2.50000000E-01	 4.00000000E+00
	 7.50000000E-01	-1.49012000E-08	 4.00000000E+00
	 5.00000000E-01	-1.49012000E-08	 3.50000000E+00
	 5.00000000E-01	 2.50000000E-01	 4.00000000E+00
	-7.45058000E-09	 5.00000000E-01	 4.00000000E+00
	-7.45058000E-09	 1.00000000E+00	 4.00000000E+00
	 2.50000000E-01	 5.00000000E-01	 4.00000000E+00
	 2.50000000E-01	 1.00000000E+00	 4.00000000E+00
	-7.45058000E-09	 5.00000000E-01	 3.50000000E+00
	-7.45058000E-09	 7.50000000E-01	 4.00000000E+00
	-7.45058000E-09	 1.00000000E+00	 3.50000000E+00
	-7.45058000E-09	-1.49012000E-08	 4.00000000E+00
	 2.50000000E-01	-1.49012000E-08	 4.00000000E+00
	-7.45058000E-09	-1.49012000E-08	 3.50000000E+00
	-7.45058000E-09	 2.50000000E-01	 4.00000000E+00
	 1.00000000E+00	 5.00000000E-01	 5.00000000E+00
	 1.00000000E+00	 1.00000000E+00	 5.00000000E+00
	 5.00000000E-01	 5.00000000E-01	 5.00000000E+00
	 5.00000000E-01	 1.00000000E+00	 5.00000000E+00
	 1.00000000E+00	 5.00000000E-01	 4.50000000E+00
	 1.00000000E+00	 7.50000000E-01	 5.00000000E+00
	 1.00000000E+00	 1.00000000E+00	 4.50000000E+00
	 7.50000000E-01	 5.00000000E-01	 5.00000000E+00
	 7.50000000E-01	 1.00000000E+00	 5.00000000E+00
	 5.00000000E-01	 5.00000000E-01	 4.50000000E+00
	 5.00000000E-01	 7.50000000E-01	 5.00000000E+00
	 5.00000000E-01	 1.00000000E+00	 4.50000000E+00
	 1.00000000E+00	-1.49012000E-08	 5.00000000E+00
	 5.00000000E-01	-1.49012000E-08	 5.00000000E+00
	 1.00000000E+00	-1.49012000E-08	 4.50000000E+00
	 1.00000000E+00	 2.50000000E-01	 5.00000000E+00
	 7.50000000E-01	-1.49012000E-08	 5.00000000E+00
	 5.00000000E-01	-1.49012000E-08	 4.50000000E+00
	 5.00000000E-01	 2.50000000E-01	 5.00000000E+00
	-7.45058000E-09	 5.00000000E-01	 5.00000000E+00
	-7.45058000E-09	 1.00000000E+00	 5.00000000E+00
	 2.50000000E-01	 5.00000000E-01	 5.00000000E+00
	 2.50000000E-01	 1.00000000E+00	 5.00000000E+00
	-7.45058000E-09	 5.00000000E-01	 4.50000000E+00
	-7.45058000E-09	 7.50000000E-01	 5.00000000E+00
	-7.45058000E-09	 1.00000000E+00	 4.50000000E+00
	-7.45058000E-09	-1.49012000E-08	 5.00000000E+00
	 2.50000000E-01	-1.49012000E-08	 5.00000000E+00
	-7.45058000E-09	-1.49012000E-08	 4.50000000E+00
	-7.45058000E-09	 2.50000000E-01	 5.00000000E+00
	 1.00000000E+00	 5.00000000E-01	 6.00000000E+00
	 1.00000000E+00	 1.00000000E+00	 6.00000000E+00
	 5.00000000E-01	 5.00000000E-01	 6.00000000E+00
	 5.00000000E-01	 1.00000000E+00	 6.00000000E+00
	 1.00000000E+00	 5.00000000E-01	 5.50000000E+00
	 1.00000000E+00	 7.50000000E-01	 6.00000000E+00
	 1.00000000E+00	 1.00000000E+00	 5.50000000E+00
	 7.50000000E-01	 5.00000000E-01	 6.00000000E+00
	 7.50000000E-01	 1.00000000E+00	 6.00000000E+00
	 5.00000000E-01	 5.00000000E-01	 5.50000000E+00
	 5.00000000E-01	 7.50000000E-01	 6.00000000E+00
	 5.00000000E-01	 1.00000000E+00	 5.50000000E+00
	 1.00000000E+00	-1.49012000E-08	 6.00000000E+00
	 5.00000000E-01	-1.49012000E-08	 6.00000000E+00
	 1.00000000E+00	-1.49012000E-08	 5.50000000E+00
	 1.00000000E+00	 2.50000000E-01	 6.00000000E+00
	 7.50000000E-01	-1.49012000E-08	 6.00000000E+00
	 5.00000000E-01	-1.49012000E-08	 5.50000000E+00
	 5.00000000E-01	 2.50000000E-01	 6.00000000E+00
	-7.45058000E-09	 5.00000000E-01	 6.00000000E+00
	-7.45058000E-09	 1.00000000E+00	 6.00000000E+00
	 2.50000000E-01	 5.00000000E-01	 6.00000000E+00
	 2.50000000E-01	 1.00000000E+00	 6.00000000E+00
	-7.45058000E-09	 5.00000000E-01	 5.50000000E+00
	-7.45058000E-09	 7.50000000E-01	 6.00000000E+00
	-7.45058000E-09	 1.00000000E+00	 5.50000000E+00
	-7.45058000E-09	-1.49012000E-08	 6.00000000E+00
	 2.50000000E-01	-1.49012000E-08	 6.00000000E+00
	-7.45058000E-09	-1.49012000E-08	 5.50000000E+00
	-7.45058000E-09	 2.50000000E-01	 6.00000000E+00
	 1.00000000E+00	 5.00000000E-01	 7.00000000E+00
[...]
POINT_DATA 522
FIELD U 1
	U 3 522 double
		 0.00000000E+00	 0.00000000E+00	 0.00000000E+00
		 0.00000000E+00	 0.00000000E+00	 0.00000000E+00
		 8.07509000E-06	-3.54246000E-03	 5.71616000E-07
		 6.54529000E-04	-3.67168000E-03	 2.36411000E-03
		 0.00000000E+00	 0.00000000E+00	 0.00000000E+00
		 0.00000000E+00	 0.00000000E+00	 0.00000000E+00
		 7.64201000E-06	-2.73512000E-03	 9.31751000E-06
		 9.59196000E-04	-2.88314000E-03	 2.40111000E-03
		 0.00000000E+00	 0.00000000E+00	 0.00000000E+00
		-1.74714000E-06	-1.05728000E-03	 5.30499000E-06
		 3.33164000E-04	-3.55176000E-03	 1.06519000E-03
		 8.75888000E-05	-1.24084000E-03	 1.21723000E-03
		 0.00000000E+00	 0.00000000E+00	 0.00000000E+00
		 0.00000000E+00	 0.00000000E+00	 0.00000000E+00
		 8.11501000E-06	-3.18931000E-03	 4.73078000E-06
		 8.08259000E-04	-3.33101000E-03	 2.46989000E-03
		 0.00000000E+00	 0.00000000E+00	 0.00000000E+00
		-1.05613000E-06	-7.49800000E-04	 8.88026000E-06
		 4.82766000E-04	-2.75322000E-03	 1.17388000E-03
		 4.64743000E-04	-9.56172000E-04	 1.18935000E-03
		 0.00000000E+00	 0.00000000E+00	 0.00000000E+00
		-6.43795000E-04	-3.66415000E-03	-2.36537000E-03
		 0.00000000E+00	 0.00000000E+00	 0.00000000E+00
		-9.48778000E-04	-2.86778000E-03	-2.38593000E-03
		 0.00000000E+00	 0.00000000E+00	 0.00000000E+00
		-9.22413000E-05	-1.23365000E-03	-1.20949000E-03
		-3.18503000E-04	-3.55035000E-03	-1.06470000E-03
		 0.00000000E+00	 0.00000000E+00	 0.00000000E+00
		-7.97305000E-04	-3.31839000E-03	-2.46356000E-03
		 0.00000000E+00	 0.00000000E+00	 0.00000000E+00
		-4.69018000E-04	-9.45595000E-04	-1.17304000E-03
		-4.69011000E-04	-2.74610000E-03	-1.15648000E-03
		 0.00000000E+00	 0.00000000E+00	 0.00000000E+00
		 0.00000000E+00	 0.00000000E+00	 0.00000000E+00
		 8.01416000E-06	-1.63131000E-03	 2.16655000E-05
		 1.25642000E-03	-1.77607000E-03	 2.38590000E-03
		 0.00000000E+00	 0.00000000E+00	 0.00000000E+00
		 0.00000000E+00	 0.00000000E+00	 0.00000000E+00
		 7.22069000E-06	-2.23515000E-03	 1.47882000E-05
		 1.10504000E-03	-2.37896000E-03	 2.30787000E-03
		 0.00000000E+00	 0.00000000E+00	 0.00000000E+00
		 7.20215000E-07	-1.23616000E-04	 1.22484000E-05
		 6.34176000E-04	-1.65100000E-03	 1.25910000E-03
		 8.07233000E-04	-3.47135000E-04	 1.22564000E-03
		 0.00000000E+00	 0.00000000E+00	 0.00000000E+00
		-1.24422000E-03	-1.75373000E-03	-2.34610000E-03
		 0.00000000E+00	 0.00000000E+00	 0.00000000E+00
		-1.09498000E-03	-2.36050000E-03	-2.28208000E-03
		 0.00000000E+00	 0.00000000E+00	 0.00000000E+00
		-8.07564000E-04	-3.32953000E-04	-1.20138000E-03
		-6.19495000E-04	-1.63900000E-03	-1.21667000E-03
		 1.46982000E-05	-1.13119000E-02	-2.52363000E-05
		 1.56105000E-03	-1.14537000E-02	 4.13697000E-03
		 1.95065000E-05	-9.66470000E-03	-2.12935000E-06
		 1.77627000E-03	-9.79974000E-03	 4.16960000E-03
		 9.64704000E-06	-7.00445000E-03	-1.22408000E-05
		 7.85352000E-04	-1.13599000E-02	 1.98781000E-03
		 1.14563000E-03	-7.16614000E-03	 3.33030000E-03
		 1.63429000E-05	-1.05133000E-02	-1.29012000E-05
		 1.66930000E-03	-1.06486000E-02	 4.20081000E-03
		 1.35182000E-05	-5.74395000E-03	 2.88495000E-06
		 8.99288000E-04	-9.70856000E-03	 2.06223000E-03
		 1.40737000E-03	-5.89851000E-03	 3.35539000E-03
		-1.52649000E-03	-1.13982000E-02	-4.18866000E-03
		-1.73161000E-03	-9.74956000E-03	-4.17446000E-03
		-1.13030000E-03	-7.14073000E-03	-3.35056000E-03
		-7.53857000E-04	-1.13312000E-02	-2.03793000E-03
		-1.63088000E-03	-1.05951000E-02	-4.22837000E-03
		-1.38164000E-03	-5.86805000E-03	-3.34939000E-03
		-8.57747000E-04	-9.68323000E-03	-2.06647000E-03
		 2.81590000E-05	-7.80642000E-03	 2.02003000E-05
		 2.01214000E-03	-7.92876000E-03	 4.18116000E-03
		 2.38195000E-05	-8.75889000E-03	 8.24570000E-06
		 1.89408000E-03	-8.89032000E-03	 4.13923000E-03
		 1.90322000E-05	-4.21858000E-03	 2.32522000E-05
		 1.01859000E-03	-7.84253000E-03	 2.11501000E-03
		 1.68837000E-03	-4.36434000E-03	 3.36115000E-03
		-1.94973000E-03	-7.88464000E-03	-4.14030000E-03
		-1.84061000E-03	-8.84368000E-03	-4.12122000E-03
		-1.64921000E-03	-4.33347000E-03	-3.31809000E-03
		-9.59528000E-04	-7.82098000E-03	-2.07550000E-03
		 3.68514000E-05	-2.17108000E-02	-7.44942000E-05
		 2.07379000E-03	-2.17941000E-02	 5.23213000E-03
		 4.21599000E-05	-1.96114000E-02	-3.85899000E-05
		 2.19567000E-03	-1.97014000E-02	 5.28479000E-03
		 2.86526000E-05	-1.62649000E-02	-4.17800000E-05
		 1.05677000E-03	-2.17338000E-02	 2.52581000E-03
		 1.87200000E-03	-1.63815000E-02	 4.76958000E-03
		 3.98625000E-05	-2.06781000E-02	-5.84564000E-05
		 2.13464000E-03	-2.07649000E-02	 5.27832000E-03
		 3.24642000E-05	-1.43361000E-02	-1.41515000E-05
		 1.11982000E-03	-1.96388000E-02	 2.59190000E-03
		 2.03997000E-03	-1.44513000E-02	 4.81259000E-03
		-2.01397000E-03	-2.17474000E-02	-5.38291000E-03
		-2.12545000E-03	-1.96343000E-02	-5.36576000E-03
		-1.81876000E-03	-1.63280000E-02	-4.86492000E-03
		-9.87989000E-04	-2.17145000E-02	-2.67582000E-03
		-2.06927000E-03	-2.07075000E-02	-5.39680000E-03
		-1.98132000E-03	-1.43907000E-02	-4.84574000E-03
		-1.04056000E-03	-1.96064000E-02	-2.67002000E-03
		 4.74417000E-05	-1.73931000E-02	 1.82311000E-06
		 2.32762000E-03	-1.74829000E-02	 5.31019000E-03
		 4.45211000E-05	-1.85176000E-02	-1.74762000E-05
		 2.26184000E-03	-1.86097000E-02	 5.29021000E-03
		 3.86257000E-05	-1.22381000E-02	 1.26638000E-05
		 1.18610000E-03	-1.74220000E-02	 2.63574000E-03
		 2.22407000E-03	-1.23530000E-02	 4.83511000E-03
		-2.24599000E-03	-1.73963000E-02	-5.31253000E-03
		-2.18694000E-03	-1.85333000E-02	-5.33200000E-03
		-2.15531000E-03	-1.22800000E-02	-4.80782000E-03
		-1.09566000E-03	-1.73770000E-02	-2.63239000E-03
		 5.55652000E-05	-3.34388000E-02	-1.32680000E-04
		 2.32656000E-03	-3.34471000E-02	 5.34859000E-03
		 6.40036000E-05	-3.12216000E-02	-9.39114000E-05
		 2.24338000E-03	-3.12145000E-02	 5.41154000E-03
		 4.31089000E-05	-2.75413000E-02	-1.09930000E-04
		 1.18908000E-03	-3.34546000E-02	 2.55278000E-03
		 2.23263000E-03	-2.75924000E-02	 5.44805000E-03
		 5.94075000E-05	-3.23210000E-02	-1.12223000E-04
		 2.28378000E-03	-3.23202000E-02	 5.38459000E-03
		 5.11856000E-05	-2.53422000E-02	-6.67907000E-05
		 1.15287000E-03	-3.12287000E-02	 2.60255000E-03
		 2.26807000E-03	-2.53867000E-02	 5.50858000E-03
		-2.20524000E-03	-3.33601000E-02	-5.61206000E-03
		-2.10547000E-03	-3.11427000E-02	-5.59524000E-03
		-2.14427000E-03	-2.75157000E-02	-5.65829000E-03
		-1.07378000E-03	-3.34105000E-02	-2.81711000E-03
		-2.15528000E-03	-3.22399000E-02	-5.60727000E-03
		-2.16180000E-03	-2.53125000E-02	-5.64129000E-03
		-1.02162000E-03	-3.11938000E-02	-2.78932000E-03
		 7.12385000E-05	-2.90861000E-02	-5.92766000E-05
		 2.17108000E-03	-2.90660000E-02	 5.41993000E-03
		 6.76084000E-05	-3.01422000E-02	-7.62465000E-05
		 2.20918000E-03	-3.01314000E-02	 5.44520000E-03
		 5.92283000E-05	-2.31128000E-02	-2.09817000E-05
		 1.11819000E-03	-2.90842000E-02	 2.59667000E-03
		 2.31410000E-03	-2.31433000E-02	 5.52631000E-03
		-2.01941000E-03	-2.90074000E-02	-5.53248000E-03
		-2.06321000E-03	-3.00647000E-02	-5.59165000E-03
		-2.18764000E-03	-2.30790000E-02	-5.57597000E-03
		-9.73720000E-04	-2.90600000E-02	-2.71398000E-03
		 1.03187000E-04	-4.34203000E-02	-1.70985000E-04
		 2.14061000E-03	-4.33243000E-02	 3.96050000E-03
		 1.05817000E-04	-4.15406000E-02	-1.41726000E-04
		 1.84768000E-03	-4.14265000E-02	 3.99035000E-03
		 7.81224000E-05	-3.89094000E-02	-1.54848000E-04
		 1.11400000E-03	-4.34145000E-02	 1.93755000E-03
		 2.31030000E-03	-3.88624000E-02	 4.79654000E-03
		 1.05424000E-04	-4.24438000E-02	-1.54841000E-04
		 1.99757000E-03	-4.23305000E-02	 3.93143000E-03
		 8.10681000E-05	-3.67910000E-02	-1.21103000E-04
		 9.76967000E-04	-4.15254000E-02	 1.92058000E-03
		 2.10068000E-03	-3.67310000E-02	 4.85707000E-03
		-1.93755000E-03	-4.32762000E-02	-4.29699000E-03
		-1.63871000E-03	-4.13793000E-02	-4.27132000E-03
		-2.15808000E-03	-3.88005000E-02	-5.10733000E-03
		-9.11334000E-04	-4.33878000E-02	-2.27915000E-03
		-1.78759000E-03	-4.22850000E-02	-4.23458000E-03
		-1.93804000E-03	-3.66667000E-02	-5.09398000E-03
		-7.67105000E-04	-4.15014000E-02	-2.20278000E-03
		 1.05717000E-04	-3.99327000E-02	-1.11442000E-04
		 1.56128000E-03	-3.98253000E-02	 4.01565000E-03
		 1.06291000E-04	-4.06974000E-02	-1.28829000E-04
		 1.70277000E-03	-4.05843000E-02	 4.05174000E-03
		 8.25163000E-05	-3.48687000E-02	-9.21986000E-05
		 8.37863000E-04	-3.99202000E-02	 1.89693000E-03
		 1.90273000E-03	-3.48060000E-02	 4.86202000E-03
		-1.35572000E-03	-3.97754000E-02	-4.23936000E-03
		-1.49700000E-03	-4.05372000E-02	-4.30840000E-03
		-1.73870000E-03	-3.47424000E-02	-5.03531000E-03
		-6.27291000E-04	-3.98923000E-02	-2.12063000E-03
		 9.31584000E-05	-4.85762000E-02	-1.46174000E-04
		 1.11303000E-03	-4.85414000E-02	 2.56278000E-03
		 1.01058000E-04	-4.75977000E-02	-1.47155000E-04
		 1.05250000E-03	-4.75677000E-02	 2.52561000E-03
		 1.09013000E-04	-4.65347000E-02	-1.59825000E-04
		 6.09038000E-04	-4.85626000E-02	 1.36320000E-03
		 1.72003000E-03	-4.64754000E-02	 3.10011000E-03
		 9.71839000E-05	-4.80758000E-02	-1.49629000E-04
		 1.07910000E-03	-4.80492000E-02	 2.45307000E-03
		 1.15286000E-04	-4.50569000E-02	-1.48403000E-04
		 5.77900000E-04	-4.75907000E-02	 1.25760000E-03
		 1.49396000E-03	-4.49753000E-02	 3.08327000E-03
		-9.15439000E-04	-4.85216000E-02	-2.85092000E-03
		-8.44338000E-04	-4.75529000E-02	-2.81943000E-03
		-1.48441000E-03	-4.64277000E-02	-3.41761000E-03
		-4.13179000E-04	-4.85596000E-02	-1.65021000E-03
		-8.80455000E-04	-4.80302000E-02	-2.75196000E-03
		-1.25311000E-03	-4.49479000E-02	-3.38211000E-03
		-3.72883000E-04	-4.75841000E-02	-1.55281000E-03
		 1.07299000E-04	-4.66887000E-02	-1.50166000E-04
		 9.84399000E-04	-4.66597000E-02	 2.55300000E-03
		 1.03716000E-04	-4.71382000E-02	-1.43836000E-04
		 1.02245000E-03	-4.71101000E-02	 2.58533000E-03
		 1.19781000E-04	-4.37897000E-02	-1.33631000E-04
		 5.43228000E-04	-4.66806000E-02	 1.22301000E-03
		 1.27805000E-03	-4.37084000E-02	 3.12411000E-03
		-7.61439000E-04	-4.66533000E-02	-2.85615000E-03
		-8.02091000E-04	-4.70923000E-02	-2.87983000E-03
		-1.02976000E-03	-4.36929000E-02	-3.39699000E-03
		-3.31667000E-04	-4.66831000E-02	-1.52137000E-03
		 1.04348000E-04	-5.31615000E-02	-1.33167000E-04
		 6.19035000E-04	-5.32268000E-02	 2.71852000E-03
		 1.01817000E-04	-5.26572000E-02	-1.56333000E-04
		 6.39704000E-04	-5.26866000E-02	 2.69696000E-03
		 9.64230000E-05	-5.05385000E-02	-1.58917000E-04
		 3.54886000E-04	-5.32050000E-02	 1.27477000E-03
		 6.44324000E-04	-5.05226000E-02	 2.56091000E-03
		 1.01376000E-04	-5.29150000E-02	-1.40054000E-04
		 6.35770000E-04	-5.29596000E-02	 2.73686000E-03
		 9.16452000E-05	-4.99491000E-02	-1.52577000E-04
		 3.68797000E-04	-5.26655000E-02	 1.26959000E-03
		 7.13411000E-04	-4.99595000E-02	 2.53847000E-03
		-3.46143000E-04	-5.31217000E-02	-3.04510000E-03
		-4.16451000E-04	-5.26611000E-02	-3.05142000E-03
		-4.63915000E-04	-5.05058000E-02	-2.85340000E-03
		-1.33179000E-04	-5.31158000E-02	-1.58172000E-03
		-3.73871000E-04	-5.29029000E-02	-3.06035000E-03
		-5.22217000E-04	-4.99382000E-02	-2.83225000E-03
		-1.61599000E-04	-5.26474000E-02	-1.59943000E-03
		 9.97876000E-05	-5.21153000E-02	-1.60621000E-04
		 6.36703000E-04	-5.21669000E-02	 2.69192000E-03
		 1.01919000E-04	-5.23957000E-02	-1.66185000E-04
		 6.31157000E-04	-5.24211000E-02	 2.69247000E-03
		 8.80416000E-05	-4.93245000E-02	-1.51590000E-04
		 3.82922000E-04	-5.21388000E-02	 1.25263000E-03
		 7.36023000E-04	-4.93348000E-02	 2.53603000E-03
		-4.77569000E-04	-5.21226000E-02	-3.01626000E-03
		-4.53794000E-04	-5.24078000E-02	-3.02824000E-03
		-5.50002000E-04	-4.93304000E-02	-2.84260000E-03
		-1.88000000E-04	-5.21055000E-02	-1.58808000E-03
		-1.07299000E-04	-5.89672000E-02	-7.23612000E-05
		 5.14127000E-04	-5.86313000E-02	 2.55843000E-03
		 1.24610000E-04	-5.84375000E-02	-1.93201000E-04
		 5.96383000E-04	-5.82822000E-02	 2.58927000E-03
		 3.97072000E-05	-5.61364000E-02	-4.74554000E-05
		 2.01982000E-04	-5.87420000E-02	 1.34538000E-03
		 7.11335000E-04	-5.61379000E-02	 2.68610000E-03
		 8.44776000E-06	-5.86804000E-02	-1.51064000E-04
		 5.41249000E-04	-5.84060000E-02	 2.51962000E-03
		 1.17156000E-04	-5.55636000E-02	-1.63137000E-04
		 3.89288000E-04	-5.83387000E-02	 1.22993000E-03
		 6.29723000E-04	-5.55274000E-02	 2.65152000E-03
		-6.53441000E-04	-5.92376000E-02	-3.14686000E-03
		-5.54923000E-04	-5.86196000E-02	-3.19390000E-03
		-4.83101000E-04	-5.61461000E-02	-3.12285000E-03
		-3.94080000E-04	-5.91588000E-02	-1.59288000E-03
		-6.21647000E-04	-5.89560000E-02	-3.20736000E-03
		-5.07906000E-04	-5.56185000E-02	-3.17021000E-03
		-2.01704000E-04	-5.85604000E-02	-1.68137000E-03
		 2.56273000E-04	-5.78421000E-02	-1.01264000E-04
		 7.35432000E-04	-5.77768000E-02	 2.63472000E-03
		 2.11007000E-04	-5.81433000E-02	-1.72446000E-04
		 6.76277000E-04	-5.80442000E-02	 2.60516000E-03
		 1.49114000E-04	-5.50122000E-02	-1.30119000E-04
		 4.85732000E-04	-5.78196000E-02	 1.31034000E-03
		 6.23327000E-04	-5.50728000E-02	 2.69708000E-03
		-5.01518000E-04	-5.78416000E-02	-3.07053000E-03
		-5.12041000E-04	-5.82564000E-02	-3.13457000E-03
		-5.35695000E-04	-5.49468000E-02	-3.07978000E-03
		-7.56528000E-05	-5.78473000E-02	-1.58949000E-03
		 0.00000000E+00	 0.00000000E+00	 0.00000000E+00
		 0.00000000E+00	 0.00000000E+00	 0.00000000E+00
		 6.17675000E-05	-1.51624000E-02	-4.06823000E-04
		-3.62935000E-03	-1.63390000E-02	 1.54105000E-02
		 0.00000000E+00	 0.00000000E+00	 0.00000000E+00
		 0.00000000E+00	 0.00000000E+00	 0.00000000E+00
		 1.88431000E-05	-1.77789000E-02	-5.00499000E-04
		-1.57937000E-03	-1.90259000E-02	 1.54920000E-02
		 0.00000000E+00	 0.00000000E+00	 0.00000000E+00
		 6.92746000E-05	-2.89407000E-03	-1.44407000E-04
		-1.78663000E-03	-1.53877000E-02	 7.47077000E-03
		-3.09452000E-03	-4.32676000E-03	 7.86455000E-03
		 0.00000000E+00	 0.00000000E+00	 0.00000000E+00
		 0.00000000E+00	 0.00000000E+00	 0.00000000E+00
		 4.38881000E-05	-1.68209000E-02	-4.62197000E-04
		-2.58385000E-03	-1.80302000E-02	 1.53039000E-02
		 0.00000000E+00	 0.00000000E+00	 0.00000000E+00
		 8.39470000E-06	-4.74356000E-03	-1.75895000E-04
		-7.80856000E-04	-1.80232000E-02	 7.31370000E-03
		-7.75219000E-04	-6.15468000E-03	 7.61694000E-03
		 0.00000000E+00	 0.00000000E+00	 0.00000000E+00
		 3.71239000E-03	-1.58159000E-02	-1.63086000E-02
		 0.00000000E+00	 0.00000000E+00	 0.00000000E+00
		 1.62356000E-03	-1.85009000E-02	-1.65850000E-02
		 0.00000000E+00	 0.00000000E+00	 0.00000000E+00
		 3.21068000E-03	-4.18737000E-03	-8.19676000E-03
		 1.89522000E-03	-1.51213000E-02	-8.31177000E-03
		 0.00000000E+00	 0.00000000E+00	 0.00000000E+00
		 2.66038000E-03	-1.75018000E-02	-1.63126000E-02
		 0.00000000E+00	 0.00000000E+00	 0.00000000E+00
		 7.98462000E-04	-6.03443000E-03	-7.99686000E-03
		 8.18639000E-04	-1.77591000E-02	-8.34380000E-03
		 0.00000000E+00	 0.00000000E+00	 0.00000000E+00
		 0.00000000E+00	 0.00000000E+00	 0.00000000E+00
		-3.60144000E-05	-1.83666000E-02	-5.11933000E-04
		 4.69333000E-04	-1.95198000E-02	 1.53098000E-02
		 0.00000000E+00	 0.00000000E+00	 0.00000000E+00
		 0.00000000E+00	 0.00000000E+00	 0.00000000E+00
		-8.17843000E-06	-1.84209000E-02	-5.18937000E-04
		-5.70693000E-04	-1.96258000E-02	 1.55328000E-02
		 0.00000000E+00	 0.00000000E+00	 0.00000000E+00
		-6.19749000E-05	-4.46604000E-03	-1.79708000E-04
		 2.15002000E-04	-1.85725000E-02	 7.08161000E-03
		 1.59280000E-03	-5.82728000E-03	 7.83477000E-03
		 0.00000000E+00	 0.00000000E+00	 0.00000000E+00
		-4.92576000E-04	-1.90219000E-02	-1.64089000E-02
		 0.00000000E+00	 0.00000000E+00	 0.00000000E+00
		 5.74904000E-04	-1.91029000E-02	-1.66604000E-02
		 0.00000000E+00	 0.00000000E+00	 0.00000000E+00
		-1.68457000E-03	-5.71232000E-03	-8.22723000E-03
		-2.68823000E-04	-1.83327000E-02	-8.12284000E-03
		 6.28263000E-05	-6.08582000E-02	-1.67144000E-03
		-4.44502000E-03	-6.23885000E-02	 2.64746000E-02
		 4.46784000E-05	-6.45914000E-02	-1.86152000E-03
		-2.93825000E-03	-6.61245000E-02	 2.63561000E-02
		 6.38413000E-05	-3.48022000E-02	-9.00014000E-04
		-2.19043000E-03	-6.14559000E-02	 1.23082000E-02
		-4.15195000E-03	-3.62538000E-02	 2.16327000E-02
		 5.46120000E-05	-6.28909000E-02	-1.77925000E-03
		-3.69280000E-03	-6.44239000E-02	 2.63705000E-02
		 2.67656000E-05	-3.80706000E-02	-1.04464000E-03
		-1.44519000E-03	-6.51910000E-02	 1.21192000E-02
		-2.31982000E-03	-3.95286000E-02	 2.15649000E-02
		 4.57777000E-03	-6.07507000E-02	-2.99169000E-02
		 3.04449000E-03	-6.45216000E-02	-3.01801000E-02
		 4.24921000E-03	-3.52245000E-02	-2.35385000E-02
		 2.31558000E-03	-6.06443000E-02	-1.56733000E-02
		 3.81745000E-03	-6.28112000E-02	-3.00264000E-02
		 2.38348000E-03	-3.85039000E-02	-2.37661000E-02
		 1.54445000E-03	-6.44033000E-02	-1.58624000E-02
		 1.24772000E-05	-6.68312000E-02	-1.96080000E-03
		-1.44084000E-03	-6.83202000E-02	 2.61906000E-02
		 2.98223000E-05	-6.58763000E-02	-1.92217000E-03
		-2.18570000E-03	-6.74255000E-02	 2.63818000E-02
		-2.24542000E-05	-3.94994000E-02	-1.09336000E-03
		-7.22555000E-04	-6.73954000E-02	 1.18718000E-02
		-5.17942000E-04	-4.09441000E-02	 2.14375000E-02
		 1.52709000E-03	-6.67800000E-02	-3.02112000E-02
		 2.28433000E-03	-6.58096000E-02	-3.03272000E-02
		 5.32862000E-04	-3.99709000E-02	-2.37373000E-02
		 7.67373000E-04	-6.66553000E-02	-1.58130000E-02
		 1.64905000E-04	-1.27081000E-01	-4.05809000E-03
		-4.59664000E-03	-1.28731000E-01	 3.18228000E-02
		 1.58966000E-04	-1.31374000E-01	-4.27487000E-03
		-3.74133000E-03	-1.33147000E-01	 3.16626000E-02
		 1.05465000E-04	-9.19979000E-02	-2.72353000E-03
		-2.21152000E-03	-1.27788000E-01	 1.37811000E-02
		-4.57888000E-03	-9.36361000E-02	 2.97981000E-02
		 1.64082000E-04	-1.29338000E-01	-4.17436000E-03
		-4.17002000E-03	-1.31061000E-01	 3.17114000E-02
		 8.88650000E-05	-9.60831000E-02	-2.94459000E-03
		-1.81445000E-03	-1.32146000E-01	 1.35565000E-02
		-3.41332000E-03	-9.77321000E-02	 2.96604000E-02
		 4.87107000E-03	-1.26221000E-01	-3.99915000E-02
		 4.04600000E-03	-1.30517000E-01	-4.03021000E-02
		 4.77879000E-03	-9.15126000E-02	-3.53490000E-02
		 2.52221000E-03	-1.26554000E-01	-2.19046000E-02
		 4.45740000E-03	-1.28471000E-01	-4.01417000E-02
		 3.59623000E-03	-9.55962000E-02	-3.56429000E-02
		 2.10467000E-03	-1.30853000E-01	-2.21441000E-02
		 1.42139000E-04	-1.34845000E-01	-4.42582000E-03
		-3.00225000E-03	-1.36748000E-01	 3.14385000E-02
		 1.51310000E-04	-1.33231000E-01	-4.35820000E-03
		-3.37582000E-03	-1.34943000E-01	 3.16419000E-02
		 7.15377000E-05	-9.90006000E-02	-3.08563000E-03
		-1.39564000E-03	-1.35683000E-01	 1.32728000E-02
		-2.30087000E-03	-1.00678000E-01	 2.94447000E-02
		 3.23704000E-03	-1.34023000E-01	-4.04107000E-02
		 3.64265000E-03	-1.32363000E-01	-4.04545000E-02
		 2.41488000E-03	-9.85302000E-02	-3.57021000E-02
		 1.67796000E-03	-1.34354000E-01	-2.21848000E-02
		 4.71179000E-04	-2.04274000E-01	-7.25964000E-03
		-4.24863000E-03	-2.05912000E-01	 3.23322000E-02
		 4.61605000E-04	-2.08876000E-01	-7.40868000E-03
		-4.02087000E-03	-2.10972000E-01	 3.22142000E-02
		 2.50162000E-04	-1.64814000E-01	-5.59379000E-03
		-1.88928000E-03	-2.05049000E-01	 1.24880000E-02
		-4.50846000E-03	-1.66572000E-01	 3.24989000E-02
		 4.66717000E-04	-2.06579000E-01	-7.33405000E-03
		-4.12577000E-03	-2.08394000E-01	 3.22877000E-02
		 2.40099000E-04	-1.69331000E-01	-5.82299000E-03
		-1.65693000E-03	-2.09868000E-01	 1.23618000E-02
		-4.01842000E-03	-1.71045000E-01	 3.24011000E-02
		 5.02902000E-03	-2.02897000E-01	-4.68793000E-02
		 4.65478000E-03	-2.07350000E-01	-4.70466000E-02
		 4.97915000E-03	-1.63663000E-01	-4.37220000E-02
		 2.75010000E-03	-2.03556000E-01	-2.70093000E-02
		 4.84348000E-03	-2.05155000E-01	-4.69837000E-02
		 4.43079000E-03	-1.68139000E-01	-4.39873000E-02
		 2.54538000E-03	-2.08056000E-01	-2.71875000E-02
		 3.15191000E-04	-2.13146000E-01	-7.53946000E-03
		-3.67139000E-03	-2.15611000E-01	 3.20718000E-02
		 3.89753000E-04	-2.11015000E-01	-7.48005000E-03
		-3.84576000E-03	-2.13814000E-01	 3.21422000E-02
		 2.04836000E-04	-1.73299000E-01	-6.03542000E-03
		-1.79174000E-03	-2.14304000E-01	 1.22178000E-02
		-3.36508000E-03	-1.74905000E-01	 3.22016000E-02
		 4.31046000E-03	-2.11482000E-01	-4.71504000E-02