<?xml version="1.0"?>
<VTKFile type="UnstructuredGrid" version="0.1" byte_order="LittleEndian">
	<UnstructuredGrid>
		<Piece NumberOfPoints="522" NumberOfCells="64">
			<Points>
				<DataArray type="Float64" NumberOfComponents="3" format="ascii">
					 1.00000000E+00	 1.00000000E+00	-5.96046000E-08
					 1.00000000E+00	 5.00000000E-01	-5.96046000E-08
					 1.00000000E+00	 5.00000000E-01	 1.00000000E+00
					 1.00000000E+00	 1.00000000E+00	 1.00000000E+00
					 5.00000000E-01	 1.00000000E+00	-5.96046000E-08
					 5.00000000E-01	 5.00000000E-01	-5.96046000E-08
					 5.00000000E-01	 5.00000000E-01	 1.00000000E+00
					 5.00000000E-01	 1.00000000E+00	 1.00000000E+00
					 1.00000000E+00	 7.50000000E-01	-5.96046000E-08
					 1.00000000E+00	 5.00000000E-01	 5.00000000E-01
					 1.00000000E+00	 7.50000000E-01	 1.00000000E+00
					 1.00000000E+00	 1.00000000E+00	 5.00000000E-01
					 7.50000000E-01	 1.00000000E+00	-5.96046000E-08
					 7.50000000E-01	 5.00000000E-01	-5.96046000E-08
					 7.50000000E-01	 5.00000000E-01	 1.00000000E+00
					 7.50000000E-01	 1.00000000E+00	 1.00000000E+00
					 5.00000000E-01	 7.50000000E-01	-5.96046000E-08
					 5.00000000E-01	 5.00000000E-01	 5.00000000E-01
					 5.00000000E-01	 7.50000000E-01	 1.00000000E+00
					 5.00000000E-01	 1.00000000E+00	 5.00000000E-01
					 1.00000000E+00	-1.49012000E-08	-5.96046000E-08
					 1.00000000E+00	-1.49012000E-08	 1.00000000E+00
					 5.00000000E-01	-1.49012000E-08	-5.96046000E-08
					 5.00000000E-01	-1.49012000E-08	 1.00000000E+00
					 1.00000000E+00	 2.50000000E-01	-5.96046000E-08
					 1.00000000E+00	-1.49012000E-08	 5.00000000E-01
					 1.00000000E+00	 2.50000000E-01	 1.00000000E+00
					 7.50000000E-01	-1.49012000E-08	-5.96046000E-08
					 7.50000000E-01	-1.49012000E-08	 1.00000000E+00
					 5.00000000E-01	 2.50000000E-01	-5.96046000E-08
					 5.00000000E-01	-1.49012000E-08	 5.00000000E-01
					 5.00000000E-01	 2.50000000E-01	 1.00000000E+00
					-7.45058000E-09	 1.00000000E+00	-5.96046000E-08
					-7.45058000E-09	 5.00000000E-01	-5.96046000E-08
					-7.45058000E-09	 5.00000000E-01	 1.00000000E+00
					-7.45058000E-09	 1.00000000E+00	 1.00000000E+00
					 2.50000000E-01	 1.00000000E+00	-5.96046000E-08
					 2.50000000E-01	 5.00000000E-01	-5.96046000E-08
					 2.50000000E-01	 5.00000000E-01	 1.00000000E+00
					 2.50000000E-01	 1.00000000E+00	 1.00000000E+00
					-7.45058000E-09	 7.50000000E-01	-5.96046000E-08
					-7.45058000E-09	 5.00000000E-01	 5.00000000E-01
					-7.45058000E-09	 7.50000000E-01	 1.00000000E+00
					-7.45058000E-09	 1.00000000E+00	 5.00000000E-01
					-7.45058000E-09	-1.49012000E-08	-5.96046000E-08
					-7.45058000E-09	-1.49012000E-08	 1.00000000E+00
					 2.50000000E-01	-1.49012000E-08	-5.96046000E-08
					 2.50000000E-01	-1.49012000E-08	 1.00000000E+00
					-7.45058000E-09	 2.50000000E-01	-5.96046000E-08
					-7.45058000E-09	-1.49012000E-08	 5.00000000E-01
					-7.45058000E-09	 2.50000000E-01	 1.00000000E+00
					 1.00000000E+00	 5.00000000E-01	 2.00000000E+00
					 1.00000000E+00	 1.00000000E+00	 2.00000000E+00
					 5.00000000E-01	 5.00000000E-01	 2.00000000E+00
					 5.00000000E-01	 1.00000000E+00	 2.00000000E+00
					 1.00000000E+00	 5.00000000E-01	 1.50000000E+00
					 1.00000000E+00	 7.50000000E-01	 2.00000000E+00
					 1.00000000E+00	 1.00000000E+00	 1.50000000E+00
					 7.50000000E-01	 5.00000000E-01	 2.00000000E+00
					 7.50000000E-01	 1.00000000E+00	 2.00000000E+00
					 5.00000000E-01	 5.00000000E-01	 1.50000000E+00
					 5.00000000E-01	 7.50000000E-01	 2.00000000E+00
					 5.00000000E-01	 1.00000000E+00	 1.50000000E+00
					 1.00000000E+00	-1.49012000E-08	 2.00000000E+00
					 5.00000000E-01	-1.49012000E-08	 2.00000000E+00
					 1.00000000E+00	-1.49012000E-08	 1.50000000E+00
					 1.00000000E+00	 2.50000000E-01	 2.00000000E+00
					 7.50000000E-01	-1.49012000E-08	 2.00000000E+00
					 5.00000000E-01	-1.49012000E-08	 1.50000000E+00
					 5.00000000E-01	 2.50000000E-01	 2.00000000E+00
					-7.45058000E-09	 5.00000000E-01	 2.00000000E+00
					-7.45058000E-09	 1.00000000E+00	 2.00000000E+00
					 2.50000000E-01	 5.00000000E-01	 2.00000000E+00
					 2.50000000E-01	 1.00000000E+00	 2.00000000E+00
					-7.45058000E-09	 5.00000000E-01	 1.50000000E+00
					-7.45058000E-09	 7.50000000E-01	 2.00000000E+00
					-7.45058000E-09	 1.00000000E+00	 1.50000000E+00
					-7.45058000E-09	-1.49012000E-08	 2.00000000E+00
					 2.50000000E-01	-1.49012000E-08	 2.00000000E+00
					-7.45058000E-09	-1.49012000E-08	 1.50000000E+00
					-7.45058000E-09	 2.50000000E-01	 2.00000000E+00
					 1.00000000E+00	 5.00000000E-01	 3.00000000E+00
					 1.00000000E+00	 1.00000000E+00	 3.00000000E+00
					 5.00000000E-01	 5.00000000E-01	 3.00000000E+00
					 5.00000000E-01	 1.00000000E+00	 3.00000000E+00
					 1.00000000E+00	 5.00000000E-01	 2.50000000E+00
					 1.00000000E+00	 7.50000000E-01	 3.00000000E+00
					 1.00000000E+00	 1.00000000E+00	 2.50000000E+00
					 7.50000000E-01	 5.00000000E-01	 3.00000000E+00
					 7.50000000E-01	 1.00000000E+00	 3.00000000E+00
					 5.00000000E-01	 5.00000000E-01	 2.50000000E+00
					 5.00000000E-01	 7.50000000E-01	 3.00000000E+00
					 5.00000000E-01	 1.00000000E+00	 2.50000000E+00
					 1.00000000E+00	-1.49012000E-08	 3.00000000E+00
					 5.00000000E-01	-1.49012000E-08	 3.00000000E+00
					 1.00000000E+00	-1.49012000E-08	 2.50000000E+00
					 1.00000000E+00	 2.50000000E-01	 3.00000000E+00
					 7.50000000E-01	-1.49012000E-08	 3.00000000E+00
					 5.00000000E-01	-1.49012000E-08	 2.50000000E+00
					 5.00000000E-01	 2.50000000E-01	 3.00000000E+00
					-7.45058000E-09	 5.00000000E-01	 3.00000000E+00
					-7.45058000E-09	 1.00000000E+00	 3.00000000E+00
					 2.50000000E-01	 5.00000000E-01	 3.00000000E+00
					 2.50000000E-01	 1.00000000E+00	 3.00000000E+00
					-7.45058000E-09	 5.00000000E-01	 2.50000000E+00
					-7.45058000E-09	 7.50000000E-01	 3.00000000E+00
					-7.45058000E-09	 1.00000000E+00	 2.50000000E+00
					-7.45058000E-09	-1.49012000E-08	 3.00000000E+00
					 2.50000000E-01	-1.49012000E-08	 3.00000000E+00
					-7.45058000E-09	-1.49012000E-08	 2.50000000E+00
					-7.45058000E-09	 2.50000000E-01	 3.00000000E+00
					 1.00000000E+00	 5.00000000E-01	 4.00000000E+00
					 1.00000000E+00	 1.00000000E+00	 4.00000000E+00
					 5.00000000E-01	 5.00000000E-01	 4.00000000E+00
					 5.00000000E-01	 1.00000000E+00	 4.00000000E+00
					 1.00000000E+00	 5.00000000E-01	 3.50000000E+00
					 1.00000000E+00	 7.50000000E-01	 4.00000000E+00
					 1.00000000E+00	 1.00000000E+00	 3.50000000E+00
					 7.50000000E-01	 5.00000000E-01	 4.00000000E+00
					 7.50000000E-01	 1.00000000E+00	 4.00000000E+00
					 5.00000000E-01	 5.00000000E-01	 3.50000000E+00
					 5.00000000E-01	 7.50000000E-01	 4.00000000E+00
					 5.00000000E-01	 1.00000000E+00	 3.50000000E+00
					 1.00000000E+00	-1.49012000E-08	 4.00000000E+00
					 5.00000000E-01	-1.49012000E-08	 4.00000000E+00
					 1.00000000E+00	-1.49012000E-08	 3.50000000E+00
					 1.00000000E+00	 2.50000000E-01	 4.00000000E+00
					 7.50000000E-01	-1.49012000E-08	 4.00000000E+00
					 5.00000000E-01	-1.49012000E-08	 3.50000000E+00
					 5.00000000E-01	 2.50000000E-01	 4.00000000E+00
					-7.45058000E-09	 5.00000000E-01	 4.00000000E+00
					-7.45058000E-09	 1.00000000E+00	 4.00000000E+00
					 2.50000000E-01	 5.00000000E-01	 4.00000000E+00
					 2.50000000E-01	 1.00000000E+00	 4.00000000E+00
					-7.45058000E-09	 5.00000000E-01	 3.50000000E+00
					-7.45058000E-09	 7.50000000E-01	 4.00000000E+00
					-7.45058000E-09	 1.00000000E+00	 3.50000000E+00
					-7.45058000E-09	-1.49012000E-08	 4.00000000E+00
					 2.50000000E-01	-1.49012000E-08	 4.00000000E+00
					-7.45058000E-09	-1.49012000E-08	 3.50000000E+00
					-7.45058000E-09	 2.50000000E-01	 4.00000000E+00
					 1.00000000E+00	 5.00000000E-01	 5.00000000E+00
					 1.00000000E+00	 1.00000000E+00	 5.00000000E+00
					 5.00000000E-01	 5.00000000E-01	 5.00000000E+00
					 5.00000000E-01	 1.00000000E+00	 5.00000000E+00
					 1.00000000E+00	 5.00000000E-01	 4.50000000E+00
					 1.00000000E+00	 7.50000000E-01	 5.00000000E+00
					 1.00000000E+00	 1.00000000E+00	 4.50000000E+00
					 7.50000000E-01	 5.00000000E-01	 5.00000000E+00
					 7.50000000E-01	 1.00000000E+00	 5.00000000E+00
					 5.00000000E-01	 5.00000000E-01	 4.50000000E+00
					 5.00000000E-01	 7.50000000E-01	 5.00000000E+00
					 5.00000000E-01	 1.00000000E+00	 4.50000000E+00
					 1.00000000E+00	-1.49012000E-08	 5.00000000E+00
					 5.00000000E-01	-1.49012000E-08	 5.00000000E+00
					 1.00000000E+00	-1.49012000E-08	 4.50000000E+00
					 1.00000000E+00	 2.50000000E-01	 5.00000000E+00
					 7.50000000E-01	-1.49012000E-08	 5.00000000E+00
					 5.00000000E-01	-1.49012000E-08	 4.50000000E+00
					 5.00000000E-01	 2.50000000E-01	 5.00000000E+00
					-7.45058000E-09	 5.00000000E-01	 5.00000000E+00
					-7.45058000E-09	 1.00000000E+00	 5.00000000E+00
					 2.50000000E-01	 5.00000000E-01	 5.00000000E+00
					 2.50000000E-01	 1.00000000E+00	 5.00000000E+00
					-7.45058000E-09	 5.00000000E-01	 4.50000000E+00
					-7.45058000E-09	 7.50000000E-01	 5.00000000E+00
					-7.45058000E-09	 1.00000000E+00	 4.50000000E+00
					-7.45058000E-09	-1.49012000E-08	 5.00000000E+00
					 2.50000000E-01	-1.49012000E-08	 5.00000000E+00
					-7.45058000E-09	-1.49012000E-08	 4.50000000E+00
					-7.45058000E-09	 2.50000000E-01	 5.00000000E+00
					 1.00000000E+00	 5.00000000E-01	 6.00000000E+00
					 1.00000000E+00	 1.00000000E+00	 6.00000000E+00
					 5.00000000E-01	 5.00000000E-01	 6.00000000E+00
					 5.00000000E-01	 1.00000000E+00	 6.00000000E+00
					 1.00000000E+00	 5.00000000E-01	 5.50000000E+00
					 1.00000000E+00	 7.50000000E-01	 6.00000000E+00
					 1.00000000E+00	 1.00000000E+00	 5.50000000E+00
					 7.50000000E-01	 5.00000000E-01	 6.00000000E+00
					 7.50000000E-01	 1.00000000E+00	 6.00000000E+00
					 5.00000000E-01	 5.00000000E-01	 5.50000000E+00
					 5.00000000E-01	 7.50000000E-01	 6.00000000E+00
					 5.00000000E-01	 1.00000000E+00	 5.50000000E+00
					 1.00000000E+00	-1.49012000E-08	 6.00000000E+00
[...]
			<PointData>
				<DataArray type="Float32" Name="U" NumberOfComponents="3" ComponentName0="D1" ComponentName1="D2" ComponentName2="D3" format="ascii">
					 0.00000000E+00	 0.00000000E+00	 0.00000000E+00
					 0.00000000E+00	 0.00000000E+00	 0.00000000E+00
					-2.54577000E-05	 3.11867000E-04	 8.43704000E-05
					 1.52148000E-03	 4.94875000E-04	-2.28376000E-03
					 0.00000000E+00	 0.00000000E+00	 0.00000000E+00
					 0.00000000E+00	 0.00000000E+00	 0.00000000E+00
					-1.26956000E-05	 1.62946000E-03	 7.00082000E-05
					 1.09899000E-03	 1.82770000E-03	-2.30171000E-03
					 0.00000000E+00	 0.00000000E+00	 0.00000000E+00
					-1.73553000E-05	-6.31328000E-04	 4.08284000E-05
					 7.48692000E-04	 3.35834000E-04	-1.21727000E-03
					 9.37824000E-04	-4.24723000E-04	-9.74297000E-04
					 0.00000000E+00	 0.00000000E+00	 0.00000000E+00
					 0.00000000E+00	 0.00000000E+00	 0.00000000E+00
					-1.86978000E-05	 1.03571000E-03	 7.67940000E-05
					 1.30877000E-03	 1.22565000E-03	-2.19841000E-03
					 0.00000000E+00	 0.00000000E+00	 0.00000000E+00
					-4.82203000E-06	 1.51855000E-04	 3.19954000E-05
					 5.42513000E-04	 1.65908000E-03	-1.14040000E-03
					 6.13393000E-04	 3.42036000E-04	-9.34240000E-04
					 0.00000000E+00	 0.00000000E+00	 0.00000000E+00
					-1.56965000E-03	 5.37801000E-04	 2.44791000E-03
					 0.00000000E+00	 0.00000000E+00	 0.00000000E+00
					-1.12137000E-03	 1.86551000E-03	 2.43752000E-03
					 0.00000000E+00	 0.00000000E+00	 0.00000000E+00
					-9.70368000E-04	-3.91733000E-04	 1.05974000E-03
					-7.99036000E-04	 3.58794000E-04	 1.38351000E-03
					 0.00000000E+00	 0.00000000E+00	 0.00000000E+00
					-1.34294000E-03	 1.26542000E-03	 2.34824000E-03
					 0.00000000E+00	 0.00000000E+00	 0.00000000E+00
					-6.20187000E-04	 3.69693000E-04	 1.00264000E-03
					-5.67268000E-04	 1.67860000E-03	 1.27849000E-03
					 0.00000000E+00	 0.00000000E+00	 0.00000000E+00
					 0.00000000E+00	 0.00000000E+00	 0.00000000E+00
					-2.06245000E-06	 2.53148000E-03	 5.66152000E-05
					 6.73406000E-04	 2.71855000E-03	-2.31028000E-03
					 0.00000000E+00	 0.00000000E+00	 0.00000000E+00
					 0.00000000E+00	 0.00000000E+00	 0.00000000E+00
					-6.94235000E-06	 2.14458000E-03	 6.29640000E-05
					 8.88126000E-04	 2.33774000E-03	-2.37571000E-03
					 0.00000000E+00	 0.00000000E+00	 0.00000000E+00
					 5.19279000E-06	 6.02135000E-04	 2.76545000E-05
					 3.35401000E-04	 2.55782000E-03	-1.08035000E-03
					 2.52764000E-04	 7.79842000E-04	-9.86791000E-04
					 0.00000000E+00	 0.00000000E+00	 0.00000000E+00
					-6.74539000E-04	 2.75107000E-03	 2.42025000E-03
					 0.00000000E+00	 0.00000000E+00	 0.00000000E+00
					-8.99325000E-04	 2.37353000E-03	 2.49744000E-03
					 0.00000000E+00	 0.00000000E+00	 0.00000000E+00
					-2.39106000E-04	 8.02708000E-04	 1.04622000E-03
					-3.38847000E-04	 2.57410000E-03	 1.19231000E-03
					-4.59780000E-05	 7.77213000E-03	 1.30145000E-04
					 1.92312000E-03	 7.91146000E-03	-5.20813000E-03
					-3.22377000E-05	 9.52713000E-03	 1.02881000E-04
					 1.52983000E-03	 9.68135000E-03	-5.24973000E-03
					-3.52330000E-05	 3.12597000E-03	 1.15651000E-04
					 9.33793000E-04	 7.79236000E-03	-2.49838000E-03
					 1.84339000E-03	 3.28561000E-03	-3.77885000E-03
					-3.91375000E-05	 8.69679000E-03	 1.15763000E-04
					 1.72744000E-03	 8.84881000E-03	-5.23658000E-03
					-2.20851000E-05	 4.75750000E-03	 9.35372000E-05
					 7.49670000E-04	 9.55552000E-03	-2.53763000E-03
					 1.39224000E-03	 4.94260000E-03	-3.80791000E-03
					-2.01236000E-03	 7.99939000E-03	 5.46327000E-03
					-1.59138000E-03	 9.76370000E-03	 5.45016000E-03
					-1.91180000E-03	 3.34801000E-03	 4.00544000E-03
					-1.02516000E-03	 7.83576000E-03	 2.75785000E-03
					-1.80245000E-03	 8.93376000E-03	 5.46263000E-03
					-1.43350000E-03	 4.99852000E-03	 3.98982000E-03
					-8.13251000E-04	 9.59584000E-03	 2.74233000E-03
					-2.02558000E-05	 1.08926000E-02	 7.93402000E-05
					 1.14618000E-03	 1.10483000E-02	-5.25897000E-03
					-2.58554000E-05	 1.02590000E-02	 9.08525000E-05
					 1.33866000E-03	 1.04130000E-02	-5.26986000E-03
					-1.11249000E-05	 5.95074000E-03	 7.48650000E-05
					 5.63469000E-04	 1.09225000E-02	-2.54063000E-03
					 9.71521000E-04	 6.14834000E-03	-3.81954000E-03
					-1.18393000E-03	 1.11263000E-02	 5.41234000E-03
					-1.38781000E-03	 1.04937000E-02	 5.44627000E-03
					-9.90298000E-04	 6.19984000E-03	 3.96421000E-03
					-6.03026000E-04	 1.09602000E-02	 2.69815000E-03
					-5.61044000E-05	 2.10567000E-02	 1.03912000E-04
					 1.96118000E-03	 2.11000000E-02	-7.28944000E-03
					-4.45008000E-05	 2.29685000E-02	 7.20973000E-05
					 1.76124000E-03	 2.30096000E-02	-7.34154000E-03
					-5.28575000E-05	 1.39047000E-02	 1.25238000E-04
					 9.54004000E-04	 2.10513000E-02	-3.57161000E-03
					 1.91356000E-03	 1.40059000E-02	-6.38024000E-03
					-5.01257000E-05	 2.20409000E-02	 8.80255000E-05
					 1.86075000E-03	 2.20809000E-02	-7.29849000E-03
					-4.01823000E-05	 1.57189000E-02	 9.58934000E-05
					 8.57398000E-04	 2.29618000E-02	-3.59476000E-03
					 1.62196000E-03	 1.58183000E-02	-6.42995000E-03
					-2.07208000E-03	 2.12366000E-02	 7.49293000E-03
					-1.84835000E-03	 2.31440000E-02	 7.48158000E-03
					-2.01732000E-03	 1.41187000E-02	 6.62554000E-03
					-1.06593000E-03	 2.11192000E-02	 3.77827000E-03
					-1.95933000E-03	 2.22160000E-02	 7.47043000E-03
					-1.69992000E-03	 1.59276000E-02	 6.61681000E-03
					-9.45840000E-04	 2.30280000E-02	 3.73798000E-03
					-3.37671000E-05	 2.46658000E-02	 4.15251000E-05
					 1.55310000E-03	 2.47050000E-02	-7.35150000E-03
					-3.90645000E-05	 2.38440000E-02	 5.63892000E-05
					 1.65711000E-03	 2.38853000E-02	-7.38452000E-03
					-2.88140000E-05	 1.72261000E-02	 6.88384000E-05
					 7.60437000E-04	 2.46585000E-02	-3.57915000E-03
					 1.31976000E-03	 1.73217000E-02	-6.43624000E-03
					-1.61834000E-03	 2.48355000E-02	 7.43060000E-03
					-1.73311000E-03	 2.40190000E-02	 7.49298000E-03
					-1.37493000E-03	 1.74272000E-02	 6.56940000E-03
					-8.27356000E-04	 2.47215000E-02	 3.66155000E-03
					-6.25513000E-05	 3.70455000E-02	 2.87727000E-05
					 2.22131000E-03	 3.69837000E-02	-8.17607000E-03
					-5.17403000E-05	 3.93203000E-02	-1.41489000E-05
					 2.20781000E-03	 3.92549000E-02	-8.23705000E-03
					-5.78644000E-05	 2.88702000E-02	 7.09453000E-05
					 1.08012000E-03	 3.70125000E-02	-4.06222000E-03
					 2.07500000E-03	 2.88579000E-02	-7.87595000E-03
					-5.68894000E-05	 3.81857000E-02	 6.85916000E-06
					 2.21506000E-03	 3.81219000E-02	-8.18112000E-03
					-4.70887000E-05	 3.09445000E-02	 3.40180000E-05
					 1.07799000E-03	 3.92861000E-02	-4.08604000E-03
					 1.96690000E-03	 3.09298000E-02	-7.93361000E-03
					-2.34706000E-03	 3.71422000E-02	 8.23195000E-03
					-2.31072000E-03	 3.94143000E-02	 8.20766000E-03
					-2.18999000E-03	 2.90100000E-02	 8.01443000E-03
					-1.20538000E-03	 3.70914000E-02	 4.11958000E-03
					-2.32911000E-03	 3.82802000E-02	 8.19318000E-03
					-2.05953000E-03	 3.10805000E-02	 7.99841000E-03
					-1.18128000E-03	 3.93647000E-02	 4.05746000E-03
					-4.12660000E-05	 4.15635000E-02	-5.70174000E-05
					 2.19259000E-03	 4.15013000E-02	-8.26088000E-03
					-4.66565000E-05	 4.04450000E-02	-3.51560000E-05
					 2.19986000E-03	 4.03793000E-02	-8.29675000E-03
					-3.69777000E-05	 3.28963000E-02	-2.35004000E-06
					 1.07451000E-03	 4.15317000E-02	-4.07329000E-03
					 1.85306000E-03	 3.28817000E-02	-7.94886000E-03
					-2.27321000E-03	 4.16578000E-02	 8.14613000E-03
					-2.29172000E-03	 4.05392000E-02	 8.22580000E-03
					-1.92455000E-03	 3.30282000E-02	 7.94108000E-03
					-1.15649000E-03	 4.16070000E-02	 3.95887000E-03
					-7.43046000E-05	 5.31329000E-02	-6.80734000E-05
					 2.59879000E-03	 5.30243000E-02	-7.96936000E-03
					-6.28770000E-05	 5.58569000E-02	-1.11005000E-04
					 2.69708000E-03	 5.57389000E-02	-8.01217000E-03
					-7.03314000E-05	 4.52367000E-02	-1.97589000E-05
					 1.26519000E-03	 5.30912000E-02	-4.05700000E-03
					 2.39118000E-03	 4.51479000E-02	-8.15872000E-03
					-6.88043000E-05	 5.44835000E-02	-8.90850000E-05
					 2.64763000E-03	 5.43684000E-02	-7.95336000E-03
					-5.92851000E-05	 4.77275000E-02	-6.45680000E-05
					 1.31742000E-03	 5.58118000E-02	-4.06294000E-03
					 2.45139000E-03	 4.76317000E-02	-8.21575000E-03
					-2.75084000E-03	 5.31721000E-02	 7.83475000E-03
					-2.82448000E-03	 5.58925000E-02	 7.79164000E-03
					-2.53445000E-03	 4.53023000E-02	 8.11914000E-03
					-1.41453000E-03	 5.31664000E-02	 3.92095000E-03
					-2.78799000E-03	 5.45183000E-02	 7.77686000E-03
					-2.57090000E-03	 4.77907000E-02	 8.08729000E-03
					-1.44339000E-03	 5.58890000E-02	 3.84114000E-03
					-4.91360000E-05	 5.86532000E-02	-1.55703000E-04
					 2.79696000E-03	 5.85395000E-02	-8.05608000E-03
					-5.65268000E-05	 5.72433000E-02	-1.33275000E-04
					 2.74656000E-03	 5.71250000E-02	-8.06996000E-03
					-4.70824000E-05	 5.02583000E-02	-1.10262000E-04
					 1.37203000E-03	 5.86100000E-02	-4.07099000E-03
					 2.51319000E-03	 5.01673000E-02	-8.24776000E-03
					-2.89555000E-03	 5.86957000E-02	 7.74577000E-03
					-2.86028000E-03	 5.72814000E-02	 7.80465000E-03
					-2.60693000E-03	 5.03269000E-02	 8.02830000E-03
					-1.47020000E-03	 5.86871000E-02	 3.75978000E-03
					-7.09078000E-05	 6.76899000E-02	-1.37378000E-04
					 3.25060000E-03	 6.76213000E-02	-7.74675000E-03
					-5.48892000E-05	 7.09949000E-02	-1.89692000E-04
					 3.24442000E-03	 7.09311000E-02	-7.78691000E-03
					-7.17345000E-05	 6.05422000E-02	-1.07246000E-04
					 1.58903000E-03	 6.76507000E-02	-4.01677000E-03
					 2.90407000E-03	 6.04549000E-02	-7.78330000E-03
					-6.23746000E-05	 6.93458000E-02	-1.63232000E-04
					 3.24805000E-03	 6.92810000E-02	-7.71760000E-03
					-5.83886000E-05	 6.35447000E-02	-1.51441000E-04
					 1.59514000E-03	 7.09584000E-02	-4.01603000E-03
					 2.96600000E-03	 6.34525000E-02	-7.81484000E-03
					-3.39168000E-03	 6.77735000E-02	 7.47026000E-03
					-3.35250000E-03	 7.10801000E-02	 7.40544000E-03
					-3.04890000E-03	 6.06025000E-02	 7.56961000E-03
					-1.73091000E-03	 6.77294000E-02	 3.74133000E-03
					-3.37178000E-03	 6.94303000E-02	 7.38945000E-03
					-3.08276000E-03	 6.36014000E-02	 7.51204000E-03
					-1.70461000E-03	 7.10342000E-02	 3.63611000E-03
					-4.09775000E-05	 7.42828000E-02	-2.41205000E-04
					 3.23986000E-03	 7.42208000E-02	-7.85048000E-03
					-4.78222000E-05	 7.26414000E-02	-2.15921000E-04
					 3.24235000E-03	 7.25784000E-02	-7.85065000E-03
					-4.48371000E-05	 6.65889000E-02	-1.96684000E-04
					 1.59989000E-03	 7.42482000E-02	-4.04007000E-03
					 3.02683000E-03	 6.64991000E-02	-7.87234000E-03
					-3.31874000E-03	 7.43651000E-02	 7.36570000E-03
					-3.33550000E-03	 7.27262000E-02	 7.41649000E-03
					-3.11511000E-03	 6.66474000E-02	 7.47814000E-03
					-1.68103000E-03	 7.43205000E-02	 3.55714000E-03
					-9.06944000E-05	 8.27108000E-02	-2.13315000E-04
					 3.70156000E-03	 8.26513000E-02	-8.20412000E-03
					-7.26126000E-05	 8.64648000E-02	-2.82779000E-04
					 3.65977000E-03	 8.64127000E-02	-8.28396000E-03
					-7.85862000E-05	 7.49985000E-02	-1.68805000E-04
					 1.80438000E-03	 8.26730000E-02	-4.21384000E-03
					 3.53354000E-03	 7.49340000E-02	-7.94411000E-03
					-8.16577000E-05	 8.45964000E-02	-2.48524000E-04
					 3.68093000E-03	 8.45425000E-02	-8.22531000E-03
					-6.08455000E-05	 7.85670000E-02	-2.31947000E-04
					 1.79529000E-03	 8.64302000E-02	-4.27027000E-03
					 3.48480000E-03	 7.85125000E-02	-8.00457000E-03
					-3.88355000E-03	 8.28118000E-02	 7.77583000E-03
					-3.80408000E-03	 8.65728000E-02	 7.71671000E-03
					-3.68980000E-03	 7.50913000E-02	 7.60312000E-03
					-1.98601000E-03	 8.27526000E-02	 3.78753000E-03
					-3.84449000E-03	 8.47025000E-02	 7.72619000E-03
					-3.60494000E-03	 7.86663000E-02	 7.53740000E-03
					-1.94036000E-03	 8.65096000E-02	 3.70457000E-03
					-5.58578000E-05	 9.01679000E-02	-3.54128000E-04
					 3.62511000E-03	 9.01195000E-02	-8.35535000E-03
					-6.38305000E-05	 8.83231000E-02	-3.17851000E-04
					 3.64377000E-03	 8.82724000E-02	-8.34672000E-03
					-4.50278000E-05	 8.20810000E-02	-2.93870000E-04
					 1.78535000E-03	 9.01359000E-02	-4.31713000E-03
					 3.44223000E-03	 8.20281000E-02	-8.07097000E-03
					-3.73432000E-03	 9.02759000E-02	 7.64557000E-03
					-3.76933000E-03	 8.84319000E-02	 7.70932000E-03
					-3.52983000E-03	 8.21773000E-02	 7.48036000E-03
					-1.89650000E-03	 9.02124000E-02	 3.60878000E-03
					-1.05563000E-04	 9.88859000E-02	-3.37399000E-04
					 3.78167000E-03	 9.87996000E-02	-8.45521000E-03
					-9.68862000E-05	 1.02796000E-01	-4.07654000E-04
					 3.79417000E-03	 1.02714000E-01	-8.55049000E-03
					-1.00207000E-04	 9.07530000E-02	-2.72282000E-04
					 1.83630000E-03	 9.88442000E-02	-4.39135000E-03
					 3.77413000E-03	 9.06781000E-02	-8.36751000E-03
					-1.00402000E-04	 1.00835000E-01	-3.71334000E-04
					 3.78840000E-03	 1.00752000E-01	-8.49898000E-03
					-8.50034000E-05	 9.46157000E-02	-3.42407000E-04
					 1.84461000E-03	 1.02756000E-01	-4.47423000E-03
					 3.76998000E-03	 9.45447000E-02	-8.45877000E-03
					-3.99906000E-03	 9.89669000E-02	 7.78660000E-03
					-3.98712000E-03	 1.02889000E-01	 7.74133000E-03
					-3.97868000E-03	 9.08397000E-02	 7.82648000E-03
					-2.04879000E-03	 9.89283000E-02	 3.71831000E-03
					-3.99286000E-03	 1.00924000E-01	 7.76236000E-03
					-3.93927000E-03	 9.47108000E-02	 7.77722000E-03
					-2.03802000E-03	 1.02845000E-01	 3.66053000E-03
					-8.81176000E-05	 1.06703000E-01	-4.87452000E-04
					 3.81438000E-03	 1.06637000E-01	-8.64559000E-03
					-9.35003000E-05	 1.04753000E-01	-4.46492000E-04
					 3.80390000E-03	 1.04675000E-01	-8.60435000E-03
					-7.03544000E-05	 9.84586000E-02	-4.19956000E-04
					 1.85861000E-03	 1.06672000E-01	-4.55767000E-03
					 3.76799000E-03	 9.83964000E-02	-8.54319000E-03
					-3.98305000E-03	 1.06804000E-01	 7.67626000E-03
					-3.98569000E-03	 1.04848000E-01	 7.71700000E-03
					-3.90342000E-03	 9.85570000E-02	 7.70620000E-03
					-2.03281000E-03	 1.06755000E-01	 3.58446000E-03
					 0.00000000E+00	 0.00000000E+00	 0.00000000E+00
					 0.00000000E+00	 0.00000000E+00	 0.00000000E+00
					 2.06608000E-05	-9.58799000E-04	-1.43546000E-04
					-1.69815000E-03	-1.19015000E-03	 2.86613000E-03
					 0.00000000E+00	 0.00000000E+00	 0.00000000E+00
					 0.00000000E+00	 0.00000000E+00	 0.00000000E+00
					 8.46553000E-07	-2.41153000E-03	-1.59297000E-04
					-1.20651000E-03	-2.65576000E-03	 2.86480000E-03
					 0.00000000E+00	 0.00000000E+00	 0.00000000E+00
					 2.43325000E-05	 5.05177000E-04	-6.90183000E-05
					-8.40422000E-04	-9.94210000E-04	 1.47384000E-03
					-1.07165000E-03	 2.44896000E-04	 1.28126000E-03
					 0.00000000E+00	 0.00000000E+00	 0.00000000E+00
					 0.00000000E+00	 0.00000000E+00	 0.00000000E+00
					 1.14709000E-05	-1.76374000E-03	-1.50816000E-04
					-1.44900000E-03	-2.00041000E-03	 2.76418000E-03
					 0.00000000E+00	 0.00000000E+00	 0.00000000E+00
					 1.39000000E-06	-3.66850000E-04	-6.95715000E-05
					-6.04301000E-04	-2.45034000E-03	 1.36360000E-03
					-6.60227000E-04	-6.05775000E-04	 1.22423000E-03
					 0.00000000E+00	 0.00000000E+00	 0.00000000E+00
					 1.73990000E-03	-1.20164000E-03	-3.15395000E-03
					 0.00000000E+00	 0.00000000E+00	 0.00000000E+00
					 1.21252000E-03	-2.67441000E-03	-3.18427000E-03
					 0.00000000E+00	 0.00000000E+00	 0.00000000E+00
					 1.12163000E-03	 2.10047000E-04	-1.42675000E-03
					 8.81096000E-04	-9.98755000E-04	-1.76081000E-03
					 0.00000000E+00	 0.00000000E+00	 0.00000000E+00
					 1.47433000E-03	-2.01522000E-03	-3.06604000E-03
					 0.00000000E+00	 0.00000000E+00	 0.00000000E+00
					 6.66197000E-04	-6.45211000E-04	-1.37051000E-03
					 6.05722000E-04	-2.45909000E-03	-1.68227000E-03
					 0.00000000E+00	 0.00000000E+00	 0.00000000E+00
					 0.00000000E+00	 0.00000000E+00	 0.00000000E+00
					-2.23183000E-05	-3.37610000E-03	-1.68204000E-04
					-7.18315000E-04	-3.60302000E-03	 2.84184000E-03
					 0.00000000E+00	 0.00000000E+00	 0.00000000E+00
					 0.00000000E+00	 0.00000000E+00	 0.00000000E+00
					-1.02664000E-05	-2.97207000E-03	-1.65088000E-04
					-9.64511000E-04	-3.20197000E-03	 2.93197000E-03
					 0.00000000E+00	 0.00000000E+00	 0.00000000E+00
					-2.37835000E-05	-8.20529000E-04	-7.68169000E-05
					-3.69533000E-04	-3.40869000E-03	 1.26613000E-03
					-2.16344000E-04	-1.04123000E-03	 1.27312000E-03
					 0.00000000E+00	 0.00000000E+00	 0.00000000E+00
					 6.76984000E-04	-3.62326000E-03	-3.17868000E-03
					 0.00000000E+00	 0.00000000E+00	 0.00000000E+00
					 9.46942000E-04	-3.22653000E-03	-3.26300000E-03
					 0.00000000E+00	 0.00000000E+00	 0.00000000E+00
					 1.70276000E-04	-1.08302000E-03	-1.43436000E-03
					 3.26801000E-04	-3.41956000E-03	-1.60215000E-03
					-4.61563000E-06	-1.01381000E-02	-3.02262000E-04
					-2.27097000E-03	-1.03647000E-02	 6.01623000E-03
					-1.51166000E-05	-1.21887000E-02	-3.46390000E-04
					-1.86259000E-03	-1.24134000E-02	 5.99335000E-03
					 1.16755000E-05	-4.55678000E-03	-2.18183000E-04
					-1.13527000E-03	-1.02004000E-02	 2.81870000E-03
					-2.08504000E-03	-4.78753000E-03	 4.53483000E-03
					-1.00090000E-05	-1.12120000E-02	-3.26556000E-04
					-2.06601000E-03	-1.14390000E-02	 5.99555000E-03
					-4.81746000E-06	-6.38840000E-03	-2.47845000E-04
					-9.34402000E-04	-1.22484000E-02	 2.77706000E-03
					-1.58977000E-03	-6.63090000E-03	 4.51816000E-03
					 2.26922000E-03	-1.02986000E-02	-6.62412000E-03
					 1.83339000E-03	-1.23665000E-02	-6.68922000E-03
					 2.11285000E-03	-4.76512000E-03	-4.97472000E-03
					 1.12746000E-03	-1.01671000E-02	-3.42466000E-03
					 2.05286000E-03	-1.13874000E-02	-6.64966000E-03
					 1.58451000E-03	-6.62086000E-03	-5.01795000E-03
					 9.09308000E-04	-1.22258000E-02	-3.46803000E-03
					-3.53338000E-05	-1.38332000E-02	-3.82038000E-04
					-1.44289000E-03	-1.40314000E-02	 5.93426000E-03
					-2.45469000E-05	-1.30572000E-02	-3.64112000E-04
					-1.65172000E-03	-1.33028000E-02	 5.99978000E-03
					-2.57752000E-05	-7.73192000E-03	-2.69127000E-04
					-7.49331000E-04	-1.38778000E-02	 2.69689000E-03
					-1.11917000E-03	-7.97039000E-03	 4.48281000E-03
					 1.40198000E-03	-1.40116000E-02	-6.70262000E-03
					 1.61868000E-03	-1.32411000E-02	-6.73496000E-03
					 1.08073000E-03	-7.97592000E-03	-5.02407000E-03
					 6.87001000E-04	-1.38690000E-02	-3.45787000E-03
					-4.01170000E-05	-2.52804000E-02	-5.01489000E-04
					-2.68581000E-03	-2.53852000E-02	 7.75610000E-03
					-4.27817000E-05	-2.78130000E-02	-5.63269000E-04
					-2.50871000E-03	-2.80155000E-02	 7.72108000E-03
					-2.08066000E-05	-1.72385000E-02	-3.97951000E-04
					-1.36032000E-03	-2.53111000E-02	 3.61356000E-03
					-2.42013000E-03	-1.74347000E-02	 7.09344000E-03
					-3.92795000E-05	-2.65713000E-02	-5.27684000E-04
					-2.59844000E-03	-2.67358000E-02	 7.68675000E-03
					-2.85852000E-05	-1.94914000E-02	-4.53064000E-04
					-1.29968000E-03	-2.78968000E-02	 3.49974000E-03
					-2.13726000E-03	-1.96874000E-02	 7.06968000E-03
					 2.57455000E-03	-2.52973000E-02	-8.74351000E-03
					 2.42744000E-03	-2.78475000E-02	-8.86683000E-03
					 2.37784000E-03	-1.73378000E-02	-7.89044000E-03
					 1.26902000E-03	-2.52700000E-02	-4.60546000E-03
					 2.49951000E-03	-2.65880000E-02	-8.75484000E-03
					 2.08819000E-03	-1.95875000E-02	-7.97839000E-03
					 1.19190000E-03	-2.78161000E-02	-4.64620000E-03
					-5.90129000E-05	-3.02001000E-02	-6.24490000E-04
					-2.42806000E-03	-3.05073000E-02	 7.62986000E-03
					-4.94825000E-05	-2.90394000E-02	-5.98047000E-04
					-2.46955000E-03	-2.91676000E-02	 7.76510000E-03
					-3.61696000E-05	-2.14570000E-02	-5.02484000E-04
					-1.21467000E-03	-3.03403000E-02	 3.32809000E-03
					-1.87418000E-03	-2.16616000E-02	 6.99152000E-03
					 2.27287000E-03	-3.02630000E-02	-8.92518000E-03
					 2.35095000E-03	-2.90708000E-02	-8.98235000E-03
					 1.76877000E-03	-2.15440000E-02	-8.00210000E-03
					 1.09970000E-03	-3.02258000E-02	-4.62092000E-03
					-6.61680000E-05	-4.21907000E-02	-6.96507000E-04
					-3.34787000E-03	-4.20774000E-02	 7.48527000E-03