<?xml version="1.0"?>
<VTKFile type="UnstructuredGrid" version="0.1" byte_order="LittleEndian">
	<UnstructuredGrid>
		<Piece NumberOfPoints="522" NumberOfCells="64">
			<Points>
				<DataArray type="Float64" NumberOfComponents="3" format="ascii">
					 1.00000000E+00	 1.00000000E+00	-5.96046000E-08
					 1.00000000E+00	 5.00000000E-01	-5.96046000E-08
					 1.00000000E+00	 5.00000000E-01	 1.00000000E+00
					 1.00000000E+00	 1.00000000E+00	 1.00000000E+00
					 5.00000000E-01	 1.00000000E+00	-5.96046000E-08
					 5.00000000E-01	 5.00000000E-01	-5.96046000E-08
					 5.00000000E-01	 5.00000000E-01	 1.00000000E+00
					 5.00000000E-01	 1.00000000E+00	 1.00000000E+00
					 1.00000000E+00	 7.50000000E-01	-5.96046000E-08
					 1.00000000E+00	 5.00000000E-01	 5.00000000E-01
					 1.00000000E+00	 7.50000000E-01	 1.00000000E+00
					 1.00000000E+00	 1.00000000E+00	 5.00000000E-01
					 7.50000000E-01	 1.00000000E+00	-5.96046000E-08
					 7.50000000E-01	 5.00000000E-01	-5.96046000E-08
					 7.50000000E-01	 5.00000000E-01	 1.00000000E+00
					 7.50000000E-01	 1.00000000E+00	 1.00000000E+00
					 5.00000000E-01	 7.50000000E-01	-5.96046000E-08
					 5.00000000E-01	 5.00000000E-01	 5.00000000E-01
					 5.00000000E-01	 7.50000000E-01	 1.00000000E+00
					 5.00000000E-01	 1.00000000E+00	 5.00000000E-01
					 1.00000000E+00	-1.49012000E-08	-5.96046000E-08
					 1.00000000E+00	-1.49012000E-08	 1.00000000E+00
					 5.00000000E-01	-1.49012000E-08	-5.96046000E-08
					 5.00000000E-01	-1.49012000E-08	 1.00000000E+00
					 1.00000000E+00	 2.50000000E-01	-5.96046000E-08
					 1.00000000E+00	-1.49012000E-08	 5.00000000E-01
					 1.00000000E+00	 2.50000000E-01	 1.00000000E+00
					 7.50000000E-01	-1.49012000E-08	-5.96046000E-08
					 7.50000000E-01	-1.49012000E-08	 1.00000000E+00
					 5.00000000E-01	 2.50000000E-01	-5.96046000E-08
					 5.00000000E-01	-1.49012000E-08	 5.00000000E-01
					 5.00000000E-01	 2.50000000E-01	 1.00000000E+00
					-7.45058000E-09	 1.00000000E+00	-5.96046000E-08
					-7.45058000E-09	 5.00000000E-01	-5.96046000E-08
					-7.45058000E-09	 5.00000000E-01	 1.00000000E+00
					-7.45058000E-09	 1.00000000E+00	 1.00000000E+00
					 2.50000000E-01	 1.00000000E+00	-5.96046000E-08
					 2.50000000E-01	 5.00000000E-01	-5.96046000E-08
					 2.50000000E-01	 5.00000000E-01	 1.00000000E+00
					 2.50000000E-01	 1.00000000E+00	 1.00000000E+00
					-7.45058000E-09	 7.50000000E-01	-5.96046000E-08
					-7.45058000E-09	 5.00000000E-01	 5.00000000E-01
					-7.45058000E-09	 7.50000000E-01	 1.00000000E+00
					-7.45058000E-09	 1.00000000E+00	 5.00000000E-01
					-7.45058000E-09	-1.49012000E-08	-5.96046000E-08
					-7.45058000E-09	-1.49012000E-08	 1.00000000E+00
					 2.50000000E-01	-1.49012000E-08	-5.96046000E-08
					 2.50000000E-01	-1.49012000E-08	 1.00000000E+00
					-7.45058000E-09	 2.50000000E-01	-5.96046000E-08
					-7.45058000E-09	-1.49012000E-08	 5.00000000E-01
					-7.45058000E-09	 2.50000000E-01	 1.00000000E+00
					 1.00000000E+00	 5.00000000E-01	 2.00000000E+00
					 1.00000000E+00	 1.00000000E+00	 2.00000000E+00
					 5.00000000E-01	 5.00000000E-01	 2.00000000E+00
					 5.00000000E-01	 1.00000000E+00	 2.00000000E+00
					 1.00000000E+00	 5.00000000E-01	 1.50000000E+00
					 1.00000000E+00	 7.50000000E-01	 2.00000000E+00
					 1.00000000E+00	 1.00000000E+00	 1.50000000E+00
					 7.50000000E-01	 5.00000000E-01	 2.00000000E+00
					 7.50000000E-01	 1.00000000E+00	 2.00000000E+00
					 5.00000000E-01	 5.00000000E-01	 1.50000000E+00
					 5.00000000E-01	 7.50000000E-01	 2.00000000E+00
					 5.00000000E-01	 1.00000000E+00	 1.50000000E+00
					 1.00000000E+00	-1.49012000E-08	 2.00000000E+00
					 5.00000000E-01	-1.49012000E-08	 2.00000000E+00
					 1.00000000E+00	-1.49012000E-08	 1.50000000E+00
					 1.00000000E+00	 2.50000000E-01	 2.00000000E+00
					 7.50000000E-01	-1.49012000E-08	 2.00000000E+00
					 5.00000000E-01	-1.49012000E-08	 1.50000000E+00
					 5.00000000E-01	 2.50000000E-01	 2.00000000E+00
					-7.45058000E-09	 5.00000000E-01	 2.00000000E+00
					-7.45058000E-09	 1.00000000E+00	 2.00000000E+00
					 2.50000000E-01	 5.00000000E-01	 2.00000000E+00
					 2.50000000E-01	 1.00000000E+00	 2.00000000E+00
					-7.45058000E-09	 5.00000000E-01	 1.50000000E+00
					-7.45058000E-09	 7.50000000E-01	 2.00000000E+00
					-7.45058000E-09	 1.00000000E+00	 1.50000000E+00
					-7.45058000E-09	-1.49012000E-08	 2.00000000E+00
					 2.50000000E-01	-1.49012000E-08	 2.00000000E+00
					-7.45058000E-09	-1.49012000E-08	 1.50000000E+00
					-7.45058000E-09	 2.50000000E-01	 2.00000000E+00
					 1.00000000E+00	 5.00000000E-01	 3.00000000E+00
					 1.00000000E+00	 1.00000000E+00	 3.00000000E+00
					 5.00000000E-01	 5.00000000E-01	 3.00000000E+00
					 5.00000000E-01	 1.00000000E+00	 3.00000000E+00
					 1.00000000E+00	 5.00000000E-01	 2.50000000E+00
					 1.00000000E+00	 7.50000000E-01	 3.00000000E+00
					 1.00000000E+00	 1.00000000E+00	 2.50000000E+00
					 7.50000000E-01	 5.00000000E-01	 3.00000000E+00
					 7.50000000E-01	 1.00000000E+00	 3.00000000E+00
					 5.00000000E-01	 5.00000000E-01	 2.50000000E+00
					 5.00000000E-01	 7.50000000E-01	 3.00000000E+00
					 5.00000000E-01	 1.00000000E+00	 2.50000000E+00
					 1.00000000E+00	-1.49012000E-08	 3.00000000E+00
					 5.00000000E-01	-1.49012000E-08	 3.00000000E+00
					 1.00000000E+00	-1.49012000E-08	 2.50000000E+00
					 1.00000000E+00	 2.50000000E-01	 3.00000000E+00
					 7.50000000E-01	-1.49012000E-08	 3.00000000E+00
					 5.00000000E-01	-1.49012000E-08	 2.50000000E+00
					 5.00000000E-01	 2.50000000E-01	 3.00000000E+00
					-7.45058000E-09	 5.00000000E-01	 3.00000000E+00
					-7.45058000E-09	 1.00000000E+00	 3.00000000E+00
					 2.50000000E-01	 5.00000000E-01	 3.00000000E+00
					 2.50000000E-01	 1.00000000E+00	 3.00000000E+00
					-7.45058000E-09	 5.00000000E-01	 2.50000000E+00
					-7.45058000E-09	 7.50000000E-01	 3.00000000E+00
					-7.45058000E-09	 1.00000000E+00	 2.50000000E+00
					-7.45058000E-09	-1.49012000E-08	 3.00000000E+00
					 2.50000000E-01	-1.49012000E-08	 3.00000000E+00
					-7.45058000E-09	-1.49012000E-08	 2.50000000E+00
					-7.45058000E-09	 2.50000000E-01	 3.00000000E+00
					 1.00000000E+00	 5.00000000E-01	 4.00000000E+00
					 1.00000000E+00	 1.00000000E+00	 4.00000000E+00
					 5.00000000E-01	 5.00000000E-01	 4.00000000E+00
					 5.00000000E-01	 1.00000000E+00	 4.00000000E+00
					 1.00000000E+00	 5.00000000E-01	 3.50000000E+00
					 1.00000000E+00	 7.50000000E-01	 4.00000000E+00
					 1.00000000E+00	 1.00000000E+00	 3.50000000E+00
					 7.50000000E-01	 5.00000000E-01	 4.00000000E+00
					 7.50000000E-01	 1.00000000E+00	 4.00000000E+00
					 5.00000000E-01	 5.00000000E-01	 3.50000000E+00
					 5.00000000E-01	 7.50000000E-01	 4.00000000E+00
					 5.00000000E-01	 1.00000000E+00	 3.50000000E+00
					 1.00000000E+00	-1.49012000E-08	 4.00000000E+00
					 5.00000000E-01	-1.49012000E-08	 4.00000000E+00
					 1.00000000E+00	-1.49012000E-08	 3.50000000E+00
					 1.00000000E+00	 2.50000000E-01	 4.00000000E+00
					 7.50000000E-01	-1.49012000E-08	 4.00000000E+00
					 5.00000000E-01	-1.49012000E-08	 3.50000000E+00
					 5.00000000E-01	 2.50000000E-01	 4.00000000E+00
					-7.45058000E-09	 5.00000000E-01	 4.00000000E+00
					-7.45058000E-09	 1.00000000E+00	 4.00000000E+00
					 2.50000000E-01	 5.00000000E-01	 4.00000000E+00
					 2.50000000E-01	 1.00000000E+00	 4.00000000E+00
					-7.45058000E-09	 5.00000000E-01	 3.50000000E+00
					-7.45058000E-09	 7.50000000E-01	 4.00000000E+00
					-7.45058000E-09	 1.00000000E+00	 3.50000000E+00
					-7.45058000E-09	-1.49012000E-08	 4.00000000E+00
					 2.50000000E-01	-1.49012000E-08	 4.00000000E+00
					-7.45058000E-09	-1.49012000E-08	 3.50000000E+00
					-7.45058000E-09	 2.50000000E-01	 4.00000000E+00
					 1.00000000E+00	 5.00000000E-01	 5.00000000E+00
					 1.00000000E+00	 1.00000000E+00	 5.00000000E+00
					 5.00000000E-01	 5.00000000E-01	 5.00000000E+00
					 5.00000000E-01	 1.00000000E+00	 5.00000000E+00
					 1.00000000E+00	 5.00000000E-01	 4.50000000E+00
					 1.00000000E+00	 7.50000000E-01	 5.00000000E+00
					 1.00000000E+00	 1.00000000E+00	 4.50000000E+00
					 7.50000000E-01	 5.00000000E-01	 5.00000000E+00
					 7.50000000E-01	 1.00000000E+00	 5.00000000E+00
					 5.00000000E-01	 5.00000000E-01	 4.50000000E+00
					 5.00000000E-01	 7.50000000E-01	 5.00000000E+00
					 5.00000000E-01	 1.00000000E+00	 4.50000000E+00
					 1.00000000E+00	-1.49012000E-08	 5.00000000E+00
					 5.00000000E-01	-1.49012000E-08	 5.00000000E+00
					 1.00000000E+00	-1.49012000E-08	 4.50000000E+00
					 1.00000000E+00	 2.50000000E-01	 5.00000000E+00
					 7.50000000E-01	-1.49012000E-08	 5.00000000E+00
					 5.00000000E-01	-1.49012000E-08	 4.50000000E+00
					 5.00000000E-01	 2.50000000E-01	 5.00000000E+00
					-7.45058000E-09	 5.00000000E-01	 5.00000000E+00
					-7.45058000E-09	 1.00000000E+00	 5.00000000E+00
					 2.50000000E-01	 5.00000000E-01	 5.00000000E+00
					 2.50000000E-01	 1.00000000E+00	 5.00000000E+00
					-7.45058000E-09	 5.00000000E-01	 4.50000000E+00
					-7.45058000E-09	 7.50000000E-01	 5.00000000E+00
					-7.45058000E-09	 1.00000000E+00	 4.50000000E+00
					-7.45058000E-09	-1.49012000E-08	 5.00000000E+00
					 2.50000000E-01	-1.49012000E-08	 5.00000000E+00
					-7.45058000E-09	-1.49012000E-08	 4.50000000E+00
					-7.45058000E-09	 2.50000000E-01	 5.00000000E+00
					 1.00000000E+00	 5.00000000E-01	 6.00000000E+00
					 1.00000000E+00	 1.00000000E+00	 6.00000000E+00
					 5.00000000E-01	 5.00000000E-01	 6.00000000E+00
					 5.00000000E-01	 1.00000000E+00	 6.00000000E+00
					 1.00000000E+00	 5.00000000E-01	 5.50000000E+00
					 1.00000000E+00	 7.50000000E-01	 6.00000000E+00
					 1.00000000E+00	 1.00000000E+00	 5.50000000E+00
					 7.50000000E-01	 5.00000000E-01	 6.00000000E+00
					 7.50000000E-01	 1.00000000E+00	 6.00000000E+00
					 5.00000000E-01	 5.00000000E-01	 5.50000000E+00
					 5.00000000E-01	 7.50000000E-01	 6.00000000E+00
					 5.00000000E-01	 1.00000000E+00	 5.50000000E+00
					 1.00000000E+00	-1.49012000E-08	 6.00000000E+00
[...]
			<PointData>
				<DataArray type="Float32" Name="U" NumberOfComponents="3" ComponentName0="D1" ComponentName1="D2" ComponentName2="D3" format="ascii">
					 0.00000000E+00	 0.00000000E+00	 0.00000000E+00
					 0.00000000E+00	 0.00000000E+00	 0.00000000E+00
					 1.59383000E-06	-9.49363000E-04	 1.72264000E-05
					-8.20245000E-04	-8.60533000E-04	 2.91463000E-04
					 0.00000000E+00	 0.00000000E+00	 0.00000000E+00
					 0.00000000E+00	 0.00000000E+00	 0.00000000E+00
					 5.28047000E-06	-1.86596000E-03	 2.09703000E-05
					-9.89610000E-04	-1.77542000E-03	 3.40091000E-04
					 0.00000000E+00	 0.00000000E+00	 0.00000000E+00
					-3.24100000E-06	-3.73565000E-04	 8.26311000E-06
					-4.10004000E-04	-9.19234000E-04	 1.26822000E-04
					-5.28396000E-04	-4.02615000E-04	 4.26982000E-04
					 0.00000000E+00	 0.00000000E+00	 0.00000000E+00
					 0.00000000E+00	 0.00000000E+00	 0.00000000E+00
					 3.62673000E-06	-1.39390000E-03	 1.94513000E-05
					-9.04276000E-04	-1.30239000E-03	 2.51254000E-04
					 0.00000000E+00	 0.00000000E+00	 0.00000000E+00
					 9.22219000E-08	-8.73568000E-04	 9.12952000E-06
					-4.91129000E-04	-1.83439000E-03	 8.18902000E-05
					-4.93860000E-04	-8.94696000E-04	 4.47847000E-04
					 0.00000000E+00	 0.00000000E+00	 0.00000000E+00
					 8.19455000E-04	-8.53967000E-04	-2.54933000E-04
					 0.00000000E+00	 0.00000000E+00	 0.00000000E+00
					 9.97447000E-04	-1.76377000E-03	-2.96532000E-04
					 0.00000000E+00	 0.00000000E+00	 0.00000000E+00
					 5.18533000E-04	-3.97840000E-04	-4.09138000E-04
					 4.12129000E-04	-9.16243000E-04	-9.19352000E-05
					 0.00000000E+00	 0.00000000E+00	 0.00000000E+00
					 9.07836000E-04	-1.29285000E-03	-2.10540000E-04
					 0.00000000E+00	 0.00000000E+00	 0.00000000E+00
					 4.91547000E-04	-8.85872000E-04	-4.27831000E-04
					 5.00834000E-04	-1.82832000E-03	-3.97137000E-05
					 0.00000000E+00	 0.00000000E+00	 0.00000000E+00
					 0.00000000E+00	 0.00000000E+00	 0.00000000E+00
					 9.22549000E-06	-2.93598000E-03	 2.36337000E-05
					-1.15086000E-03	-2.84273000E-03	 2.97062000E-04
					 0.00000000E+00	 0.00000000E+00	 0.00000000E+00
					 0.00000000E+00	 0.00000000E+00	 0.00000000E+00
					 7.10656000E-06	-2.38532000E-03	 2.20674000E-05
					-1.07005000E-03	-2.29641000E-03	 4.32692000E-04
					 0.00000000E+00	 0.00000000E+00	 0.00000000E+00
					 3.70216000E-06	-1.35883000E-03	 1.09289000E-05
					-5.72651000E-04	-2.90292000E-03	-4.63583000E-05
					-4.21198000E-04	-1.35301000E-03	 4.29799000E-04
					 0.00000000E+00	 0.00000000E+00	 0.00000000E+00
					 1.16831000E-03	-2.82941000E-03	-2.48894000E-04
					 0.00000000E+00	 0.00000000E+00	 0.00000000E+00
					 1.08247000E-03	-2.28348000E-03	-3.87299000E-04
					 0.00000000E+00	 0.00000000E+00	 0.00000000E+00
					 4.27298000E-04	-1.34222000E-03	-4.05851000E-04
					 5.90896000E-04	-2.89611000E-03	 9.36229000E-05
					 1.72877000E-06	 4.73102000E-04	 3.92434000E-05
					-1.47034000E-03	 6.26874000E-04	-1.60199000E-03
					 5.92447000E-06	-1.16652000E-03	 4.24633000E-05
					-1.79242000E-03	-1.01355000E-03	-1.60084000E-03
					 5.59831000E-06	-8.22237000E-04	 2.92877000E-05
					-7.36536000E-04	 5.02592000E-04	-7.25923000E-04
					-1.15748000E-03	-7.06504000E-04	-5.20531000E-04
					 3.70260000E-06	-3.01246000E-04	 4.00965000E-05
					-1.63250000E-03	-1.47603000E-04	-1.64570000E-03
					 9.32151000E-06	-2.13078000E-03	 3.20579000E-05
					-8.94392000E-04	-1.13981000E-03	-7.65275000E-04
					-1.43847000E-03	-2.01629000E-03	-4.99244000E-04
					 1.47011000E-03	 6.44796000E-04	 1.67821000E-03
					 1.80287000E-03	-9.90693000E-04	 1.68369000E-03
					 1.16546000E-03	-6.94479000E-04	 5.80786000E-04
					 7.38890000E-04	 5.12066000E-04	 8.04071000E-04
					 1.63731000E-03	-1.26516000E-04	 1.72344000E-03
					 1.45565000E-03	-2.00080000E-03	 5.64474000E-04
					 9.05978000E-04	-1.12747000E-03	 8.49670000E-04
					 1.24826000E-05	-3.12140000E-03	 4.67468000E-05
					-2.12687000E-03	-2.98563000E-03	-1.59378000E-03
					 8.67351000E-06	-2.10056000E-03	 4.51428000E-05
					-1.96049000E-03	-1.94909000E-03	-1.56323000E-03
					 1.40713000E-05	-3.71568000E-03	 3.46071000E-05
					-1.05049000E-03	-3.10222000E-03	-7.94985000E-04
					-1.73941000E-03	-3.62318000E-03	-5.15761000E-04
					 2.15272000E-03	-2.96062000E-03	 1.68566000E-03
					 1.97767000E-03	-1.92498000E-03	 1.65198000E-03
					 1.76852000E-03	-3.60685000E-03	 5.85674000E-04
					 1.07593000E-03	-3.08906000E-03	 8.87775000E-04
					-3.47818000E-06	 6.49573000E-03	 3.11270000E-05
					-2.02942000E-03	 6.58266000E-03	-3.40825000E-03
					 3.68290000E-06	 4.37702000E-03	 4.60803000E-05
					-2.21689000E-03	 4.45674000E-03	-3.40450000E-03
					-3.36931000E-06	 3.04181000E-03	 3.85964000E-05
					-1.01458000E-03	 6.51696000E-03	-1.63442000E-03
					-1.78508000E-03	 3.16409000E-03	-2.60252000E-03
					-1.30415000E-07	 5.46027000E-03	 3.88185000E-05
					-2.12347000E-03	 5.54183000E-03	-3.43478000E-03
					 1.79996000E-06	 1.12923000E-03	 4.77903000E-05
					-1.10645000E-03	 4.39490000E-03	-1.65199000E-03
					-2.04481000E-03	 1.24741000E-03	-2.60821000E-03
					 2.02081000E-03	 6.61819000E-03	 3.46727000E-03
					 2.22220000E-03	 4.49541000E-03	 3.49306000E-03
					 1.77493000E-03	 3.18901000E-03	 2.67530000E-03
					 1.00718000E-03	 6.53362000E-03	 1.69554000E-03
					 2.12152000E-03	 5.57930000E-03	 3.50920000E-03
					 2.04626000E-03	 1.27799000E-03	 2.69955000E-03
					 1.11325000E-03	 4.41354000E-03	 1.74319000E-03
					 1.21723000E-05	 2.05673000E-03	 6.37730000E-05
					-2.40883000E-03	 2.13424000E-03	-3.37496000E-03
					 7.78742000E-06	 3.24055000E-03	 5.40537000E-05
					-2.31298000E-03	 3.31838000E-03	-3.37732000E-03
					 9.25903000E-06	-1.04855000E-03	 5.90028000E-05
					-1.19926000E-03	 2.07274000E-03	-1.64284000E-03
					-2.31115000E-03	-9.40011000E-04	-2.58088000E-03
					 2.43069000E-03	 2.17711000E-03	 3.49843000E-03
					 2.32609000E-03	 3.35877000E-03	 3.48166000E-03
					 2.32840000E-03	-9.04856000E-04	 2.69498000E-03
					 1.22301000E-03	 2.09394000E-03	 1.76934000E-03
					-9.45586000E-06	 1.48782000E-02	 1.57169000E-05
					-2.29570000E-03	 1.49272000E-02	-4.48184000E-03
					 5.62908000E-07	 1.25230000E-02	 3.00022000E-05
					-2.43009000E-03	 1.25684000E-02	-4.46781000E-03
					-3.61119000E-06	 1.04896000E-02	 2.43131000E-05
					-1.15135000E-03	 1.48861000E-02	-2.22832000E-03
					-2.19306000E-03	 1.05568000E-02	-3.98512000E-03
					-4.78755000E-06	 1.37186000E-02	 2.25710000E-05
					-2.36295000E-03	 1.37645000E-02	-4.48273000E-03
					 5.50024000E-06	 8.22695000E-03	 3.97429000E-05
					-1.21483000E-03	 1.25293000E-02	-2.22224000E-03
					-2.33850000E-03	 8.28836000E-03	-3.97511000E-03
					 2.27817000E-03	 1.49834000E-02	 4.51190000E-03
					 2.43037000E-03	 1.26233000E-02	 4.52656000E-03
					 2.18617000E-03	 1.06033000E-02	 4.03167000E-03
					 1.13277000E-03	 1.49137000E-02	 2.25940000E-03
					 2.35404000E-03	 1.38198000E-02	 4.52659000E-03
					 2.34829000E-03	 8.33458000E-03	 4.05227000E-03
					 1.21561000E-03	 1.25562000E-02	 2.28186000E-03
					 1.06141000E-05	 1.00171000E-02	 4.56057000E-05
					-2.56790000E-03	 1.00618000E-02	-4.45235000E-03
					 5.96135000E-06	 1.12875000E-02	 3.78156000E-05
					-2.49913000E-03	 1.13327000E-02	-4.44964000E-03
					 1.48762000E-05	 5.80212000E-03	 5.75370000E-05
					-1.27884000E-03	 1.00223000E-02	-2.21684000E-03
					-2.48849000E-03	 5.86340000E-03	-3.95168000E-03
					 2.58613000E-03	 1.01200000E-02	 4.54238000E-03
					 2.50864000E-03	 1.13885000E-02	 4.52408000E-03
					 2.51575000E-03	 5.91224000E-03	 4.06408000E-03
					 1.29921000E-03	 1.00515000E-02	 2.30758000E-03
					-2.50972000E-05	 2.49464000E-02	-1.66725000E-05
					-2.37532000E-03	 2.49898000E-02	-5.58783000E-03
					-1.53700000E-05	 2.25025000E-02	-2.46938000E-06
					-2.54521000E-03	 2.25509000E-02	-5.57522000E-03
					-1.71282000E-05	 1.96497000E-02	 1.58668000E-06
					-1.20224000E-03	 2.49440000E-02	-2.79722000E-03
					-2.34202000E-03	 1.96968000E-02	-5.01011000E-03
					-2.04221000E-05	 2.37472000E-02	-8.97363000E-06
					-2.46031000E-03	 2.37948000E-02	-5.58612000E-03
					-7.34577000E-06	 1.72444000E-02	 1.63927000E-05
					-1.28031000E-03	 2.25023000E-02	-2.78975000E-03
					-2.49360000E-03	 1.72916000E-02	-4.99234000E-03
					 2.32696000E-03	 2.50710000E-02	 5.55391000E-03
					 2.51478000E-03	 2.26302000E-02	 5.56915000E-03
					 2.30890000E-03	 1.97631000E-02	 5.01267000E-03
					 1.15260000E-03	 2.49847000E-02	 2.76360000E-03
					 2.42092000E-03	 2.38748000E-02	 5.56751000E-03
					 2.47830000E-03	 1.73572000E-02	 5.02428000E-03
					 1.24974000E-03	 2.25417000E-02	 2.78454000E-03
					-5.40705000E-06	 1.98872000E-02	 1.34364000E-05
					-2.71449000E-03	 1.99316000E-02	-5.55977000E-03
					-1.03169000E-05	 2.12180000E-02	 4.44966000E-06
					-2.62981000E-03	 2.12657000E-02	-5.56130000E-03
					 2.68461000E-06	 1.46779000E-02	 3.21631000E-05
					-1.35845000E-03	 1.98854000E-02	-2.78106000E-03
					-2.64633000E-03	 1.47225000E-02	-4.98098000E-03
					 2.70237000E-03	 2.00126000E-02	 5.58505000E-03
					 2.60834000E-03	 2.13453000E-02	 5.56855000E-03
					 2.64908000E-03	 1.47917000E-02	 5.04422000E-03
					 1.34734000E-03	 1.99260000E-02	 2.80776000E-03
					-6.57277000E-05	 3.76319000E-02	-6.63411000E-05
					-2.64585000E-03	 3.76204000E-02	-6.64884000E-03
					-5.39645000E-05	 3.50050000E-02	-6.12252000E-05
					-2.72570000E-03	 3.49975000E-02	-6.66065000E-03
					-3.94928000E-05	 3.09567000E-02	-3.80477000E-05
					-1.35714000E-03	 3.76150000E-02	-3.29878000E-03
					-2.47182000E-03	 3.09710000E-02	-6.18187000E-03
					-6.00116000E-05	 3.63292000E-02	-6.42194000E-05
					-2.68561000E-03	 3.63205000E-02	-6.67867000E-03
					-2.91023000E-05	 2.84403000E-02	-2.81781000E-05
					-1.39057000E-03	 3.49901000E-02	-3.32345000E-03
					-2.61968000E-03	 2.84626000E-02	-6.18308000E-03
					 2.51911000E-03	 3.77305000E-02	 6.51193000E-03
					 2.61934000E-03	 3.51024000E-02	 6.53417000E-03
					 2.39667000E-03	 3.10695000E-02	 6.10393000E-03
					 1.22678000E-03	 3.76690000E-02	 3.16497000E-03
					 2.56940000E-03	 3.64277000E-02	 6.54606000E-03
					 2.56286000E-03	 2.85569000E-02	 6.12450000E-03
					 1.28312000E-03	 3.50412000E-02	 3.19993000E-03
					-4.28463000E-05	 3.22904000E-02	-5.32575000E-05
					-2.80647000E-03	 3.22820000E-02	-6.63693000E-03
					-4.79876000E-05	 3.36597000E-02	-5.74667000E-05
					-2.76599000E-03	 3.36521000E-02	-6.64675000E-03
					-1.88922000E-05	 2.57754000E-02	-1.57417000E-05
					-1.42459000E-03	 3.22749000E-02	-3.31241000E-03
					-2.76520000E-03	 2.57954000E-02	-6.16191000E-03
					 2.71932000E-03	 3.23871000E-02	 6.52671000E-03
					 2.66943000E-03	 3.37563000E-02	 6.52833000E-03
					 2.72661000E-03	 2.58896000E-02	 6.12806000E-03
					 1.33860000E-03	 3.23268000E-02	 3.20456000E-03
					-1.34960000E-04	 5.15775000E-02	-1.47197000E-04
					-2.98505000E-03	 5.15127000E-02	-6.82208000E-03
					-1.21880000E-04	 4.87531000E-02	-1.40678000E-04
					-2.93384000E-03	 4.86844000E-02	-6.81326000E-03
					-1.00509000E-04	 4.46426000E-02	-1.03885000E-04
					-1.55969000E-03	 5.15521000E-02	-3.46652000E-03
					-2.84084000E-03	 4.46031000E-02	-6.82988000E-03
					-1.29217000E-04	 5.01584000E-02	-1.43761000E-04
					-2.96070000E-03	 5.00907000E-02	-6.82855000E-03
					-8.75371000E-05	 4.19027000E-02	-9.99757000E-05
					-1.52978000E-03	 4.87268000E-02	-3.46747000E-03
					-2.83819000E-03	 4.18616000E-02	-6.83956000E-03
					 2.71815000E-03	 5.16165000E-02	 6.52978000E-03
					 2.69116000E-03	 4.87849000E-02	 6.53396000E-03
					 2.64451000E-03	 4.47123000E-02	 6.61810000E-03
					 1.29076000E-03	 5.16019000E-02	 3.17356000E-03
					 2.70454000E-03	 5.01927000E-02	 6.54278000E-03
					 2.66417000E-03	 4.19659000E-02	 6.63609000E-03
					 1.28645000E-03	 4.87750000E-02	 3.18708000E-03
					-1.08794000E-04	 4.59588000E-02	-1.37272000E-04
					-2.88516000E-03	 4.58919000E-02	-6.79966000E-03
					-1.14587000E-04	 4.73521000E-02	-1.38751000E-04
					-2.90927000E-03	 4.72831000E-02	-6.79940000E-03
					-7.48379000E-05	 3.91477000E-02	-9.45128000E-05
					-1.49885000E-03	 4.59329000E-02	-3.46356000E-03
					-2.83830000E-03	 3.91075000E-02	-6.81828000E-03
					 2.66627000E-03	 4.59931000E-02	 6.52691000E-03
					 2.67993000E-03	 4.73835000E-02	 6.52333000E-03
					 2.68572000E-03	 3.92138000E-02	 6.62606000E-03
					 1.28087000E-03	 4.59817000E-02	 3.19035000E-03
					-1.85350000E-04	 6.47500000E-02	-2.33264000E-04
					-3.06105000E-03	 6.46908000E-02	-6.75053000E-03
					-1.86299000E-04	 6.18534000E-02	-2.20861000E-04
					-3.04984000E-03	 6.17854000E-02	-6.70782000E-03
					-1.63017000E-04	 5.82305000E-02	-1.91180000E-04
					-1.61668000E-03	 6.47203000E-02	-3.50588000E-03
					-3.04976000E-03	 5.81781000E-02	-6.76227000E-03
					-1.84921000E-04	 6.33064000E-02	-2.25360000E-04
					-3.05584000E-03	 6.32385000E-02	-6.72740000E-03
					-1.53897000E-04	 5.53604000E-02	-1.80388000E-04
					-1.61300000E-03	 6.18186000E-02	-3.47560000E-03
					-3.01059000E-03	 5.53005000E-02	-6.73077000E-03
					 2.68362000E-03	 6.48058000E-02	 6.29871000E-03
					 2.68017000E-03	 6.19051000E-02	 6.28081000E-03
					 2.72090000E-03	 5.82801000E-02	 6.39102000E-03
					 1.24443000E-03	 6.47797000E-02	 3.04373000E-03
					 2.68323000E-03	 6.33581000E-02	 6.29128000E-03
					 2.70487000E-03	 5.54041000E-02	 6.38059000E-03
					 1.24143000E-03	 6.18809000E-02	 3.03808000E-03
					-1.86642000E-04	 5.89735000E-02	-2.23857000E-04
					-3.03683000E-03	 5.89051000E-02	-6.69237000E-03
					-1.87499000E-04	 6.04075000E-02	-2.20653000E-04
					-3.04293000E-03	 6.03386000E-02	-6.69053000E-03
					-1.44660000E-04	 5.25169000E-02	-1.80791000E-04
					-1.61177000E-03	 5.89397000E-02	-3.47241000E-03
					-2.96779000E-03	 5.24594000E-02	-6.71871000E-03
					 2.67547000E-03	 5.90120000E-02	 6.25962000E-03
					 2.67658000E-03	 6.04541000E-02	 6.26336000E-03
					 2.68463000E-03	 5.25559000E-02	 6.36714000E-03
					 1.24163000E-03	 5.89941000E-02	 3.02963000E-03
					 0.00000000E+00	 0.00000000E+00	 0.00000000E+00
					 0.00000000E+00	 0.00000000E+00	 0.00000000E+00
					-6.39338000E-05	-2.28826000E-03	-1.18975000E-04
					-1.53296000E-03	-2.52800000E-03	 3.44349000E-03
					 0.00000000E+00	 0.00000000E+00	 0.00000000E+00
					 0.00000000E+00	 0.00000000E+00	 0.00000000E+00
					-9.01091000E-05	-3.48061000E-03	-1.86558000E-04
					-1.02424000E-03	-3.73183000E-03	 3.40841000E-03
					 0.00000000E+00	 0.00000000E+00	 0.00000000E+00
					-8.37790000E-06	-1.04147000E-04	-4.72889000E-05
					-8.00470000E-04	-2.31789000E-03	 1.74329000E-03
					-9.69611000E-04	-4.12444000E-04	 1.65683000E-03
					 0.00000000E+00	 0.00000000E+00	 0.00000000E+00
					 0.00000000E+00	 0.00000000E+00	 0.00000000E+00
					-7.51460000E-05	-2.97217000E-03	-1.54180000E-04
					-1.27307000E-03	-3.21565000E-03	 3.32841000E-03
					 0.00000000E+00	 0.00000000E+00	 0.00000000E+00
					-3.13254000E-05	-7.92118000E-04	-7.86923000E-05
					-5.58123000E-04	-3.51216000E-03	 1.59507000E-03
					-4.74547000E-04	-1.07632000E-03	 1.56719000E-03
					 0.00000000E+00	 0.00000000E+00	 0.00000000E+00
					 1.40339000E-03	-2.54092000E-03	-3.68747000E-03
					 0.00000000E+00	 0.00000000E+00	 0.00000000E+00
					 8.48416000E-04	-3.75170000E-03	-3.78512000E-03
					 0.00000000E+00	 0.00000000E+00	 0.00000000E+00
					 9.57035000E-04	-4.38344000E-04	-1.76074000E-03
					 6.70511000E-04	-2.32343000E-03	-1.98191000E-03
					 0.00000000E+00	 0.00000000E+00	 0.00000000E+00
					 1.12344000E-03	-3.23108000E-03	-3.64160000E-03
					 0.00000000E+00	 0.00000000E+00	 0.00000000E+00
					 4.19185000E-04	-1.11882000E-03	-1.73364000E-03
					 3.76605000E-04	-3.52079000E-03	-1.96869000E-03
					 0.00000000E+00	 0.00000000E+00	 0.00000000E+00
					 0.00000000E+00	 0.00000000E+00	 0.00000000E+00
					-1.21655000E-04	-4.15944000E-03	-2.50004000E-04
					-5.05975000E-04	-4.37872000E-03	 3.31712000E-03
					 0.00000000E+00	 0.00000000E+00	 0.00000000E+00
					 0.00000000E+00	 0.00000000E+00	 0.00000000E+00
					-1.04685000E-04	-3.90615000E-03	-2.16874000E-04
					-7.66879000E-04	-4.13966000E-03	 3.44587000E-03
					 0.00000000E+00	 0.00000000E+00	 0.00000000E+00
					-6.54987000E-05	-9.96764000E-04	-1.18994000E-04
					-3.16697000E-04	-4.17784000E-03	 1.43546000E-03
					 4.51698000E-05	-1.25207000E-03	 1.58583000E-03
					 0.00000000E+00	 0.00000000E+00	 0.00000000E+00
					 2.70151000E-04	-4.40531000E-03	-3.81734000E-03
					 0.00000000E+00	 0.00000000E+00	 0.00000000E+00
					 5.62764000E-04	-4.16726000E-03	-3.88133000E-03
					 0.00000000E+00	 0.00000000E+00	 0.00000000E+00
					-1.67812000E-04	-1.31222000E-03	-1.83352000E-03
					 7.56540000E-05	-4.19124000E-03	-1.93481000E-03
					-2.11862000E-04	-1.25880000E-02	-3.47137000E-04
					-2.63445000E-03	-1.27517000E-02	 6.39456000E-03
					-2.36438000E-04	-1.48466000E-02	-4.46650000E-04
					-2.35353000E-03	-1.50144000E-02	 6.34317000E-03
					-1.34845000E-04	-6.49293000E-03	-2.18075000E-04
					-1.41997000E-03	-1.26326000E-02	 2.98925000E-03
					-2.10737000E-03	-6.72012000E-03	 5.13643000E-03
					-2.24428000E-04	-1.37521000E-02	-4.00150000E-04
					-2.49322000E-03	-1.39179000E-02	 6.30448000E-03
					-1.61869000E-04	-8.21844000E-03	-3.04815000E-04
					-1.28892000E-03	-1.48900000E-02	 2.84890000E-03
					-1.65370000E-03	-8.44882000E-03	 5.07904000E-03
					 2.21149000E-03	-1.27026000E-02	-7.09696000E-03
					 1.87657000E-03	-1.49724000E-02	-7.24246000E-03
					 1.83784000E-03	-6.70405000E-03	-5.58155000E-03
					 9.96077000E-04	-1.26077000E-02	-3.68604000E-03
					 2.04492000E-03	-1.38782000E-02	-7.10986000E-03
					 1.33239000E-03	-8.43937000E-03	-5.69684000E-03
					 8.19864000E-04	-1.48711000E-02	-3.74090000E-03
					-2.66265000E-04	-1.68174000E-02	-5.40107000E-04
					-2.04817000E-03	-1.69538000E-02	 6.20094000E-03
					-2.51833000E-04	-1.58640000E-02	-4.91666000E-04
					-2.20035000E-03	-1.60540000E-02	 6.39313000E-03
					-1.93639000E-04	-9.48058000E-03	-3.86240000E-04
					-1.16854000E-03	-1.68422000E-02	 2.61720000E-03
					-1.19357000E-03	-9.68720000E-03	 4.96946000E-03
					 1.54227000E-03	-1.69330000E-02	-7.28601000E-03
					 1.70906000E-03	-1.59914000E-02	-7.38496000E-03
					 8.20050000E-04	-9.69393000E-03	-5.74761000E-03
					 6.43612000E-04	-1.68369000E-02	-3.69426000E-03
					-3.31468000E-04	-2.73420000E-02	-6.72049000E-04
					-3.60758000E-03	-2.72172000E-02	 6.33860000E-03
					-3.47100000E-04	-3.06903000E-02	-7.48424000E-04
					-3.82126000E-03	-3.06777000E-02	 6.30773000E-03
					-2.80052000E-04	-1.99055000E-02	-5.04133000E-04
					-1.96589000E-03	-2.73075000E-02	 2.80490000E-03
					-3.11191000E-03	-1.99509000E-02	 6.78497000E-03
					-3.38767000E-04	-2.89912000E-02	-7.07118000E-04
					-3.71801000E-03	-2.89335000E-02	 6.24390000E-03
					-3.02133000E-04	-2.27065000E-02	-6.01443000E-04
					-2.10736000E-03	-3.07176000E-02	 2.65692000E-03
					-3.08921000E-03	-2.27667000E-02	 6.75047000E-03
					 2.89755000E-03	-2.72114000E-02	-7.66172000E-03
					 3.11456000E-03	-3.05615000E-02	-7.81652000E-03
					 2.54020000E-03	-1.98975000E-02	-7.79446000E-03
					 1.28766000E-03	-2.73085000E-02	-4.13610000E-03
					 3.00364000E-03	-2.88531000E-02	-7.66594000E-03
					 2.48266000E-03	-2.26897000E-02	-7.95411000E-03
					 1.38627000E-03	-3.06640000E-02	-4.17256000E-03
					-3.62928000E-04	-3.42608000E-02	-8.27421000E-04
					-4.13015000E-03	-3.43823000E-02	 6.17989000E-03
					-3.55206000E-04	-3.24606000E-02	-7.89336000E-04
					-3.97910000E-03	-3.23840000E-02	 6.38754000E-03
					-3.15008000E-04	-2.54699000E-02	-6.95673000E-04
					-2.21146000E-03	-3.43582000E-02	 2.40925000E-03
					-3.09001000E-03	-2.55560000E-02	 6.59634000E-03
					 3.35105000E-03	-3.41584000E-02	-7.87267000E-03
					 3.23204000E-03	-3.23224000E-02	-7.97717000E-03
					 2.41802000E-03	-2.54445000E-02	-7.98963000E-03
					 1.48460000E-03	-3.42559000E-02	-4.10821000E-03
					-3.19079000E-04	-3.87154000E-02	-9.71422000E-04
					-4.52084000E-03	-3.83379000E-02	 3.16407000E-03