# vtk DataFile Version 3.0

ASCII
DATASET UNSTRUCTURED_GRID

POINTS 522 double
	 1.00000000E+00	 1.00000000E+00	-5.96046000E-08
	 1.00000000E+00	 5.00000000E-01	-5.96046000E-08
	 1.00000000E+00	 5.00000000E-01	 1.00000000E+00
	 1.00000000E+00	 1.00000000E+00	 1.00000000E+00
	 5.00000000E-01	 1.00000000E+00	-5.96046000E-08
	 5.00000000E-01	 5.00000000E-01	-5.96046000E-08
	 5.00000000E-01	 5.00000000E-01	 1.00000000E+00
	 5.00000000E-01	 1.00000000E+00	 1.00000000E+00
	 1.00000000E+00	 7.50000000E-01	-5.96046000E-08
	 1.00000000E+00	 5.00000000E-01	 5.00000000E-01
	 1.00000000E+00	 7.50000000E-01	 1.00000000E+00
	 1.00000000E+00	 1.00000000E+00	 5.00000000E-01
	 7.50000000E-01	 1.00000000E+00	-5.96046000E-08
	 7.50000000E-01	 5.00000000E-01	-5.96046000E-08
	 7.50000000E-01	 5.00000000E-01	 1.00000000E+00
	 7.50000000E-01	 1.00000000E+00	 1.00000000E+00
	 5.00000000E-01	 7.50000000E-01	-5.96046000E-08
	 5.00000000E-01	 5.00000000E-01	 5.00000000E-01
	 5.00000000E-01	 7.50000000E-01	 1.00000000E+00
	 5.00000000E-01	 1.00000000E+00	 5.00000000E-01
	 1.00000000E+00	-1.49012000E-08	-5.96046000E-08
	 1.00000000E+00	-1.49012000E-08	 1.00000000E+00
	 5.00000000E-01	-1.49012000E-08	-5.96046000E-08
	 5.00000000E-01	-1.49012000E-08	 1.00000000E+00
	 1.00000000E+00	 2.50000000E-01	-5.96046000E-08
	 1.00000000E+00	-1.49012000E-08	 5.00000000E-01
	 1.00000000E+00	 2.50000000E-01	 1.00000000E+00
	 7.50000000E-01	-1.49012000E-08	-5.96046000E-08
	 7.50000000E-01	-1.49012000E-08	 1.00000000E+00
	 5.00000000E-01	 2.50000000E-01	-5.96046000E-08
	 5.00000000E-01	-1.49012000E-08	 5.00000000E-01
	 5.00000000E-01	 2.50000000E-01	 1.00000000E+00
	-7.45058000E-09	 1.00000000E+00	-5.96046000E-08
	-7.45058000E-09	 5.00000000E-01	-5.96046000E-08
	-7.45058000E-09	 5.00000000E-01	 1.00000000E+00
	-7.45058000E-09	 1.00000000E+00	 1.00000000E+00
	 2.50000000E-01	 1.00000000E+00	-5.96046000E-08
	 2.50000000E-01	 5.00000000E-01	-5.96046000E-08
	 2.50000000E-01	 5.00000000E-01	 1.00000000E+00
	 2.50000000E-01	 1.00000000E+00	 1.00000000E+00
	-7.45058000E-09	 7.50000000E-01	-5.96046000E-08
	-7.45058000E-09	 5.00000000E-01	 5.00000000E-01
	-7.45058000E-09	 7.50000000E-01	 1.00000000E+00
	-7.45058000E-09	 1.00000000E+00	 5.00000000E-01
	-7.45058000E-09	-1.49012000E-08	-5.96046000E-08
	-7.45058000E-09	-1.49012000E-08	 1.00000000E+00
	 2.50000000E-01	-1.49012000E-08	-5.96046000E-08
	 2.50000000E-01	-1.49012000E-08	 1.00000000E+00
	-7.45058000E-09	 2.50000000E-01	-5.96046000E-08
	-7.45058000E-09	-1.49012000E-08	 5.00000000E-01
	-7.45058000E-09	 2.50000000E-01	 1.00000000E+00
	 1.00000000E+00	 5.00000000E-01	 2.00000000E+00
	 1.00000000E+00	 1.00000000E+00	 2.00000000E+00
	 5.00000000E-01	 5.00000000E-01	 2.00000000E+00
	 5.00000000E-01	 1.00000000E+00	 2.00000000E+00
	 1.00000000E+00	 5.00000000E-01	 1.50000000E+00
	 1.00000000E+00	 7.50000000E-01	 2.00000000E+00
	 1.00000000E+00	 1.00000000E+00	 1.50000000E+00
	 7.50000000E-01	 5.00000000E-01	 2.00000000E+00
	 7.50000000E-01	 1.00000000E+00	 2.00000000E+00
	 5.00000000E-01	 5.00000000E-01	 1.50000000E+00
	 5.00000000E-01	 7.50000000E-01	 2.00000000E+00
	 5.00000000E-01	 1.00000000E+00	 1.50000000E+00
	 1.00000000E+00	-1.49012000E-08	 2.00000000E+00
	 5.00000000E-01	-1.49012000E-08	 2.00000000E+00
	 1.00000000E+00	-1.49012000E-08	 1.50000000E+00
	 1.00000000E+00	 2.50000000E-01	 2.00000000E+00
	 7.50000000E-01	-1.49012000E-08	 2.00000000E+00
	 5.00000000E-01	-1.49012000E-08	 1.50000000E+00
	 5.00000000E-01	 2.50000000E-01	 2.00000000E+00
	-7.45058000E-09	 5.00000000E-01	 2.00000000E+00
	-7.45058000E-09	 1.00000000E+00	 2.00000000E+00
	 2.50000000E-01	 5.00000000E-01	 2.00000000E+00
	 2.50000000E-01	 1.00000000E+00	 2.00000000E+00
	-7.45058000E-09	 5.00000000E-01	 1.50000000E+00
	-7.45058000E-09	 7.50000000E-01	 2.00000000E+00
	-7.45058000E-09	 1.00000000E+00	 1.50000000E+00
	-7.45058000E-09	-1.49012000E-08	 2.00000000E+00
	 2.50000000E-01	-1.49012000E-08	 2.00000000E+00
	-7.45058000E-09	-1.49012000E-08	 1.50000000E+00
	-7.45058000E-09	 2.50000000E-01	 2.00000000E+00
	 1.00000000E+00	 5.00000000E-01	 3.00000000E+00
	 1.00000000E+00	 1.00000000E+00	 3.00000000E+00
	 5.00000000E-01	 5.00000000E-01	 3.00000000E+00
	 5.00000000E-01	 1.00000000E+00	 3.00000000E+00
	 1.00000000E+00	 5.00000000E-01	 2.50000000E+00
	 1.00000000E+00	 7.50000000E-01	 3.00000000E+00
	 1.00000000E+00	 1.00000000E+00	 2.50000000E+00
	 7.50000000E-01	 5.00000000E-01	 3.00000000E+00
	 7.50000000E-01	 1.00000000E+00	 3.00000000E+00
	 5.00000000E-01	 5.00000000E-01	 2.50000000E+00
	 5.00000000E-01	 7.50000000E-01	 3.00000000E+00
	 5.00000000E-01	 1.00000000E+00	 2.50000000E+00
	 1.00000000E+00	-1.49012000E-08	 3.00000000E+00
	 5.00000000E-01	-1.49012000E-08	 3.00000000E+00
	 1.00000000E+00	-1.49012000E-08	 2.50000000E+00
	 1.00000000E+00	 2.50000000E-01	 3.00000000E+00
	 7.50000000E-01	-1.49012000E-08	 3.00000000E+00
	 5.00000000E-01	-1.49012000E-08	 2.50000000E+00
	 5.00000000E-01	 2.50000000E-01	 3.00000000E+00
	-7.45058000E-09	 5.00000000E-01	 3.00000000E+00
	-7.45058000E-09	 1.00000000E+00	 3.00000000E+00
	 2.50000000E-01	 5.00000000E-01	 3.00000000E+00
	 2.50000000E-01	 1.00000000E+00	 3.00000000E+00
	-7.45058000E-09	 5.00000000E-01	 2.50000000E+00
	-7.45058000E-09	 7.50000000E-01	 3.00000000E+00
	-7.45058000E-09	 1.00000000E+00	 2.50000000E+00
	-7.45058000E-09	-1.49012000E-08	 3.00000000E+00
	 2.50000000E-01	-1.49012000E-08	 3.00000000E+00
	-7.45058000E-09	-1.49012000E-08	 2.50000000E+00
	-7.45058000E-09	 2.50000000E-01	 3.00000000E+00
	 1.00000000E+00	 5.00000000E-01	 4.00000000E+00
	 1.00000000E+00	 1.00000000E+00	 4.00000000E+00
	 5.00000000E-01	 5.00000000E-01	 4.00000000E+00
	 5.00000000E-01	 1.00000000E+00	 4.00000000E+00
	 1.00000000E+00	 5.00000000E-01	 3.50000000E+00
	 1.00000000E+00	 7.50000000E-01	 4.00000000E+00
	 1.00000000E+00	 1.00000000E+00	 3.50000000E+00
	 7.50000000E-01	 5.00000000E-01	 4.00000000E+00
	 7.50000000E-01	 1.00000000E+00	 4.00000000E+00
	 5.00000000E-01	 5.00000000E-01	 3.50000000E+00
	 5.00000000E-01	 7.50000000E-01	 4.00000000E+00
	 5.00000000E-01	 1.00000000E+00	 3.50000000E+00
	 1.00000000E+00	-1.49012000E-08	 4.00000000E+00
	 5.00000000E-01	-1.49012000E-08	 4.00000000E+00
	 1.00000000E+00	-1.49012000E-08	 3.50000000E+00
	 1.00000000E+00	 2.50000000E-01	 4.00000000E+00
	 7.50000000E-01	-1.49012000E-08	 4.00000000E+00
	 5.00000000E-01	-1.49012000E-08	 3.50000000E+00
	 5.00000000E-01	 2.50000000E-01	 4.00000000E+00
	-7.45058000E-09	 5.00000000E-01	 4.00000000E+00
	-7.45058000E-09	 1.00000000E+00	 4.00000000E+00
	 2.50000000E-01	 5.00000000E-01	 4.00000000E+00
	 2.50000000E-01	 1.00000000E+00	 4.00000000E+00
	-7.45058000E-09	 5.00000000E-01	 3.50000000E+00
	-7.45058000E-09	 7.50000000E-01	 4.00000000E+00
	-7.45058000E-09	 1.00000000E+00	 3.50000000E+00
	-7.45058000E-09	-1.49012000E-08	 4.00000000E+00
	 2.50000000E-01	-1.49012000E-08	 4.00000000E+00
	-7.45058000E-09	-1.49012000E-08	 3.50000000E+00
	-7.45058000E-09	 2.50000000E-01	 4.00000000E+00
	 1.00000000E+00	 5.00000000E-01	 5.00000000E+00
	 1.00000000E+00	 1.00000000E+00	 5.00000000E+00
	 5.00000000E-01	 5.00000000E-01	 5.00000000E+00
	 5.00000000E-01	 1.00000000E+00	 5.00000000E+00
	 1.00000000E+00	 5.00000000E-01	 4.50000000E+00
	 1.00000000E+00	 7.50000000E-01	 5.00000000E+00
	 1.00000000E+00	 1.00000000E+00	 4.50000000E+00
	 7.50000000E-01	 5.00000000E-01	 5.00000000E+00
	 7.50000000E-01	 1.00000000E+00	 5.00000000E+00
	 5.00000000E-01	 5.00000000E-01	 4.50000000E+00
	 5.00000000E-01	 7.50000000E-01	 5.00000000E+00
	 5.00000000E-01	 1.00000000E+00	 4.50000000E+00
	 1.00000000E+00	-1.49012000E-08	 5.00000000E+00
	 5.00000000E-01	-1.49012000E-08	 5.00000000E+00
	 1.00000000E+00	-1.49012000E-08	 4.50000000E+00
	 1.00000000E+00	 2.50000000E-01	 5.00000000E+00
	 7.50000000E-01	-1.49012000E-08	 5.00000000E+00
	 5.00000000E-01	-1.49012000E-08	 4.50000000E+00
	 5.00000000E-01	 2.50000000E-01	 5.00000000E+00
	-7.45058000E-09	 5.00000000E-01	 5.00000000E+00
	-7.45058000E-09	 1.00000000E+00	 5.00000000E+00
	 2.50000000E-01	 5.00000000E-01	 5.00000000E+00
	 2.50000000E-01	 1.00000000E+00	 5.00000000E+00
	-7.45058000E-09	 5.00000000E-01	 4.50000000E+00
	-7.45058000E-09	 7.50000000E-01	 5.00000000E+00
	-7.45058000E-09	 1.00000000E+00	 4.50000000E+00
	-7.45058000E-09	-1.49012000E-08	 5.00000000E+00
	 2.50000000E-01	-1.49012000E-08	 5.00000000E+00
	-7.45058000E-09	-1.49012000E-08	 4.50000000E+00
	-7.45058000E-09	 2.50000000E-01	 5.00000000E+00
	 1.00000000E+00	 5.00000000E-01	 6.00000000E+00
	 1.00000000E+00	 1.00000000E+00	 6.00000000E+00
	 5.00000000E-01	 5.00000000E-01	 6.00000000E+00
	 5.00000000E-01	 1.00000000E+00	 6.00000000E+00
	 1.00000000E+00	 5.00000000E-01	 5.50000000E+00
	 1.00000000E+00	 7.50000000E-01	 6.00000000E+00
	 1.00000000E+00	 1.00000000E+00	 5.50000000E+00
	 7.50000000E-01	 5.00000000E-01	 6.00000000E+00
	 7.50000000E-01	 1.00000000E+00	 6.00000000E+00
	 5.00000000E-01	 5.00000000E-01	 5.50000000E+00
	 5.00000000E-01	 7.50000000E-01	 6.00000000E+00
	 5.00000000E-01	 1.00000000E+00	 5.50000000E+00
	 1.00000000E+00	-1.49012000E-08	 6.00000000E+00
	 5.00000000E-01	-1.49012000E-08	 6.00000000E+00
	 1.00000000E+00	-1.49012000E-08	 5.50000000E+00
	 1.00000000E+00	 2.50000000E-01	 6.00000000E+00
	 7.50000000E-01	-1.49012000E-08	 6.00000000E+00
	 5.00000000E-01	-1.49012000E-08	 5.50000000E+00
	 5.00000000E-01	 2.50000000E-01	 6.00000000E+00
	-7.45058000E-09	 5.00000000E-01	 6.00000000E+00
	-7.45058000E-09	 1.00000000E+00	 6.00000000E+00
	 2.50000000E-01	 5.00000000E-01	 6.00000000E+00
	 2.50000000E-01	 1.00000000E+00	 6.00000000E+00
	-7.45058000E-09	 5.00000000E-01	 5.50000000E+00
	-7.45058000E-09	 7.50000000E-01	 6.00000000E+00
	-7.45058000E-09	 1.00000000E+00	 5.50000000E+00
	-7.45058000E-09	-1.49012000E-08	 6.00000000E+00
	 2.50000000E-01	-1.49012000E-08	 6.00000000E+00
	-7.45058000E-09	-1.49012000E-08	 5.50000000E+00
	-7.45058000E-09	 2.50000000E-01	 6.00000000E+00
	 1.00000000E+00	 5.00000000E-01	 7.00000000E+00
[...]
POINT_DATA 522
FIELD U 1
	U 3 522 double
		 0.00000000E+00	 0.00000000E+00	 0.00000000E+00
		 0.00000000E+00	 0.00000000E+00	 0.00000000E+00
		 3.54387000E-06	-2.99352000E-03	-6.59530000E-05
		 1.86501000E-04	-3.07070000E-03	 1.72995000E-03
		 0.00000000E+00	 0.00000000E+00	 0.00000000E+00
		 0.00000000E+00	 0.00000000E+00	 0.00000000E+00
		 1.63312000E-05	-2.74318000E-03	-2.08757000E-05
		 2.91419000E-04	-2.83131000E-03	 1.75837000E-03
		 0.00000000E+00	 0.00000000E+00	 0.00000000E+00
		 1.58211000E-05	-9.94347000E-04	-1.58269000E-05
		 6.99169000E-05	-2.98216000E-03	 7.62120000E-04
		-1.22047000E-04	-1.11846000E-03	 9.94411000E-04
		 0.00000000E+00	 0.00000000E+00	 0.00000000E+00
		 0.00000000E+00	 0.00000000E+00	 0.00000000E+00
		 2.44856000E-05	-2.87296000E-03	-3.08599000E-05
		 2.31822000E-04	-2.95128000E-03	 1.76788000E-03
		 0.00000000E+00	 0.00000000E+00	 0.00000000E+00
		-1.24700000E-06	-9.18114000E-04	-1.03864000E-05
		 1.39737000E-04	-2.76119000E-03	 8.19634000E-04
		 1.55905000E-04	-1.09161000E-03	 9.95750000E-04
		 0.00000000E+00	 0.00000000E+00	 0.00000000E+00
		-1.35098000E-04	-3.02429000E-03	-1.79233000E-03
		 0.00000000E+00	 0.00000000E+00	 0.00000000E+00
		-2.70941000E-04	-2.85070000E-03	-1.82396000E-03
		 0.00000000E+00	 0.00000000E+00	 0.00000000E+00
		 1.22012000E-04	-1.12138000E-03	-1.06977000E-03
		-6.48361000E-05	-2.97680000E-03	-8.35531000E-04
		 0.00000000E+00	 0.00000000E+00	 0.00000000E+00
		-2.20256000E-04	-2.93861000E-03	-1.85689000E-03
		 0.00000000E+00	 0.00000000E+00	 0.00000000E+00
		-1.19676000E-04	-1.11303000E-03	-1.05803000E-03
		-1.31213000E-04	-2.76816000E-03	-8.68604000E-04
		 0.00000000E+00	 0.00000000E+00	 0.00000000E+00
		 0.00000000E+00	 0.00000000E+00	 0.00000000E+00
		 2.26253000E-06	-2.40515000E-03	-1.02515000E-05
		 3.92839000E-04	-2.53768000E-03	 1.77314000E-03
		 0.00000000E+00	 0.00000000E+00	 0.00000000E+00
		 0.00000000E+00	 0.00000000E+00	 0.00000000E+00
		 2.28385000E-06	-2.59988000E-03	-2.40328000E-05
		 3.60624000E-04	-2.68027000E-03	 1.76453000E-03
		 0.00000000E+00	 0.00000000E+00	 0.00000000E+00
		-3.03589000E-06	-6.97454000E-04	-1.16553000E-05
		 2.11577000E-04	-2.40939000E-03	 8.32667000E-04
		 3.60459000E-04	-8.52911000E-04	 9.95766000E-04
		 0.00000000E+00	 0.00000000E+00	 0.00000000E+00
		-3.85805000E-04	-2.52911000E-03	-1.77031000E-03
		 0.00000000E+00	 0.00000000E+00	 0.00000000E+00
		-3.28383000E-04	-2.65060000E-03	-1.77032000E-03
		 0.00000000E+00	 0.00000000E+00	 0.00000000E+00
		-3.74233000E-04	-8.46314000E-04	-1.00664000E-03
		-2.00524000E-04	-2.42609000E-03	-8.45632000E-04
		 2.55842000E-05	-7.78739000E-03	-4.03851000E-05
		 5.07285000E-04	-7.85195000E-03	 2.50319000E-03
		 1.55792000E-05	-7.20686000E-03	-6.03648000E-06
		 6.21212000E-04	-7.30862000E-03	 2.55396000E-03
		-9.91633000E-06	-5.18715000E-03	-3.28558000E-05
		 2.41587000E-04	-7.82381000E-03	 1.25560000E-03
		 3.42233000E-04	-5.25455000E-03	 2.13422000E-03
		-1.55158000E-06	-7.50251000E-03	-2.02793000E-05
		 5.94009000E-04	-7.58434000E-03	 2.56643000E-03
		 8.39056000E-06	-4.80774000E-03	-3.08906000E-05
		 3.30951000E-04	-7.22892000E-03	 1.29136000E-03
		 4.35829000E-04	-4.87851000E-03	 2.15835000E-03
		-5.51641000E-04	-7.84404000E-03	-2.59606000E-03
		-6.16802000E-04	-7.24435000E-03	-2.56888000E-03
		-3.43646000E-04	-5.26281000E-03	-2.21014000E-03
		-2.59961000E-04	-7.79503000E-03	-1.32760000E-03
		-5.60542000E-04	-7.55413000E-03	-2.62007000E-03
		-4.51145000E-04	-4.87992000E-03	-2.20262000E-03
		-2.91931000E-04	-7.21428000E-03	-1.30312000E-03
		 4.50092000E-06	-6.48477000E-03	 3.40364000E-05
		 8.11935000E-04	-6.58792000E-03	 2.56769000E-03
		 2.45839000E-05	-6.87973000E-03	 1.29525000E-05
		 6.85919000E-04	-6.95965000E-03	 2.53333000E-03
		 1.84962000E-05	-4.27001000E-03	 4.68844000E-07
		 4.04675000E-04	-6.55461000E-03	 1.32202000E-03
		 5.82151000E-04	-4.42028000E-03	 2.18886000E-03
		-7.56914000E-04	-6.58627000E-03	-2.56352000E-03
		-7.12229000E-04	-6.95533000E-03	-2.52869000E-03
		-5.40881000E-04	-4.39103000E-03	-2.17343000E-03
		-3.39830000E-04	-6.51367000E-03	-1.32822000E-03
		-1.53474000E-05	-1.40134000E-02	-2.57096000E-05
		 7.91874000E-04	-1.41615000E-02	 3.43137000E-03
		 1.41373000E-05	-1.32112000E-02	-1.66734000E-05
		 9.19107000E-04	-1.32936000E-02	 3.48284000E-03
		 6.74326000E-06	-1.07313000E-02	-2.77941000E-05
		 4.07580000E-04	-1.40645000E-02	 1.66194000E-03
		 7.00833000E-04	-1.08086000E-02	 2.95114000E-03
		 8.23170000E-06	-1.36475000E-02	-5.29355000E-06
		 8.32354000E-04	-1.37277000E-02	 3.46468000E-03
		 8.37085000E-06	-9.96465000E-03	 6.36404000E-06
		 4.50239000E-04	-1.32377000E-02	 1.70757000E-03
		 8.29173000E-04	-1.00761000E-02	 3.02196000E-03
		-7.65152000E-04	-1.41438000E-02	-3.51889000E-03
		-8.80756000E-04	-1.32530000E-02	-3.45126000E-03
		-7.15678000E-04	-1.07903000E-02	-3.04228000E-03
		-3.74719000E-04	-1.40456000E-02	-1.73060000E-03
		-8.11704000E-04	-1.36942000E-02	-3.48946000E-03
		-7.95552000E-04	-1.00117000E-02	-2.99776000E-03
		-4.39681000E-04	-1.32382000E-02	-1.71694000E-03
		 2.05772000E-05	-1.22843000E-02	 7.85102000E-05
		 1.07530000E-03	-1.22695000E-02	 3.49561000E-03
		 1.11725000E-05	-1.27464000E-02	 1.85436000E-05
		 1.00605000E-03	-1.28257000E-02	 3.48444000E-03
		 1.77819000E-05	-9.10529000E-03	 5.22968000E-05
		 5.03954000E-04	-1.22615000E-02	 1.76041000E-03
		 9.89609000E-04	-9.12168000E-03	 3.06443000E-03
		-1.04005000E-03	-1.22477000E-02	-3.41881000E-03
		-9.51251000E-04	-1.27822000E-02	-3.43832000E-03
		-9.81232000E-04	-9.11290000E-03	-2.97641000E-03
		-4.92495000E-04	-1.22547000E-02	-1.66383000E-03
		 2.98480000E-05	-2.10639000E-02	 4.87046000E-05
		 3.05931000E-04	-2.11761000E-02	 3.97051000E-03
		 1.40775000E-05	-2.08697000E-02	-2.16879000E-05
		 2.00678000E-04	-2.08755000E-02	 3.86820000E-03
		 3.62384000E-05	-1.75057000E-02	-1.33873000E-05
		 1.47110000E-04	-2.11096000E-02	 2.08559000E-03
		 6.10644000E-04	-1.76259000E-02	 3.73257000E-03
		 1.19396000E-05	-2.09453000E-02	 2.28466000E-06
		 2.57062000E-04	-2.09939000E-02	 3.83098000E-03
		 3.71392000E-05	-1.69335000E-02	-3.29712000E-06
		 1.14100000E-04	-2.08751000E-02	 1.95336000E-03
		 6.65047000E-04	-1.70211000E-02	 3.78601000E-03
		-2.22293000E-04	-2.11298000E-02	-3.84982000E-03
		-2.15419000E-04	-2.08873000E-02	-3.94549000E-03
		-5.13378000E-04	-1.75444000E-02	-3.73120000E-03
		-8.40130000E-05	-2.10845000E-02	-1.99969000E-03
		-2.11491000E-04	-2.09779000E-02	-3.82075000E-03
		-5.60287000E-04	-1.69588000E-02	-3.76121000E-03
		-7.82476000E-05	-2.08557000E-02	-1.99496000E-03
		 5.12572000E-06	-2.06268000E-02	-1.44912000E-04
		 2.96904000E-04	-2.06458000E-02	 3.82677000E-03
		 1.00582000E-05	-2.07575000E-02	-6.95793000E-05
		 2.49156000E-04	-2.07709000E-02	 3.88647000E-03
		 4.23892000E-05	-1.63074000E-02	-3.07429000E-05
		 1.47422000E-04	-2.06248000E-02	 1.80539000E-03
		 7.24031000E-04	-1.62921000E-02	 3.74924000E-03
		-2.48824000E-04	-2.05895000E-02	-3.99886000E-03
		-2.06442000E-04	-2.07588000E-02	-4.05053000E-03
		-6.38234000E-04	-1.62605000E-02	-3.74756000E-03
		-1.46078000E-04	-2.06118000E-02	-1.94939000E-03
		 6.27064000E-05	-2.79549000E-02	-4.96368000E-05
		-1.05026000E-03	-2.80094000E-02	 4.33349000E-03
		 7.24223000E-05	-2.89726000E-02	-4.28188000E-05
		-8.38819000E-04	-2.90463000E-02	 4.35197000E-03
		 1.13332000E-05	-2.43945000E-02	-1.80426000E-05
		-4.79163000E-04	-2.79743000E-02	 2.21232000E-03
		-4.19141000E-04	-2.44694000E-02	 4.08503000E-03
		 8.31201000E-05	-2.85131000E-02	-4.90434000E-05
		-9.37903000E-04	-2.85486000E-02	 4.30819000E-03
		 3.28757000E-05	-2.48120000E-02	-3.56144000E-05
		-3.92460000E-04	-2.89992000E-02	 2.13417000E-03
		-3.49598000E-04	-2.48242000E-02	 4.02943000E-03
		 1.16754000E-03	-2.79150000E-02	-4.47373000E-03
		 1.02781000E-03	-2.89657000E-02	-4.47512000E-03
		 4.82703000E-04	-2.44132000E-02	-4.13053000E-03
		 5.50278000E-04	-2.79414000E-02	-2.33164000E-03
		 1.07936000E-03	-2.85419000E-02	-4.39311000E-03
		 3.82394000E-04	-2.48116000E-02	-4.16435000E-03
		 5.16352000E-04	-2.89459000E-02	-2.25795000E-03
		 5.05046000E-05	-2.98399000E-02	-3.07331000E-05
		-7.65964000E-04	-2.98594000E-02	 4.31132000E-03
		 4.15628000E-05	-2.94161000E-02	-4.34907000E-05
		-7.89250000E-04	-2.94886000E-02	 4.45865000E-03
		 4.56553000E-05	-2.50970000E-02	-5.26917000E-05
		-3.26671000E-04	-2.98173000E-02	 2.07543000E-03
		-2.62005000E-04	-2.51680000E-02	 3.99829000E-03
		 9.02330000E-04	-2.99045000E-02	-4.42758000E-03
		 9.46784000E-04	-2.94497000E-02	-4.51667000E-03
		 3.29680000E-04	-2.51333000E-02	-4.20717000E-03
		 4.78016000E-04	-2.98697000E-02	-2.22542000E-03
		 6.45046000E-05	-3.78336000E-02	-1.95022000E-04
		-8.49788000E-04	-3.77961000E-02	 4.81989000E-03
		 3.39754000E-05	-3.86550000E-02	-1.52714000E-04
		-8.21530000E-04	-3.86565000E-02	 4.87754000E-03
		 2.61269000E-05	-3.26905000E-02	-9.46861000E-05
		-3.81735000E-04	-3.78127000E-02	 2.27279000E-03
		-1.07980000E-03	-3.26395000E-02	 4.64710000E-03
		 5.33111000E-05	-3.82645000E-02	-1.51820000E-04
		-8.58720000E-04	-3.83036000E-02	 4.83774000E-03
		 2.14639000E-05	-3.36769000E-02	-9.84121000E-05
		-3.76564000E-04	-3.86525000E-02	 2.33663000E-03
		-8.66628000E-04	-3.37196000E-02	 4.65746000E-03
		 8.50745000E-04	-3.78211000E-02	-5.09156000E-03
		 8.62638000E-04	-3.86138000E-02	-5.06316000E-03
		 1.09463000E-03	-3.26896000E-02	-4.84836000E-03
		 4.67800000E-04	-3.78173000E-02	-2.58591000E-03
		 8.54892000E-04	-3.82196000E-02	-5.08217000E-03
		 9.70721000E-04	-3.36841000E-02	-4.87186000E-03
		 4.56789000E-04	-3.86331000E-02	-2.58032000E-03
		 5.10140000E-05	-3.94558000E-02	-9.22740000E-05
		-7.11464000E-04	-3.95880000E-02	 4.90905000E-03
		 4.70044000E-05	-3.90513000E-02	-1.04848000E-04
		-7.49809000E-04	-3.91469000E-02	 4.82601000E-03
		 1.83266000E-05	-3.45643000E-02	-9.13674000E-05
		-3.73618000E-04	-3.95246000E-02	 2.38253000E-03
		-8.46145000E-04	-3.45967000E-02	 4.69250000E-03
		 9.58004000E-04	-3.95483000E-02	-4.96559000E-03
		 9.20158000E-04	-3.90503000E-02	-5.02660000E-03
		 9.33639000E-04	-3.45595000E-02	-4.79377000E-03
		 4.75569000E-04	-3.94967000E-02	-2.47447000E-03
		 8.50438000E-05	-4.80653000E-02	-6.63424000E-05
		-5.48478000E-04	-4.81070000E-02	 4.58453000E-03
		 8.42906000E-05	-4.87712000E-02	-1.23556000E-04
		-7.12271000E-04	-4.86914000E-02	 4.69229000E-03
		 1.13786000E-04	-4.30005000E-02	-1.35271000E-04
		-2.74217000E-04	-4.80806000E-02	 2.25843000E-03
		-7.00373000E-04	-4.29987000E-02	 4.73468000E-03
		 1.05472000E-04	-4.83469000E-02	-1.01381000E-04
		-6.21822000E-04	-4.83179000E-02	 4.69521000E-03
		 1.02605000E-04	-4.37979000E-02	-1.19226000E-04
		-3.39355000E-04	-4.87665000E-02	 2.24977000E-03
		-6.88167000E-04	-4.37886000E-02	 4.87425000E-03
		 9.81034000E-04	-4.79061000E-02	-4.73443000E-03
		 8.32340000E-04	-4.85529000E-02	-4.86133000E-03
		 9.41763000E-04	-4.28084000E-02	-4.96834000E-03
		 4.27027000E-04	-4.80365000E-02	-2.44352000E-03
		 9.02958000E-04	-4.82864000E-02	-4.83350000E-03
		 8.61050000E-04	-4.37291000E-02	-4.99945000E-03
		 4.52981000E-04	-4.86339000E-02	-2.44683000E-03
		 2.24647000E-05	-4.95641000E-02	-1.45520000E-04
		-8.20240000E-04	-4.95533000E-02	 4.45730000E-03
		 2.97952000E-05	-4.91371000E-02	-1.29629000E-04
		-7.58375000E-04	-4.90588000E-02	 4.64018000E-03
		 1.00580000E-04	-4.45289000E-02	-7.55782000E-05
		-3.24905000E-04	-4.95435000E-02	 2.18934000E-03
		-6.84119000E-04	-4.45670000E-02	 4.76994000E-03
		 6.80098000E-04	-4.94652000E-02	-4.87882000E-03
		 7.50457000E-04	-4.90917000E-02	-4.79786000E-03
		 9.03580000E-04	-4.45227000E-02	-5.02909000E-03
		 4.63035000E-04	-4.95489000E-02	-2.57618000E-03
		-1.66159000E-04	-5.67303000E-02	-6.70021000E-05
		-1.34342000E-03	-5.62136000E-02	 4.49387000E-03
		 1.52398000E-04	-5.77686000E-02	-2.85524000E-04
		-8.19327000E-04	-5.71654000E-02	 3.88493000E-03
		 1.02558000E-04	-5.24751000E-02	-4.42535000E-06
		-7.50457000E-04	-5.64671000E-02	 2.34383000E-03
		-6.40253000E-04	-5.24331000E-02	 4.36958000E-03
		-2.18660000E-05	-5.73002000E-02	-2.09711000E-04
		-1.06518000E-03	-5.69115000E-02	 4.03625000E-03
		 6.94345000E-05	-5.33185000E-02	-2.05257000E-04
		-3.16945000E-04	-5.74399000E-02	 1.95246000E-03
		-7.84326000E-04	-5.32478000E-02	 4.27794000E-03
		 4.04568000E-04	-5.73996000E-02	-4.53803000E-03
		 7.93092000E-04	-5.76850000E-02	-4.58348000E-03
		 7.30943000E-04	-5.24957000E-02	-4.61651000E-03
		 2.98151000E-04	-5.70678000E-02	-2.28636000E-03
		 6.28387000E-04	-5.73956000E-02	-4.58433000E-03
		 8.17145000E-04	-5.33335000E-02	-4.75349000E-03
		 4.80893000E-04	-5.77473000E-02	-2.50040000E-03
		 5.71423000E-04	-5.84955000E-02	 1.89457000E-04
		-2.77593000E-04	-5.82300000E-02	 4.73630000E-03
		 3.73832000E-04	-5.81087000E-02	-8.56292000E-05
		-5.58271000E-04	-5.77609000E-02	 4.08389000E-03
		-2.57215000E-06	-5.39777000E-02	-5.99230000E-05
		 1.51102000E-04	-5.84349000E-02	 2.41378000E-03
		-9.41874000E-04	-5.40375000E-02	 4.58821000E-03
		 1.08426000E-03	-5.88941000E-02	-4.78623000E-03
		 9.19482000E-04	-5.82394000E-02	-4.79120000E-03
		 8.31010000E-04	-5.38450000E-02	-4.71226000E-03
		 7.52030000E-04	-5.86702000E-02	-2.23371000E-03
		 0.00000000E+00	 0.00000000E+00	 0.00000000E+00
		 0.00000000E+00	 0.00000000E+00	 0.00000000E+00
		 5.79384000E-05	-1.57386000E-02	-4.08421000E-04
		-2.79252000E-03	-1.68945000E-02	 1.56540000E-02
		 0.00000000E+00	 0.00000000E+00	 0.00000000E+00
		 0.00000000E+00	 0.00000000E+00	 0.00000000E+00
		-1.42461000E-06	-1.73470000E-02	-3.80750000E-04
		-6.13937000E-04	-1.86450000E-02	 1.57555000E-02
		 0.00000000E+00	 0.00000000E+00	 0.00000000E+00
		 4.51423000E-05	-3.07004000E-03	-8.62136000E-05
		-1.34042000E-03	-1.59392000E-02	 7.54756000E-03
		-2.69903000E-03	-4.51429000E-03	 7.85588000E-03
		 0.00000000E+00	 0.00000000E+00	 0.00000000E+00
		 0.00000000E+00	 0.00000000E+00	 0.00000000E+00
		 5.20299000E-05	-1.69250000E-02	-4.05319000E-04
		-1.70140000E-03	-1.81790000E-02	 1.56420000E-02
		 0.00000000E+00	 0.00000000E+00	 0.00000000E+00
		-1.71979000E-05	-4.48156000E-03	-1.15998000E-04
		-3.05266000E-04	-1.76027000E-02	 7.49772000E-03
		-2.72680000E-04	-5.87034000E-03	 7.63060000E-03
		 0.00000000E+00	 0.00000000E+00	 0.00000000E+00
		 2.72341000E-03	-1.64289000E-02	-1.64068000E-02
		 0.00000000E+00	 0.00000000E+00	 0.00000000E+00
		 5.04320000E-04	-1.80851000E-02	-1.66444000E-02
		 0.00000000E+00	 0.00000000E+00	 0.00000000E+00
		 2.74703000E-03	-4.38771000E-03	-8.14456000E-03
		 1.36887000E-03	-1.57250000E-02	-8.28771000E-03
		 0.00000000E+00	 0.00000000E+00	 0.00000000E+00
		 1.59610000E-03	-1.76571000E-02	-1.65325000E-02
		 0.00000000E+00	 0.00000000E+00	 0.00000000E+00
		 3.13822000E-04	-5.71502000E-03	-7.91364000E-03
		 2.40417000E-04	-1.73205000E-02	-8.32484000E-03
		 0.00000000E+00	 0.00000000E+00	 0.00000000E+00
		 0.00000000E+00	 0.00000000E+00	 0.00000000E+00
		-6.75802000E-05	-1.68310000E-02	-4.28570000E-04
		 1.60802000E-03	-1.79464000E-02	 1.56560000E-02
		 0.00000000E+00	 0.00000000E+00	 0.00000000E+00
		 0.00000000E+00	 0.00000000E+00	 0.00000000E+00
		-4.60361000E-05	-1.74364000E-02	-4.18381000E-04
		 4.68634000E-04	-1.87421000E-02	 1.57348000E-02
		 0.00000000E+00	 0.00000000E+00	 0.00000000E+00
		-5.18558000E-05	-3.64202000E-03	-1.92088000E-04
		 7.13231000E-04	-1.70400000E-02	 7.46635000E-03
		 2.15002000E-03	-5.03611000E-03	 7.87733000E-03
		 0.00000000E+00	 0.00000000E+00	 0.00000000E+00
		-1.75430000E-03	-1.73336000E-02	-1.63673000E-02
		 0.00000000E+00	 0.00000000E+00	 0.00000000E+00
		-5.97061000E-04	-1.81069000E-02	-1.65787000E-02
		 0.00000000E+00	 0.00000000E+00	 0.00000000E+00
		-2.19684000E-03	-4.92289000E-03	-8.14368000E-03
		-9.04090000E-04	-1.67306000E-02	-8.18183000E-03
		 5.60474000E-05	-6.32558000E-02	-1.70894000E-03
		-2.78623000E-03	-6.48692000E-02	 2.71489000E-02
		-4.77661000E-06	-6.52651000E-02	-1.76795000E-03
		-1.25525000E-03	-6.69124000E-02	 2.71052000E-02
		-1.10986000E-05	-3.62189000E-02	-8.68302000E-04
		-1.39698000E-03	-6.38938000E-02	 1.25387000E-02
		-2.78036000E-03	-3.77667000E-02	 2.21170000E-02
		 1.12330000E-06	-6.44483000E-02	-1.74443000E-03
		-1.99712000E-03	-6.60131000E-02	 2.70904000E-02
		-4.25675000E-05	-3.80583000E-02	-9.35824000E-04
		-6.27176000E-04	-6.59189000E-02	 1.25399000E-02
		-9.32649000E-04	-3.96064000E-02	 2.21422000E-02
		 2.66726000E-03	-6.32688000E-02	-3.05992000E-02
		 1.15881000E-03	-6.51251000E-02	-3.06921000E-02
		 2.75107000E-03	-3.66745000E-02	-2.39203000E-02
		 1.37223000E-03	-6.30901000E-02	-1.59093000E-02
		 1.94531000E-03	-6.43501000E-02	-3.06369000E-02
		 8.33804000E-04	-3.84752000E-02	-2.41484000E-02
		 5.86142000E-04	-6.50420000E-02	-1.60410000E-02
		-9.78272000E-05	-6.57971000E-02	-1.62473000E-03
		 2.72457000E-04	-6.72193000E-02	 2.70605000E-02
		-4.84824000E-05	-6.56673000E-02	-1.72313000E-03
		-5.10766000E-04	-6.72586000E-02	 2.72186000E-02
		-9.80171000E-05	-3.80639000E-02	-8.69978000E-04
		 1.19186000E-04	-6.63223000E-02	 1.24073000E-02
		 1.04598000E-03	-3.94155000E-02	 2.20878000E-02
		-3.01297000E-04	-6.56987000E-02	-3.06693000E-02
		 4.15140000E-04	-6.55781000E-02	-3.07793000E-02
		-1.05460000E-03	-3.84177000E-02	-2.39783000E-02
		-1.98391000E-04	-6.55725000E-02	-1.58761000E-02
		 8.41044000E-05	-1.31029000E-01	-4.10176000E-03
		-2.66017000E-03	-1.32574000E-01	 3.23948000E-02
		 1.38250000E-04	-1.33456000E-01	-4.16325000E-03
		-1.81451000E-03	-1.35323000E-01	 3.25127000E-02
		 8.53514000E-05	-9.51965000E-02	-2.73906000E-03
		-1.27215000E-03	-1.31686000E-01	 1.40876000E-02
		-2.83570000E-03	-9.69702000E-02	 3.04186000E-02
		 1.22117000E-04	-1.32346000E-01	-4.13750000E-03
		-2.23125000E-03	-1.34115000E-01	 3.24350000E-02
		 4.31719000E-05	-9.74942000E-02	-2.81711000E-03
		-8.67497000E-04	-1.34236000E-01	 1.40729000E-02
		-1.66099000E-03	-9.91989000E-02	 3.04384000E-02
		 3.04723000E-03	-1.30118000E-01	-4.07962000E-02
		 2.18215000E-03	-1.32648000E-01	-4.08818000E-02
		 2.80268000E-03	-9.48024000E-02	-3.61704000E-02
		 1.61196000E-03	-1.30464000E-01	-2.24230000E-02
		 2.60713000E-03	-1.31433000E-01	-4.07820000E-02
		 1.69763000E-03	-9.69427000E-02	-3.61415000E-02
		 1.11742000E-03	-1.32948000E-01	-2.24289000E-02
		 7.90729000E-05	-1.35038000E-01	-4.03386000E-03
		-1.12539000E-03	-1.37211000E-01	 3.24648000E-02
		 1.11927000E-04	-1.34389000E-01	-4.12036000E-03
		-1.47381000E-03	-1.36203000E-01	 3.25948000E-02
		 1.81769000E-05	-9.85554000E-02	-2.76361000E-03
		-4.03604000E-04	-1.36000000E-01	 1.40199000E-02
		-6.53778000E-04	-1.00406000E-01	 3.04059000E-02
		 1.23053000E-03	-1.34201000E-01	-4.08487000E-02
		 1.72070000E-03	-1.33518000E-01	-4.09580000E-02
		 4.42244000E-04	-9.80195000E-02	-3.61027000E-02
		 6.46037000E-04	-1.34542000E-01	-2.22599000E-02
		 6.35233000E-04	-2.11175000E-01	-7.36944000E-03
		-1.72011000E-03	-2.12651000E-01	 3.37365000E-02
		 5.87616000E-04	-2.13267000E-01	-7.40542000E-03
		-1.38825000E-03	-2.15572000E-01	 3.37180000E-02
		 3.53502000E-04	-1.69968000E-01	-5.62465000E-03
		-4.96994000E-04	-2.11861000E-01	 1.29557000E-02
		-2.32079000E-03	-1.71792000E-01	 3.35156000E-02
		 5.98899000E-04	-2.12228000E-01	-7.41202000E-03
		-1.52127000E-03	-2.14153000E-01	 3.38534000E-02
		 3.45015000E-04	-1.72301000E-01	-5.72367000E-03
		-2.32869000E-04	-2.14364000E-01	 1.30379000E-02
		-1.69255000E-03	-1.74105000E-01	 3.35896000E-02
		 2.82346000E-03	-2.09636000E-01	-4.84363000E-02
		 2.13274000E-03	-2.11700000E-01	-4.85704000E-02
		 3.05717000E-03	-1.68650000E-01	-4.48976000E-02
		 1.60381000E-03	-2.10397000E-01	-2.77255000E-02
		 2.47250000E-03	-2.10839000E-01	-4.86431000E-02
		 2.30366000E-03	-1.71060000E-01	-4.49842000E-02
		 1.39785000E-03	-2.12421000E-01	-2.78391000E-02
		 3.31728000E-04	-2.14964000E-01	-7.48226000E-03
		-9.40107000E-04	-2.17848000E-01	 3.36760000E-02
		 4.70398000E-04	-2.14167000E-01	-7.43077000E-03
		-1.12947000E-03	-2.17253000E-01	 3.36278000E-02
		 3.18044000E-04	-1.73998000E-01	-5.81796000E-03
		-4.97767000E-04	-2.16323000E-01	 1.31103000E-02
		-9.42229000E-04	-1.75840000E-01	 3.35921000E-02
		 1.80252000E-03	-2.13277000E-01	-4.84870000E-02