# vtk DataFile Version 3.0

ASCII
DATASET UNSTRUCTURED_GRID

POINTS 522 double
	 1.00000000E+00	 1.00000000E+00	-5.96046000E-08
	 1.00000000E+00	 5.00000000E-01	-5.96046000E-08
	 1.00000000E+00	 5.00000000E-01	 1.00000000E+00
	 1.00000000E+00	 1.00000000E+00	 1.00000000E+00
	 5.00000000E-01	 1.00000000E+00	-5.96046000E-08
	 5.00000000E-01	 5.00000000E-01	-5.96046000E-08
	 5.00000000E-01	 5.00000000E-01	 1.00000000E+00
	 5.00000000E-01	 1.00000000E+00	 1.00000000E+00
	 1.00000000E+00	 7.50000000E-01	-5.96046000E-08
	 1.00000000E+00	 5.00000000E-01	 5.00000000E-01
	 1.00000000E+00	 7.50000000E-01	 1.00000000E+00
	 1.00000000E+00	 1.00000000E+00	 5.00000000E-01
	 7.50000000E-01	 1.00000000E+00	-5.96046000E-08
	 7.50000000E-01	 5.00000000E-01	-5.96046000E-08
	 7.50000000E-01	 5.00000000E-01	 1.00000000E+00
	 7.50000000E-01	 1.00000000E+00	 1.00000000E+00
	 5.00000000E-01	 7.50000000E-01	-5.96046000E-08
	 5.00000000E-01	 5.00000000E-01	 5.00000000E-01
	 5.00000000E-01	 7.50000000E-01	 1.00000000E+00
	 5.00000000E-01	 1.00000000E+00	 5.00000000E-01
	 1.00000000E+00	-1.49012000E-08	-5.96046000E-08
	 1.00000000E+00	-1.49012000E-08	 1.00000000E+00
	 5.00000000E-01	-1.49012000E-08	-5.96046000E-08
	 5.00000000E-01	-1.49012000E-08	 1.00000000E+00
	 1.00000000E+00	 2.50000000E-01	-5.96046000E-08
	 1.00000000E+00	-1.49012000E-08	 5.00000000E-01
	 1.00000000E+00	 2.50000000E-01	 1.00000000E+00
	 7.50000000E-01	-1.49012000E-08	-5.96046000E-08
	 7.50000000E-01	-1.49012000E-08	 1.00000000E+00
	 5.00000000E-01	 2.50000000E-01	-5.96046000E-08
	 5.00000000E-01	-1.49012000E-08	 5.00000000E-01
	 5.00000000E-01	 2.50000000E-01	 1.00000000E+00
	-7.45058000E-09	 1.00000000E+00	-5.96046000E-08
	-7.45058000E-09	 5.00000000E-01	-5.96046000E-08
	-7.45058000E-09	 5.00000000E-01	 1.00000000E+00
	-7.45058000E-09	 1.00000000E+00	 1.00000000E+00
	 2.50000000E-01	 1.00000000E+00	-5.96046000E-08
	 2.50000000E-01	 5.00000000E-01	-5.96046000E-08
	 2.50000000E-01	 5.00000000E-01	 1.00000000E+00
	 2.50000000E-01	 1.00000000E+00	 1.00000000E+00
	-7.45058000E-09	 7.50000000E-01	-5.96046000E-08
	-7.45058000E-09	 5.00000000E-01	 5.00000000E-01
	-7.45058000E-09	 7.50000000E-01	 1.00000000E+00
	-7.45058000E-09	 1.00000000E+00	 5.00000000E-01
	-7.45058000E-09	-1.49012000E-08	-5.96046000E-08
	-7.45058000E-09	-1.49012000E-08	 1.00000000E+00
	 2.50000000E-01	-1.49012000E-08	-5.96046000E-08
	 2.50000000E-01	-1.49012000E-08	 1.00000000E+00
	-7.45058000E-09	 2.50000000E-01	-5.96046000E-08
	-7.45058000E-09	-1.49012000E-08	 5.00000000E-01
	-7.45058000E-09	 2.50000000E-01	 1.00000000E+00
	 1.00000000E+00	 5.00000000E-01	 2.00000000E+00
	 1.00000000E+00	 1.00000000E+00	 2.00000000E+00
	 5.00000000E-01	 5.00000000E-01	 2.00000000E+00
	 5.00000000E-01	 1.00000000E+00	 2.00000000E+00
	 1.00000000E+00	 5.00000000E-01	 1.50000000E+00
	 1.00000000E+00	 7.50000000E-01	 2.00000000E+00
	 1.00000000E+00	 1.00000000E+00	 1.50000000E+00
	 7.50000000E-01	 5.00000000E-01	 2.00000000E+00
	 7.50000000E-01	 1.00000000E+00	 2.00000000E+00
	 5.00000000E-01	 5.00000000E-01	 1.50000000E+00
	 5.00000000E-01	 7.50000000E-01	 2.00000000E+00
	 5.00000000E-01	 1.00000000E+00	 1.50000000E+00
	 1.00000000E+00	-1.49012000E-08	 2.00000000E+00
	 5.00000000E-01	-1.49012000E-08	 2.00000000E+00
	 1.00000000E+00	-1.49012000E-08	 1.50000000E+00
	 1.00000000E+00	 2.50000000E-01	 2.00000000E+00
	 7.50000000E-01	-1.49012000E-08	 2.00000000E+00
	 5.00000000E-01	-1.49012000E-08	 1.50000000E+00
	 5.00000000E-01	 2.50000000E-01	 2.00000000E+00
	-7.45058000E-09	 5.00000000E-01	 2.00000000E+00
	-7.45058000E-09	 1.00000000E+00	 2.00000000E+00
	 2.50000000E-01	 5.00000000E-01	 2.00000000E+00
	 2.50000000E-01	 1.00000000E+00	 2.00000000E+00
	-7.45058000E-09	 5.00000000E-01	 1.50000000E+00
	-7.45058000E-09	 7.50000000E-01	 2.00000000E+00
	-7.45058000E-09	 1.00000000E+00	 1.50000000E+00
	-7.45058000E-09	-1.49012000E-08	 2.00000000E+00
	 2.50000000E-01	-1.49012000E-08	 2.00000000E+00
	-7.45058000E-09	-1.49012000E-08	 1.50000000E+00
	-7.45058000E-09	 2.50000000E-01	 2.00000000E+00
	 1.00000000E+00	 5.00000000E-01	 3.00000000E+00
	 1.00000000E+00	 1.00000000E+00	 3.00000000E+00
	 5.00000000E-01	 5.00000000E-01	 3.00000000E+00
	 5.00000000E-01	 1.00000000E+00	 3.00000000E+00
	 1.00000000E+00	 5.00000000E-01	 2.50000000E+00
	 1.00000000E+00	 7.50000000E-01	 3.00000000E+00
	 1.00000000E+00	 1.00000000E+00	 2.50000000E+00
	 7.50000000E-01	 5.00000000E-01	 3.00000000E+00
	 7.50000000E-01	 1.00000000E+00	 3.00000000E+00
	 5.00000000E-01	 5.00000000E-01	 2.50000000E+00
	 5.00000000E-01	 7.50000000E-01	 3.00000000E+00
	 5.00000000E-01	 1.00000000E+00	 2.50000000E+00
	 1.00000000E+00	-1.49012000E-08	 3.00000000E+00
	 5.00000000E-01	-1.49012000E-08	 3.00000000E+00
	 1.00000000E+00	-1.49012000E-08	 2.50000000E+00
	 1.00000000E+00	 2.50000000E-01	 3.00000000E+00
	 7.50000000E-01	-1.49012000E-08	 3.00000000E+00
	 5.00000000E-01	-1.49012000E-08	 2.50000000E+00
	 5.00000000E-01	 2.50000000E-01	 3.00000000E+00
	-7.45058000E-09	 5.00000000E-01	 3.00000000E+00
	-7.45058000E-09	 1.00000000E+00	 3.00000000E+00
	 2.50000000E-01	 5.00000000E-01	 3.00000000E+00
	 2.50000000E-01	 1.00000000E+00	 3.00000000E+00
	-7.45058000E-09	 5.00000000E-01	 2.50000000E+00
	-7.45058000E-09	 7.50000000E-01	 3.00000000E+00
	-7.45058000E-09	 1.00000000E+00	 2.50000000E+00
	-7.45058000E-09	-1.49012000E-08	 3.00000000E+00
	 2.50000000E-01	-1.49012000E-08	 3.00000000E+00
	-7.45058000E-09	-1.49012000E-08	 2.50000000E+00
	-7.45058000E-09	 2.50000000E-01	 3.00000000E+00
	 1.00000000E+00	 5.00000000E-01	 4.00000000E+00
	 1.00000000E+00	 1.00000000E+00	 4.00000000E+00
	 5.00000000E-01	 5.00000000E-01	 4.00000000E+00
	 5.00000000E-01	 1.00000000E+00	 4.00000000E+00
	 1.00000000E+00	 5.00000000E-01	 3.50000000E+00
	 1.00000000E+00	 7.50000000E-01	 4.00000000E+00
	 1.00000000E+00	 1.00000000E+00	 3.50000000E+00
	 7.50000000E-01	 5.00000000E-01	 4.00000000E+00
	 7.50000000E-01	 1.00000000E+00	 4.00000000E+00
	 5.00000000E-01	 5.00000000E-01	 3.50000000E+00
	 5.00000000E-01	 7.50000000E-01	 4.00000000E+00
	 5.00000000E-01	 1.00000000E+00	 3.50000000E+00
	 1.00000000E+00	-1.49012000E-08	 4.00000000E+00
	 5.00000000E-01	-1.49012000E-08	 4.00000000E+00
	 1.00000000E+00	-1.49012000E-08	 3.50000000E+00
	 1.00000000E+00	 2.50000000E-01	 4.00000000E+00
	 7.50000000E-01	-1.49012000E-08	 4.00000000E+00
	 5.00000000E-01	-1.49012000E-08	 3.50000000E+00
	 5.00000000E-01	 2.50000000E-01	 4.00000000E+00
	-7.45058000E-09	 5.00000000E-01	 4.00000000E+00
	-7.45058000E-09	 1.00000000E+00	 4.00000000E+00
	 2.50000000E-01	 5.00000000E-01	 4.00000000E+00
	 2.50000000E-01	 1.00000000E+00	 4.00000000E+00
	-7.45058000E-09	 5.00000000E-01	 3.50000000E+00
	-7.45058000E-09	 7.50000000E-01	 4.00000000E+00
	-7.45058000E-09	 1.00000000E+00	 3.50000000E+00
	-7.45058000E-09	-1.49012000E-08	 4.00000000E+00
	 2.50000000E-01	-1.49012000E-08	 4.00000000E+00
	-7.45058000E-09	-1.49012000E-08	 3.50000000E+00
	-7.45058000E-09	 2.50000000E-01	 4.00000000E+00
	 1.00000000E+00	 5.00000000E-01	 5.00000000E+00
	 1.00000000E+00	 1.00000000E+00	 5.00000000E+00
	 5.00000000E-01	 5.00000000E-01	 5.00000000E+00
	 5.00000000E-01	 1.00000000E+00	 5.00000000E+00
	 1.00000000E+00	 5.00000000E-01	 4.50000000E+00
	 1.00000000E+00	 7.50000000E-01	 5.00000000E+00
	 1.00000000E+00	 1.00000000E+00	 4.50000000E+00
	 7.50000000E-01	 5.00000000E-01	 5.00000000E+00
	 7.50000000E-01	 1.00000000E+00	 5.00000000E+00
	 5.00000000E-01	 5.00000000E-01	 4.50000000E+00
	 5.00000000E-01	 7.50000000E-01	 5.00000000E+00
	 5.00000000E-01	 1.00000000E+00	 4.50000000E+00
	 1.00000000E+00	-1.49012000E-08	 5.00000000E+00
	 5.00000000E-01	-1.49012000E-08	 5.00000000E+00
	 1.00000000E+00	-1.49012000E-08	 4.50000000E+00
	 1.00000000E+00	 2.50000000E-01	 5.00000000E+00
	 7.50000000E-01	-1.49012000E-08	 5.00000000E+00
	 5.00000000E-01	-1.49012000E-08	 4.50000000E+00
	 5.00000000E-01	 2.50000000E-01	 5.00000000E+00
	-7.45058000E-09	 5.00000000E-01	 5.00000000E+00
	-7.45058000E-09	 1.00000000E+00	 5.00000000E+00
	 2.50000000E-01	 5.00000000E-01	 5.00000000E+00
	 2.50000000E-01	 1.00000000E+00	 5.00000000E+00
	-7.45058000E-09	 5.00000000E-01	 4.50000000E+00
	-7.45058000E-09	 7.50000000E-01	 5.00000000E+00
	-7.45058000E-09	 1.00000000E+00	 4.50000000E+00
	-7.45058000E-09	-1.49012000E-08	 5.00000000E+00
	 2.50000000E-01	-1.49012000E-08	 5.00000000E+00
	-7.45058000E-09	-1.49012000E-08	 4.50000000E+00
	-7.45058000E-09	 2.50000000E-01	 5.00000000E+00
	 1.00000000E+00	 5.00000000E-01	 6.00000000E+00
	 1.00000000E+00	 1.00000000E+00	 6.00000000E+00
	 5.00000000E-01	 5.00000000E-01	 6.00000000E+00
	 5.00000000E-01	 1.00000000E+00	 6.00000000E+00
	 1.00000000E+00	 5.00000000E-01	 5.50000000E+00
	 1.00000000E+00	 7.50000000E-01	 6.00000000E+00
	 1.00000000E+00	 1.00000000E+00	 5.50000000E+00
	 7.50000000E-01	 5.00000000E-01	 6.00000000E+00
	 7.50000000E-01	 1.00000000E+00	 6.00000000E+00
	 5.00000000E-01	 5.00000000E-01	 5.50000000E+00
	 5.00000000E-01	 7.50000000E-01	 6.00000000E+00
	 5.00000000E-01	 1.00000000E+00	 5.50000000E+00
	 1.00000000E+00	-1.49012000E-08	 6.00000000E+00
	 5.00000000E-01	-1.49012000E-08	 6.00000000E+00
	 1.00000000E+00	-1.49012000E-08	 5.50000000E+00
	 1.00000000E+00	 2.50000000E-01	 6.00000000E+00
	 7.50000000E-01	-1.49012000E-08	 6.00000000E+00
	 5.00000000E-01	-1.49012000E-08	 5.50000000E+00
	 5.00000000E-01	 2.50000000E-01	 6.00000000E+00
	-7.45058000E-09	 5.00000000E-01	 6.00000000E+00
	-7.45058000E-09	 1.00000000E+00	 6.00000000E+00
	 2.50000000E-01	 5.00000000E-01	 6.00000000E+00
	 2.50000000E-01	 1.00000000E+00	 6.00000000E+00
	-7.45058000E-09	 5.00000000E-01	 5.50000000E+00
	-7.45058000E-09	 7.50000000E-01	 6.00000000E+00
	-7.45058000E-09	 1.00000000E+00	 5.50000000E+00
	-7.45058000E-09	-1.49012000E-08	 6.00000000E+00
	 2.50000000E-01	-1.49012000E-08	 6.00000000E+00
	-7.45058000E-09	-1.49012000E-08	 5.50000000E+00
	-7.45058000E-09	 2.50000000E-01	 6.00000000E+00
	 1.00000000E+00	 5.00000000E-01	 7.00000000E+00
[...]
POINT_DATA 522
FIELD U 1
	U 3 522 double
		 0.00000000E+00	 0.00000000E+00	 0.00000000E+00
		 0.00000000E+00	 0.00000000E+00	 0.00000000E+00
		 6.28363000E-07	-3.24777000E-03	-1.76185000E-05
		 1.03264000E-03	-3.41003000E-03	 2.17614000E-03
		 0.00000000E+00	 0.00000000E+00	 0.00000000E+00
		 0.00000000E+00	 0.00000000E+00	 0.00000000E+00
		-1.50380000E-07	-2.03120000E-03	-1.35791000E-05
		 1.39281000E-03	-2.20722000E-03	 2.18579000E-03
		 0.00000000E+00	 0.00000000E+00	 0.00000000E+00
		 4.24873000E-06	-1.01583000E-03	-6.67951000E-06
		 5.17354000E-04	-3.27225000E-03	 9.72782000E-04
		 3.37366000E-04	-1.18048000E-03	 1.02586000E-03
		 0.00000000E+00	 0.00000000E+00	 0.00000000E+00
		 0.00000000E+00	 0.00000000E+00	 0.00000000E+00
		-8.06611000E-08	-2.69325000E-03	-1.63185000E-05
		 1.21306000E-03	-2.86524000E-03	 2.29692000E-03
		 0.00000000E+00	 0.00000000E+00	 0.00000000E+00
		 2.60736000E-06	-4.77498000E-04	-5.11316000E-06
		 6.94913000E-04	-2.06247000E-03	 1.09682000E-03
		 6.92477000E-04	-6.67824000E-04	 9.88537000E-04
		 0.00000000E+00	 0.00000000E+00	 0.00000000E+00
		-1.03252000E-03	-3.39937000E-03	-2.21285000E-03
		 0.00000000E+00	 0.00000000E+00	 0.00000000E+00
		-1.39460000E-03	-2.19506000E-03	-2.21529000E-03
		 0.00000000E+00	 0.00000000E+00	 0.00000000E+00
		-3.31109000E-04	-1.18114000E-03	-1.03922000E-03
		-5.16637000E-04	-3.26743000E-03	-1.00805000E-03
		 0.00000000E+00	 0.00000000E+00	 0.00000000E+00
		-1.21393000E-03	-2.85310000E-03	-2.33175000E-03
		 0.00000000E+00	 0.00000000E+00	 0.00000000E+00
		-6.89209000E-04	-6.66257000E-04	-9.98992000E-04
		-6.95597000E-04	-2.05620000E-03	-1.12461000E-03
		 0.00000000E+00	 0.00000000E+00	 0.00000000E+00
		 0.00000000E+00	 0.00000000E+00	 0.00000000E+00
		 6.29456000E-07	-4.59236000E-04	-8.51829000E-06
		 1.74209000E-03	-6.36115000E-04	 2.18433000E-03
		 0.00000000E+00	 0.00000000E+00	 0.00000000E+00
		 0.00000000E+00	 0.00000000E+00	 0.00000000E+00
		 1.64910000E-07	-1.30112000E-03	-1.05322000E-05
		 1.56524000E-03	-1.47249000E-03	 2.05036000E-03
		 0.00000000E+00	 0.00000000E+00	 0.00000000E+00
		 1.78760000E-06	 3.66800000E-04	-3.44707000E-06
		 8.75231000E-04	-4.93419000E-04	 1.23346000E-03
		 9.94928000E-04	 1.46500000E-04	 1.02818000E-03
		 0.00000000E+00	 0.00000000E+00	 0.00000000E+00
		-1.74236000E-03	-6.20085000E-04	-2.20451000E-03
		 0.00000000E+00	 0.00000000E+00	 0.00000000E+00
		-1.56704000E-03	-1.45933000E-03	-2.07345000E-03
		 0.00000000E+00	 0.00000000E+00	 0.00000000E+00
		-9.92911000E-04	 1.50934000E-04	-1.03634000E-03
		-8.74171000E-04	-4.83941000E-04	-1.25207000E-03
		-1.31943000E-05	-1.12135000E-02	-7.84836000E-05
		 2.12543000E-03	-1.14648000E-02	 4.83979000E-03
		-1.21469000E-05	-8.85349000E-03	-5.66750000E-05
		 2.56547000E-03	-9.10251000E-03	 4.85762000E-03
		-6.54665000E-06	-6.59413000E-03	-4.00448000E-05
		 1.05492000E-03	-1.12849000E-02	 2.33194000E-03
		 1.64534000E-03	-6.82620000E-03	 3.45659000E-03
		-1.36211000E-05	-1.00897000E-02	-6.85571000E-05
		 2.34546000E-03	-1.03372000E-02	 4.90635000E-03
		-6.88388000E-06	-4.75066000E-03	-2.91254000E-05
		 1.27855000E-03	-8.92301000E-03	 2.41209000E-03
		 2.04070000E-03	-4.97064000E-03	 3.45921000E-03
		-2.15439000E-03	-1.14142000E-02	-4.99963000E-03
		-2.59254000E-03	-9.04592000E-03	-4.97372000E-03
		-1.65875000E-03	-6.80013000E-03	-3.54061000E-03
		-1.08210000E-03	-1.12604000E-02	-2.48898000E-03
		-2.37433000E-03	-1.02828000E-02	-5.04706000E-03
		-2.05577000E-03	-4.94230000E-03	-3.52142000E-03
		-1.30318000E-03	-8.89525000E-03	-2.52603000E-03
		-5.41089000E-06	-6.05377000E-03	-3.09978000E-05
		 3.03208000E-03	-6.29165000E-03	 4.88880000E-03
		-9.36511000E-06	-7.50594000E-03	-4.38568000E-05
		 2.79908000E-03	-7.75498000E-03	 4.80894000E-03
		-3.23144000E-06	-2.49626000E-03	-1.60083000E-05
		 1.50911000E-03	-6.11741000E-03	 2.50377000E-03
		 2.46602000E-03	-2.70643000E-03	 3.48080000E-03
		-3.04654000E-03	-6.22484000E-03	-4.95292000E-03
		-2.82173000E-03	-7.69482000E-03	-4.89878000E-03
		-2.47482000E-03	-2.67106000E-03	-3.51664000E-03
		-1.52048000E-03	-6.08318000E-03	-2.56623000E-03
		-2.04048000E-05	-2.48344000E-02	-2.00833000E-04
		 2.79642000E-03	-2.51109000E-02	 7.67050000E-03
		-1.51324000E-05	-2.18168000E-02	-1.56371000E-04
		 3.19662000E-03	-2.20952000E-02	 7.72933000E-03
		-1.67340000E-05	-1.72775000E-02	-1.32684000E-04
		 1.38886000E-03	-2.49199000E-02	 3.67269000E-03
		 2.50752000E-03	-1.75420000E-02	 6.29488000E-03
		-1.79382000E-05	-2.33771000E-02	-1.79225000E-04
		 2.99731000E-03	-2.36548000E-02	 7.73411000E-03
		-1.37480000E-05	-1.45301000E-02	-9.87033000E-05
		 1.59202000E-03	-2.19032000E-02	 3.75760000E-03
		 2.95048000E-03	-1.47957000E-02	 6.33580000E-03
		-2.84657000E-03	-2.49719000E-02	-8.07721000E-03
		-3.23207000E-03	-2.19432000E-02	-8.04711000E-03
		-2.54741000E-03	-1.74516000E-02	-6.56194000E-03
		-1.43222000E-03	-2.48515000E-02	-4.07531000E-03
		-3.04080000E-03	-2.35071000E-02	-8.09791000E-03
		-2.98210000E-03	-1.46952000E-02	-6.53467000E-03
		-1.62357000E-03	-2.18263000E-02	-4.07154000E-03
		-6.01596000E-06	-1.84074000E-02	-1.05893000E-04
		 3.61666000E-03	-1.86774000E-02	 7.76664000E-03
		-1.14667000E-05	-2.01628000E-02	-1.32068000E-04
		 3.40529000E-03	-2.04392000E-02	 7.72989000E-03
		-5.93968000E-06	-1.13447000E-02	-5.92634000E-05
		 1.80392000E-03	-1.84904000E-02	 3.82059000E-03
		 3.41493000E-03	-1.16015000E-02	 6.37087000E-03
		-3.62932000E-03	-1.85191000E-02	-7.98313000E-03
		-3.43095000E-03	-2.02840000E-02	-7.99884000E-03
		-3.42889000E-03	-1.14923000E-02	-6.49025000E-03
		-1.81555000E-03	-1.84100000E-02	-4.03351000E-03
		-2.96911000E-05	-4.34198000E-02	-3.90355000E-04
		 2.98629000E-03	-4.36760000E-02	 9.67870000E-03
		-2.35852000E-05	-4.02803000E-02	-3.30484000E-04
		 3.25072000E-03	-4.05297000E-02	 9.74457000E-03
		-2.57222000E-05	-3.36754000E-02	-2.86355000E-04
		 1.47534000E-03	-4.35169000E-02	 4.63942000E-03
		 2.97194000E-03	-3.39437000E-02	 8.78599000E-03
		-2.66367000E-05	-4.18831000E-02	-3.60683000E-04
		 3.11912000E-03	-4.21317000E-02	 9.69959000E-03
		-2.00736000E-05	-3.05209000E-02	-2.33216000E-04
		 1.61494000E-03	-4.03740000E-02	 4.68910000E-03
		 3.29359000E-03	-3.07851000E-02	 8.85423000E-03
		-3.05308000E-03	-4.34590000E-02	-1.04664000E-02
		-3.30081000E-03	-4.03018000E-02	-1.04123000E-02
		-3.03252000E-03	-3.37633000E-02	-9.36738000E-03
		-1.53681000E-03	-4.34089000E-02	-5.42221000E-03
		-3.17817000E-03	-4.19088000E-02	-1.04274000E-02
		-3.33852000E-03	-3.05918000E-02	-9.32956000E-03
		-1.66281000E-03	-4.02605000E-02	-5.35179000E-03
		-1.25868000E-05	-3.68697000E-02	-2.62626000E-04
		 3.53603000E-03	-3.71172000E-02	 9.80617000E-03
		-1.92136000E-05	-3.86063000E-02	-2.98231000E-04
		 3.39270000E-03	-3.88566000E-02	 9.79409000E-03
		-1.03105000E-05	-2.70450000E-02	-1.73813000E-04
		 1.76197000E-03	-3.69605000E-02	 4.73453000E-03
		 3.63757000E-03	-2.73040000E-02	 8.89795000E-03
		-3.56007000E-03	-3.68861000E-02	-1.03383000E-02
		-3.43116000E-03	-3.86251000E-02	-1.03980000E-02
		-3.65912000E-03	-2.71051000E-02	-9.25468000E-03
		-1.78700000E-03	-3.68475000E-02	-5.26100000E-03
		-2.94115000E-05	-6.48021000E-02	-6.24712000E-04
		 2.50711000E-03	-6.50955000E-02	 1.11904000E-02
		-2.18921000E-05	-6.21216000E-02	-5.62318000E-04
		 2.80743000E-03	-6.24171000E-02	 1.12452000E-02
		-2.89203000E-05	-5.37926000E-02	-5.03285000E-04
		 1.23908000E-03	-6.49158000E-02	 5.35924000E-03
		 2.82041000E-03	-5.40684000E-02	 1.04256000E-02
		-2.58906000E-05	-6.34983000E-02	-5.94624000E-04
		 2.65579000E-03	-6.37908000E-02	 1.11606000E-02
		-2.14805000E-05	-5.08222000E-02	-4.41262000E-04
		 1.39380000E-03	-6.22361000E-02	 5.36329000E-03
		 3.08328000E-03	-5.10910000E-02	 1.04844000E-02
		-2.57434000E-03	-6.48022000E-02	-1.24456000E-02
		-2.85721000E-03	-6.21118000E-02	-1.23742000E-02
		-2.88552000E-03	-5.38148000E-02	-1.14368000E-02
		-1.30015000E-03	-6.47653000E-02	-6.61056000E-03
		-2.71522000E-03	-6.34933000E-02	-1.23551000E-02
		-3.12888000E-03	-5.08278000E-02	-1.13700000E-02
		-1.43927000E-03	-6.20812000E-02	-6.48938000E-03
		-1.07164000E-05	-5.91392000E-02	-4.92973000E-04
		 3.11505000E-03	-5.94403000E-02	 1.13238000E-02
		-1.68563000E-05	-6.06667000E-02	-5.27956000E-04
		 2.96200000E-03	-6.09665000E-02	 1.13266000E-02
		-9.94650000E-06	-4.75820000E-02	-3.70812000E-04
		 1.55269000E-03	-5.92548000E-02	 5.39353000E-03
		 3.36579000E-03	-4.78488000E-02	 1.05595000E-02
		-3.13921000E-03	-5.91267000E-02	-1.23131000E-02
		-2.99994000E-03	-6.06544000E-02	-1.23852000E-02
		-3.38265000E-03	-4.75845000E-02	-1.13032000E-02
		-1.57470000E-03	-5.90976000E-02	-6.38154000E-03
		-2.15720000E-05	-8.98280000E-02	-9.45645000E-04
		 1.87070000E-03	-9.01999000E-02	 1.31219000E-02
		-1.55611000E-05	-8.77354000E-02	-8.77595000E-04
		 2.25559000E-03	-8.81226000E-02	 1.31930000E-02
		-2.80941000E-05	-7.66784000E-02	-7.68028000E-04
		 9.28900000E-04	-8.99651000E-02	 6.11679000E-03
		 2.14126000E-03	-7.70079000E-02	 1.21127000E-02
		-1.99894000E-05	-8.88289000E-02	-9.14122000E-04
		 2.06218000E-03	-8.92119000E-02	 1.31271000E-02
		-2.35556000E-05	-7.43305000E-02	-7.02958000E-04
		 1.11947000E-03	-8.78776000E-02	 6.15956000E-03
		 2.49393000E-03	-7.46716000E-02	 1.21684000E-02
		-1.91019000E-03	-8.97954000E-02	-1.50337000E-02
		-2.29198000E-03	-8.77170000E-02	-1.49701000E-02
		-2.20189000E-03	-7.66641000E-02	-1.36607000E-02
		-9.71352000E-04	-8.97599000E-02	-8.01454000E-03
		-2.10043000E-03	-8.88109000E-02	-1.49752000E-02
		-2.54900000E-03	-7.43186000E-02	-1.35869000E-02
		-1.15185000E-03	-8.76761000E-02	-7.92037000E-03
		-3.76142000E-06	-8.52802000E-02	-7.89685000E-04
		 2.63117000E-03	-8.56789000E-02	 1.32781000E-02
		-9.93951000E-06	-8.65567000E-02	-8.35647000E-04
		 2.44160000E-03	-8.69488000E-02	 1.32630000E-02
		-1.38721000E-05	-7.16379000E-02	-6.27270000E-04
		 1.31465000E-03	-8.54298000E-02	 6.21661000E-03
		 2.84201000E-03	-7.19912000E-02	 1.22528000E-02
		-2.65345000E-03	-8.52523000E-02	-1.48799000E-02
		-2.47388000E-03	-8.65336000E-02	-1.49569000E-02
		-2.88225000E-03	-7.16185000E-02	-1.35204000E-02
		-1.32551000E-03	-8.52176000E-02	-7.80172000E-03
		 9.36225000E-06	-1.20775000E-01	-1.44665000E-03
		 2.07473000E-03	-1.21126000E-01	 1.46997000E-02
		 2.84089000E-05	-1.18610000E-01	-1.34986000E-03
		 2.28671000E-03	-1.18965000E-01	 1.48343000E-02
		-1.16348000E-05	-1.04589000E-01	-1.17164000E-03
		 1.04125000E-03	-1.20919000E-01	 6.53050000E-03
		 1.84324000E-03	-1.04949000E-01	 1.40669000E-02
		 1.55161000E-05	-1.19719000E-01	-1.39815000E-03
		 2.17769000E-03	-1.20073000E-01	 1.48071000E-02
		 2.25524000E-06	-1.02560000E-01	-1.09470000E-03
		 1.15601000E-03	-1.18757000E-01	 6.68716000E-03
		 2.18096000E-03	-1.02936000E-01	 1.41676000E-02
		-2.05161000E-03	-1.20617000E-01	-1.75997000E-02
		-2.23844000E-03	-1.18456000E-01	-1.75393000E-02
		-1.85682000E-03	-1.04486000E-01	-1.64296000E-02
		-1.02154000E-03	-1.20676000E-01	-9.42338000E-03
		-2.14752000E-03	-1.19563000E-01	-1.76118000E-02
		-2.18033000E-03	-1.02478000E-01	-1.63771000E-02
		-1.10233000E-03	-1.18512000E-01	-9.38763000E-03
		 4.84369000E-05	-1.16248000E-01	-1.25098000E-03
		 2.49591000E-03	-1.16617000E-01	 1.49158000E-02
		 4.15782000E-05	-1.17453000E-01	-1.30219000E-03
		 2.39236000E-03	-1.17813000E-01	 1.48668000E-02
		 1.99575000E-05	-1.00224000E-01	-9.97882000E-04
		 1.27370000E-03	-1.16404000E-01	 6.79199000E-03
		 2.49940000E-03	-1.00617000E-01	 1.42464000E-02
		-2.41865000E-03	-1.16086000E-01	-1.74215000E-02
		-2.32523000E-03	-1.17296000E-01	-1.74748000E-02
		-2.47494000E-03	-1.00139000E-01	-1.62620000E-02
		-1.18280000E-03	-1.16144000E-01	-9.29427000E-03
		 9.68951000E-05	-1.54619000E-01	-2.04268000E-03
		 2.63612000E-03	-1.54928000E-01	 1.45934000E-02
		 8.86239000E-05	-1.52136000E-01	-1.91174000E-03
		 2.60840000E-03	-1.52446000E-01	 1.47752000E-02
		 4.64056000E-05	-1.37731000E-01	-1.74800000E-03
		 1.37292000E-03	-1.54776000E-01	 6.24058000E-03
		 2.40155000E-03	-1.38041000E-01	 1.47997000E-02
		 9.53994000E-05	-1.53368000E-01	-1.97298000E-03
		 2.62212000E-03	-1.53681000E-01	 1.47035000E-02
		 5.90352000E-05	-1.35342000E-01	-1.62821000E-03
		 1.35647000E-03	-1.52297000E-01	 6.41627000E-03
		 2.48031000E-03	-1.35661000E-01	 1.49665000E-02
		-2.47192000E-03	-1.54366000E-01	-1.86470000E-02
		-2.45005000E-03	-1.51851000E-01	-1.85711000E-02
		-2.32432000E-03	-1.37511000E-01	-1.82802000E-02
		-1.18704000E-03	-1.54499000E-01	-1.03162000E-02
		-2.45802000E-03	-1.53096000E-01	-1.86204000E-02
		-2.37729000E-03	-1.35110000E-01	-1.82068000E-02
		-1.18686000E-03	-1.51999000E-01	-1.02327000E-02
		 7.70186000E-05	-1.49628000E-01	-1.81493000E-03
		 2.61209000E-03	-1.49939000E-01	 1.48825000E-02
		 8.16440000E-05	-1.50886000E-01	-1.85978000E-03
		 2.61070000E-03	-1.51193000E-01	 1.48288000E-02
		 6.94644000E-05	-1.32875000E-01	-1.53227000E-03
		 1.35054000E-03	-1.49790000E-01	 6.52924000E-03
		 2.56886000E-03	-1.33208000E-01	 1.50622000E-02
		-2.46458000E-03	-1.49341000E-01	-1.84913000E-02
		-2.45964000E-03	-1.50596000E-01	-1.85253000E-02
		-2.44367000E-03	-1.32642000E-01	-1.81106000E-02
		-1.19960000E-03	-1.49487000E-01	-1.01534000E-02
		 0.00000000E+00	 0.00000000E+00	 0.00000000E+00
		 0.00000000E+00	 0.00000000E+00	 0.00000000E+00
		 1.52656000E-04	-5.40399000E-03	-2.72261000E-04
		-3.09090000E-03	-5.89435000E-03	 7.16668000E-03
		 0.00000000E+00	 0.00000000E+00	 0.00000000E+00
		 0.00000000E+00	 0.00000000E+00	 0.00000000E+00
		 1.29340000E-04	-8.14491000E-03	-2.27471000E-04
		-2.13126000E-03	-8.66607000E-03	 7.29274000E-03
		 0.00000000E+00	 0.00000000E+00	 0.00000000E+00
		 7.91918000E-05	-4.73477000E-04	-1.28082000E-04
		-1.47255000E-03	-5.47898000E-03	 3.57321000E-03
		-2.12518000E-03	-1.13059000E-03	 3.60238000E-03
		 0.00000000E+00	 0.00000000E+00	 0.00000000E+00
		 0.00000000E+00	 0.00000000E+00	 0.00000000E+00
		 1.40691000E-04	-6.94152000E-03	-2.48493000E-04
		-2.60256000E-03	-7.44037000E-03	 7.02898000E-03
		 0.00000000E+00	 0.00000000E+00	 0.00000000E+00
		 4.33893000E-05	-2.08951000E-03	-9.18557000E-05
		-9.98821000E-04	-8.22513000E-03	 3.45051000E-03
		-1.07610000E-03	-2.72136000E-03	 3.53524000E-03
		 0.00000000E+00	 0.00000000E+00	 0.00000000E+00
		 3.38258000E-03	-5.80726000E-03	-7.72668000E-03
		 0.00000000E+00	 0.00000000E+00	 0.00000000E+00
		 2.38898000E-03	-8.57246000E-03	-7.76657000E-03
		 0.00000000E+00	 0.00000000E+00	 0.00000000E+00
		 2.26826000E-03	-1.15442000E-03	-3.87577000E-03
		 1.77402000E-03	-5.43007000E-03	-4.12394000E-03
		 0.00000000E+00	 0.00000000E+00	 0.00000000E+00
		 2.87836000E-03	-7.35173000E-03	-7.53919000E-03
		 0.00000000E+00	 0.00000000E+00	 0.00000000E+00
		 1.15589000E-03	-2.72786000E-03	-3.72983000E-03
		 1.25722000E-03	-8.17760000E-03	-3.91104000E-03
		 0.00000000E+00	 0.00000000E+00	 0.00000000E+00
		 0.00000000E+00	 0.00000000E+00	 0.00000000E+00
		 1.06608000E-04	-9.92752000E-03	-1.62604000E-04
		-1.15324000E-03	-1.04060000E-02	 7.27482000E-03
		 0.00000000E+00	 0.00000000E+00	 0.00000000E+00
		 0.00000000E+00	 0.00000000E+00	 0.00000000E+00
		 1.17109000E-04	-9.20052000E-03	-2.01008000E-04
		-1.64982000E-03	-9.70213000E-03	 7.48258000E-03
		 0.00000000E+00	 0.00000000E+00	 0.00000000E+00
		 1.64629000E-05	-2.70753000E-03	-5.53596000E-05
		-5.23335000E-04	-9.98963000E-03	 3.27279000E-03
		 6.50789000E-05	-3.29914000E-03	 3.67880000E-03
		 0.00000000E+00	 0.00000000E+00	 0.00000000E+00
		 1.37099000E-03	-1.03067000E-02	-7.61732000E-03
		 0.00000000E+00	 0.00000000E+00	 0.00000000E+00
		 1.88354000E-03	-9.60475000E-03	-7.90639000E-03
		 0.00000000E+00	 0.00000000E+00	 0.00000000E+00
		-3.64662000E-05	-3.28456000E-03	-3.79905000E-03
		 7.41219000E-04	-9.94574000E-03	-3.60039000E-03
		 3.88913000E-04	-2.56055000E-02	-6.54242000E-04
		-4.61126000E-03	-2.61144000E-02	 1.26164000E-02
		 3.88907000E-04	-3.02509000E-02	-6.41041000E-04
		-3.90803000E-03	-3.07637000E-02	 1.26614000E-02
		 2.62066000E-04	-1.39276000E-02	-4.38381000E-04
		-2.10999000E-03	-2.57857000E-02	 6.00542000E-03
		-3.97356000E-03	-1.44679000E-02	 1.01929000E-02
		 3.89045000E-04	-2.80019000E-02	-6.50558000E-04
		-4.25940000E-03	-2.85129000E-02	 1.25438000E-02
		 2.46963000E-04	-1.77161000E-02	-4.03769000E-04
		-1.75687000E-03	-3.04310000E-02	 5.94043000E-03
		-3.10526000E-03	-1.82672000E-02	 1.02660000E-02
		 5.39822000E-03	-2.57411000E-02	-1.39452000E-02
		 4.69004000E-03	-3.04143000E-02	-1.39647000E-02
		 4.49740000E-03	-1.42450000E-02	-1.10939000E-02
		 2.88850000E-03	-2.55961000E-02	-7.31957000E-03
		 5.04746000E-03	-2.81622000E-02	-1.38627000E-02
		 3.60359000E-03	-1.80539000E-02	-1.11003000E-02
		 2.54028000E-03	-3.02606000E-02	-7.22508000E-03
		 3.78327000E-04	-3.42094000E-02	-6.06964000E-04
		-3.21499000E-03	-3.47056000E-02	 1.26593000E-02
		 3.84732000E-04	-3.23051000E-02	-6.26296000E-04
		-3.56065000E-03	-3.28405000E-02	 1.27939000E-02
		 2.30248000E-04	-2.06433000E-02	-3.47012000E-04
		-1.42287000E-03	-3.43749000E-02	 5.82345000E-03
		-2.26542000E-03	-2.11999000E-02	 1.02805000E-02
		 4.00565000E-03	-3.43889000E-02	-1.38955000E-02
		 4.34927000E-03	-3.24716000E-02	-1.40722000E-02
		 2.74479000E-03	-2.10037000E-02	-1.10012000E-02
		 2.18883000E-03	-3.42282000E-02	-7.03790000E-03
		 7.04688000E-04	-5.56367000E-02	-1.24239000E-03
		-5.46190000E-03	-5.60999000E-02	 1.56315000E-02
		 7.20603000E-04	-6.15493000E-02	-1.26501000E-03
		-4.98413000E-03	-6.21225000E-02	 1.56273000E-02
		 5.39776000E-04	-3.96969000E-02	-9.22533000E-04
		-2.37340000E-03	-5.58140000E-02	 7.22283000E-03
		-5.09242000E-03	-4.02113000E-02	 1.43664000E-02
		 7.15516000E-04	-5.86509000E-02	-1.25110000E-03
		-5.22568000E-03	-5.91821000E-02	 1.55508000E-02
		 5.46654000E-04	-4.50503000E-02	-9.31160000E-04
		-2.15734000E-03	-6.17858000E-02	 7.12062000E-03
		-4.52870000E-03	-4.55735000E-02	 1.43888000E-02
		 6.83539000E-03	-5.55330000E-02	-1.81137000E-02
		 6.42999000E-03	-6.14722000E-02	-1.81901000E-02
		 6.16964000E-03	-3.97194000E-02	-1.62272000E-02
		 3.77060000E-03	-5.55308000E-02	-9.69977000E-03
		 6.63352000E-03	-5.85558000E-02	-1.80793000E-02
		 5.63203000E-03	-4.50799000E-02	-1.62671000E-02
		 3.57660000E-03	-6.14636000E-02	-9.67404000E-03
		 7.21330000E-04	-6.70410000E-02	-1.27658000E-03
		-4.63366000E-03	-6.77336000E-02	 1.55909000E-02
		 7.22014000E-04	-6.43637000E-02	-1.27525000E-03
		-4.81029000E-03	-6.48681000E-02	 1.57119000E-02
		 5.52421000E-04	-4.98570000E-02	-9.23484000E-04
		-1.92506000E-03	-6.73386000E-02	 6.98768000E-03
		-4.01942000E-03	-5.04100000E-02	 1.43663000E-02
		 6.04435000E-03	-6.70115000E-02	-1.82049000E-02
		 6.23748000E-03	-6.42860000E-02	-1.82977000E-02
		 5.09724000E-03	-4.99053000E-02	-1.62318000E-02
		 3.37198000E-03	-6.69899000E-02	-9.58833000E-03
		 1.12578000E-03	-9.17196000E-02	-2.02957000E-03
		-5.54065000E-03	-9.20703000E-02	 1.68261000E-02
		 1.14273000E-03	-9.83366000E-02	-2.05306000E-03
		-5.44865000E-03	-9.91524000E-02	 1.68251000E-02
		 8.68256000E-04	-7.30596000E-02	-1.61022000E-03
		-2.20446000E-03	-9.18690000E-02	 7.36096000E-03
		-5.64299000E-03	-7.35636000E-02	 1.64197000E-02
		 1.13641000E-03	-9.50153000E-02	-2.04025000E-03
		-5.48492000E-03	-9.55500000E-02	 1.68337000E-02
		 8.80794000E-04	-7.94501000E-02	-1.68232000E-03
		-2.03174000E-03	-9.87041000E-02	 7.35115000E-03
		-5.36456000E-03	-7.99089000E-02	 1.64511000E-02
		 7.63003000E-03	-9.14289000E-02	-2.08916000E-02
		 7.44531000E-03	-9.79121000E-02	-2.09345000E-02
		 7.35605000E-03	-7.28513000E-02	-1.96501000E-02
		 4.37218000E-03	-9.15579000E-02	-1.14193000E-02
		 7.54306000E-03	-9.46915000E-02	-2.09211000E-02
		 7.06361000E-03	-7.92193000E-02	-1.97244000E-02
		 4.28192000E-03	-9.80804000E-02	-1.14597000E-02
		 1.01439000E-03	-1.04805000E-01	-2.06998000E-03
		-5.25016000E-03	-1.05977000E-01	 1.67909000E-02
		 1.08090000E-03	-1.01556000E-01	-2.06541000E-03
		-5.34620000E-03	-1.03071000E-01	 1.68176000E-02
		 8.60378000E-04	-8.55409000E-02	-1.77072000E-03
		-2.23573000E-03	-1.05337000E-01	 7.31053000E-03
		-4.95478000E-03	-8.58844000E-02	 1.63984000E-02
		 7.28847000E-03	-1.04239000E-01	-2.09281000E-02