<?xml version="1.0"?>
<VTKFile type="UnstructuredGrid" version="0.1" byte_order="LittleEndian">
	<UnstructuredGrid>
		<Piece NumberOfPoints="522" NumberOfCells="64">
			<Points>
				<DataArray type="Float64" NumberOfComponents="3" format="ascii">
					 1.00000000E+00	 1.00000000E+00	-5.96046000E-08
					 1.00000000E+00	 5.00000000E-01	-5.96046000E-08
					 1.00000000E+00	 5.00000000E-01	 1.00000000E+00
					 1.00000000E+00	 1.00000000E+00	 1.00000000E+00
					 5.00000000E-01	 1.00000000E+00	-5.96046000E-08
					 5.00000000E-01	 5.00000000E-01	-5.96046000E-08
					 5.00000000E-01	 5.00000000E-01	 1.00000000E+00
					 5.00000000E-01	 1.00000000E+00	 1.00000000E+00
					 1.00000000E+00	 7.50000000E-01	-5.96046000E-08
					 1.00000000E+00	 5.00000000E-01	 5.00000000E-01
					 1.00000000E+00	 7.50000000E-01	 1.00000000E+00
					 1.00000000E+00	 1.00000000E+00	 5.00000000E-01
					 7.50000000E-01	 1.00000000E+00	-5.96046000E-08
					 7.50000000E-01	 5.00000000E-01	-5.96046000E-08
					 7.50000000E-01	 5.00000000E-01	 1.00000000E+00
					 7.50000000E-01	 1.00000000E+00	 1.00000000E+00
					 5.00000000E-01	 7.50000000E-01	-5.96046000E-08
					 5.00000000E-01	 5.00000000E-01	 5.00000000E-01
					 5.00000000E-01	 7.50000000E-01	 1.00000000E+00
					 5.00000000E-01	 1.00000000E+00	 5.00000000E-01
					 1.00000000E+00	-1.49012000E-08	-5.96046000E-08
					 1.00000000E+00	-1.49012000E-08	 1.00000000E+00
					 5.00000000E-01	-1.49012000E-08	-5.96046000E-08
					 5.00000000E-01	-1.49012000E-08	 1.00000000E+00
					 1.00000000E+00	 2.50000000E-01	-5.96046000E-08
					 1.00000000E+00	-1.49012000E-08	 5.00000000E-01
					 1.00000000E+00	 2.50000000E-01	 1.00000000E+00
					 7.50000000E-01	-1.49012000E-08	-5.96046000E-08
					 7.50000000E-01	-1.49012000E-08	 1.00000000E+00
					 5.00000000E-01	 2.50000000E-01	-5.96046000E-08
					 5.00000000E-01	-1.49012000E-08	 5.00000000E-01
					 5.00000000E-01	 2.50000000E-01	 1.00000000E+00
					-7.45058000E-09	 1.00000000E+00	-5.96046000E-08
					-7.45058000E-09	 5.00000000E-01	-5.96046000E-08
					-7.45058000E-09	 5.00000000E-01	 1.00000000E+00
					-7.45058000E-09	 1.00000000E+00	 1.00000000E+00
					 2.50000000E-01	 1.00000000E+00	-5.96046000E-08
					 2.50000000E-01	 5.00000000E-01	-5.96046000E-08
					 2.50000000E-01	 5.00000000E-01	 1.00000000E+00
					 2.50000000E-01	 1.00000000E+00	 1.00000000E+00
					-7.45058000E-09	 7.50000000E-01	-5.96046000E-08
					-7.45058000E-09	 5.00000000E-01	 5.00000000E-01
					-7.45058000E-09	 7.50000000E-01	 1.00000000E+00
					-7.45058000E-09	 1.00000000E+00	 5.00000000E-01
					-7.45058000E-09	-1.49012000E-08	-5.96046000E-08
					-7.45058000E-09	-1.49012000E-08	 1.00000000E+00
					 2.50000000E-01	-1.49012000E-08	-5.96046000E-08
					 2.50000000E-01	-1.49012000E-08	 1.00000000E+00
					-7.45058000E-09	 2.50000000E-01	-5.96046000E-08
					-7.45058000E-09	-1.49012000E-08	 5.00000000E-01
					-7.45058000E-09	 2.50000000E-01	 1.00000000E+00
					 1.00000000E+00	 5.00000000E-01	 2.00000000E+00
					 1.00000000E+00	 1.00000000E+00	 2.00000000E+00
					 5.00000000E-01	 5.00000000E-01	 2.00000000E+00
					 5.00000000E-01	 1.00000000E+00	 2.00000000E+00
					 1.00000000E+00	 5.00000000E-01	 1.50000000E+00
					 1.00000000E+00	 7.50000000E-01	 2.00000000E+00
					 1.00000000E+00	 1.00000000E+00	 1.50000000E+00
					 7.50000000E-01	 5.00000000E-01	 2.00000000E+00
					 7.50000000E-01	 1.00000000E+00	 2.00000000E+00
					 5.00000000E-01	 5.00000000E-01	 1.50000000E+00
					 5.00000000E-01	 7.50000000E-01	 2.00000000E+00
					 5.00000000E-01	 1.00000000E+00	 1.50000000E+00
					 1.00000000E+00	-1.49012000E-08	 2.00000000E+00
					 5.00000000E-01	-1.49012000E-08	 2.00000000E+00
					 1.00000000E+00	-1.49012000E-08	 1.50000000E+00
					 1.00000000E+00	 2.50000000E-01	 2.00000000E+00
					 7.50000000E-01	-1.49012000E-08	 2.00000000E+00
					 5.00000000E-01	-1.49012000E-08	 1.50000000E+00
					 5.00000000E-01	 2.50000000E-01	 2.00000000E+00
					-7.45058000E-09	 5.00000000E-01	 2.00000000E+00
					-7.45058000E-09	 1.00000000E+00	 2.00000000E+00
					 2.50000000E-01	 5.00000000E-01	 2.00000000E+00
					 2.50000000E-01	 1.00000000E+00	 2.00000000E+00
					-7.45058000E-09	 5.00000000E-01	 1.50000000E+00
					-7.45058000E-09	 7.50000000E-01	 2.00000000E+00
					-7.45058000E-09	 1.00000000E+00	 1.50000000E+00
					-7.45058000E-09	-1.49012000E-08	 2.00000000E+00
					 2.50000000E-01	-1.49012000E-08	 2.00000000E+00
					-7.45058000E-09	-1.49012000E-08	 1.50000000E+00
					-7.45058000E-09	 2.50000000E-01	 2.00000000E+00
					 1.00000000E+00	 5.00000000E-01	 3.00000000E+00
					 1.00000000E+00	 1.00000000E+00	 3.00000000E+00
					 5.00000000E-01	 5.00000000E-01	 3.00000000E+00
					 5.00000000E-01	 1.00000000E+00	 3.00000000E+00
					 1.00000000E+00	 5.00000000E-01	 2.50000000E+00
					 1.00000000E+00	 7.50000000E-01	 3.00000000E+00
					 1.00000000E+00	 1.00000000E+00	 2.50000000E+00
					 7.50000000E-01	 5.00000000E-01	 3.00000000E+00
					 7.50000000E-01	 1.00000000E+00	 3.00000000E+00
					 5.00000000E-01	 5.00000000E-01	 2.50000000E+00
					 5.00000000E-01	 7.50000000E-01	 3.00000000E+00
					 5.00000000E-01	 1.00000000E+00	 2.50000000E+00
					 1.00000000E+00	-1.49012000E-08	 3.00000000E+00
					 5.00000000E-01	-1.49012000E-08	 3.00000000E+00
					 1.00000000E+00	-1.49012000E-08	 2.50000000E+00
					 1.00000000E+00	 2.50000000E-01	 3.00000000E+00
					 7.50000000E-01	-1.49012000E-08	 3.00000000E+00
					 5.00000000E-01	-1.49012000E-08	 2.50000000E+00
					 5.00000000E-01	 2.50000000E-01	 3.00000000E+00
					-7.45058000E-09	 5.00000000E-01	 3.00000000E+00
					-7.45058000E-09	 1.00000000E+00	 3.00000000E+00
					 2.50000000E-01	 5.00000000E-01	 3.00000000E+00
					 2.50000000E-01	 1.00000000E+00	 3.00000000E+00
					-7.45058000E-09	 5.00000000E-01	 2.50000000E+00
					-7.45058000E-09	 7.50000000E-01	 3.00000000E+00
					-7.45058000E-09	 1.00000000E+00	 2.50000000E+00
					-7.45058000E-09	-1.49012000E-08	 3.00000000E+00
					 2.50000000E-01	-1.49012000E-08	 3.00000000E+00
					-7.45058000E-09	-1.49012000E-08	 2.50000000E+00
					-7.45058000E-09	 2.50000000E-01	 3.00000000E+00
					 1.00000000E+00	 5.00000000E-01	 4.00000000E+00
					 1.00000000E+00	 1.00000000E+00	 4.00000000E+00
					 5.00000000E-01	 5.00000000E-01	 4.00000000E+00
					 5.00000000E-01	 1.00000000E+00	 4.00000000E+00
					 1.00000000E+00	 5.00000000E-01	 3.50000000E+00
					 1.00000000E+00	 7.50000000E-01	 4.00000000E+00
					 1.00000000E+00	 1.00000000E+00	 3.50000000E+00
					 7.50000000E-01	 5.00000000E-01	 4.00000000E+00
					 7.50000000E-01	 1.00000000E+00	 4.00000000E+00
					 5.00000000E-01	 5.00000000E-01	 3.50000000E+00
					 5.00000000E-01	 7.50000000E-01	 4.00000000E+00
					 5.00000000E-01	 1.00000000E+00	 3.50000000E+00
					 1.00000000E+00	-1.49012000E-08	 4.00000000E+00
					 5.00000000E-01	-1.49012000E-08	 4.00000000E+00
					 1.00000000E+00	-1.49012000E-08	 3.50000000E+00
					 1.00000000E+00	 2.50000000E-01	 4.00000000E+00
					 7.50000000E-01	-1.49012000E-08	 4.00000000E+00
					 5.00000000E-01	-1.49012000E-08	 3.50000000E+00
					 5.00000000E-01	 2.50000000E-01	 4.00000000E+00
					-7.45058000E-09	 5.00000000E-01	 4.00000000E+00
					-7.45058000E-09	 1.00000000E+00	 4.00000000E+00
					 2.50000000E-01	 5.00000000E-01	 4.00000000E+00
					 2.50000000E-01	 1.00000000E+00	 4.00000000E+00
					-7.45058000E-09	 5.00000000E-01	 3.50000000E+00
					-7.45058000E-09	 7.50000000E-01	 4.00000000E+00
					-7.45058000E-09	 1.00000000E+00	 3.50000000E+00
					-7.45058000E-09	-1.49012000E-08	 4.00000000E+00
					 2.50000000E-01	-1.49012000E-08	 4.00000000E+00
					-7.45058000E-09	-1.49012000E-08	 3.50000000E+00
					-7.45058000E-09	 2.50000000E-01	 4.00000000E+00
					 1.00000000E+00	 5.00000000E-01	 5.00000000E+00
					 1.00000000E+00	 1.00000000E+00	 5.00000000E+00
					 5.00000000E-01	 5.00000000E-01	 5.00000000E+00
					 5.00000000E-01	 1.00000000E+00	 5.00000000E+00
					 1.00000000E+00	 5.00000000E-01	 4.50000000E+00
					 1.00000000E+00	 7.50000000E-01	 5.00000000E+00
					 1.00000000E+00	 1.00000000E+00	 4.50000000E+00
					 7.50000000E-01	 5.00000000E-01	 5.00000000E+00
					 7.50000000E-01	 1.00000000E+00	 5.00000000E+00
					 5.00000000E-01	 5.00000000E-01	 4.50000000E+00
					 5.00000000E-01	 7.50000000E-01	 5.00000000E+00
					 5.00000000E-01	 1.00000000E+00	 4.50000000E+00
					 1.00000000E+00	-1.49012000E-08	 5.00000000E+00
					 5.00000000E-01	-1.49012000E-08	 5.00000000E+00
					 1.00000000E+00	-1.49012000E-08	 4.50000000E+00
					 1.00000000E+00	 2.50000000E-01	 5.00000000E+00
					 7.50000000E-01	-1.49012000E-08	 5.00000000E+00
					 5.00000000E-01	-1.49012000E-08	 4.50000000E+00
					 5.00000000E-01	 2.50000000E-01	 5.00000000E+00
					-7.45058000E-09	 5.00000000E-01	 5.00000000E+00
					-7.45058000E-09	 1.00000000E+00	 5.00000000E+00
					 2.50000000E-01	 5.00000000E-01	 5.00000000E+00
					 2.50000000E-01	 1.00000000E+00	 5.00000000E+00
					-7.45058000E-09	 5.00000000E-01	 4.50000000E+00
					-7.45058000E-09	 7.50000000E-01	 5.00000000E+00
					-7.45058000E-09	 1.00000000E+00	 4.50000000E+00
					-7.45058000E-09	-1.49012000E-08	 5.00000000E+00
					 2.50000000E-01	-1.49012000E-08	 5.00000000E+00
					-7.45058000E-09	-1.49012000E-08	 4.50000000E+00
					-7.45058000E-09	 2.50000000E-01	 5.00000000E+00
					 1.00000000E+00	 5.00000000E-01	 6.00000000E+00
					 1.00000000E+00	 1.00000000E+00	 6.00000000E+00
					 5.00000000E-01	 5.00000000E-01	 6.00000000E+00
					 5.00000000E-01	 1.00000000E+00	 6.00000000E+00
					 1.00000000E+00	 5.00000000E-01	 5.50000000E+00
					 1.00000000E+00	 7.50000000E-01	 6.00000000E+00
					 1.00000000E+00	 1.00000000E+00	 5.50000000E+00
					 7.50000000E-01	 5.00000000E-01	 6.00000000E+00
					 7.50000000E-01	 1.00000000E+00	 6.00000000E+00
					 5.00000000E-01	 5.00000000E-01	 5.50000000E+00
					 5.00000000E-01	 7.50000000E-01	 6.00000000E+00
					 5.00000000E-01	 1.00000000E+00	 5.50000000E+00
					 1.00000000E+00	-1.49012000E-08	 6.00000000E+00
[...]
			<PointData>
				<DataArray type="Float32" Name="U" NumberOfComponents="3" ComponentName0="D1" ComponentName1="D2" ComponentName2="D3" format="ascii">
					 0.00000000E+00	 0.00000000E+00	 0.00000000E+00
					 0.00000000E+00	 0.00000000E+00	 0.00000000E+00
					 3.24272000E-05	-1.26650000E-03	-6.95564000E-05
					 1.38257000E-03	-1.13459000E-03	-9.70466000E-04
					 0.00000000E+00	 0.00000000E+00	 0.00000000E+00
					 0.00000000E+00	 0.00000000E+00	 0.00000000E+00
					 2.48234000E-05	-4.16565000E-05	-6.13321000E-05
					 1.13596000E-03	 9.26003000E-05	-9.50125000E-04
					 0.00000000E+00	 0.00000000E+00	 0.00000000E+00
					 1.91817000E-05	-9.27179000E-04	-3.60755000E-05
					 7.09759000E-04	-1.23348000E-03	-6.73723000E-04
					 6.87381000E-04	-8.12642000E-04	-3.09736000E-04
					 0.00000000E+00	 0.00000000E+00	 0.00000000E+00
					 0.00000000E+00	 0.00000000E+00	 0.00000000E+00
					 2.88279000E-05	-6.20283000E-04	-6.43886000E-05
					 1.25843000E-03	-4.90480000E-04	-8.46990000E-04
					 0.00000000E+00	 0.00000000E+00	 0.00000000E+00
					 9.31415000E-06	-3.01954000E-04	-2.68495000E-05
					 5.79136000E-04	-8.92773000E-06	-5.49887000E-04
					 5.65501000E-04	-2.13768000E-04	-2.72383000E-04
					 0.00000000E+00	 0.00000000E+00	 0.00000000E+00
					-1.31696000E-03	-1.14335000E-03	 8.33039000E-04
					 0.00000000E+00	 0.00000000E+00	 0.00000000E+00
					-1.08439000E-03	 7.94867000E-05	 8.27940000E-04
					 0.00000000E+00	 0.00000000E+00	 0.00000000E+00
					-6.50576000E-04	-8.32670000E-04	 2.34961000E-04
					-6.44878000E-04	-1.23734000E-03	 5.34704000E-04
					 0.00000000E+00	 0.00000000E+00	 0.00000000E+00
					-1.19924000E-03	-5.01553000E-04	 7.20348000E-04
					 0.00000000E+00	 0.00000000E+00	 0.00000000E+00
					-5.47586000E-04	-2.30807000E-04	 2.16082000E-04
					-5.28836000E-04	-1.50796000E-05	 4.27681000E-04
					 0.00000000E+00	 0.00000000E+00	 0.00000000E+00
					 0.00000000E+00	 0.00000000E+00	 0.00000000E+00
					 1.52087000E-05	 9.53613000E-04	-5.18914000E-05
					 8.75474000E-04	 1.07732000E-03	-9.53810000E-04
					 0.00000000E+00	 0.00000000E+00	 0.00000000E+00
					 0.00000000E+00	 0.00000000E+00	 0.00000000E+00
					 2.00669000E-05	 4.87329000E-04	-5.74576000E-05
					 1.00558000E-03	 6.19229000E-04	-1.03928000E-03
					 0.00000000E+00	 0.00000000E+00	 0.00000000E+00
					 5.36263000E-07	 1.85844000E-04	-2.11106000E-05
					 4.46958000E-04	 9.81499000E-04	-4.57791000E-04
					 4.02635000E-04	 2.55753000E-04	-2.94541000E-04
					 0.00000000E+00	 0.00000000E+00	 0.00000000E+00
					-8.42153000E-04	 1.06113000E-03	 8.49130000E-04
					 0.00000000E+00	 0.00000000E+00	 0.00000000E+00
					-9.63200000E-04	 6.04998000E-04	 9.23276000E-04
					 0.00000000E+00	 0.00000000E+00	 0.00000000E+00
					-4.01996000E-04	 2.41027000E-04	 2.49659000E-04
					-4.15372000E-04	 9.73481000E-04	 3.54611000E-04
					 4.07488000E-05	 1.26388000E-03	-1.16952000E-04
					 2.42074000E-03	 1.37425000E-03	-2.85688000E-03
					 3.81970000E-05	 3.49774000E-03	-1.30538000E-04
					 2.14684000E-03	 3.62475000E-03	-2.87545000E-03
					 4.16463000E-05	-5.69382000E-04	-9.31944000E-05
					 1.22584000E-03	 1.28395000E-03	-1.52568000E-03
					 1.96804000E-03	-4.58110000E-04	-1.90128000E-03
					 3.97020000E-05	 2.41242000E-03	-1.24288000E-04
					 2.28472000E-03	 2.53656000E-03	-2.81357000E-03
					 3.61869000E-05	 1.20207000E-03	-9.43425000E-05
					 1.09302000E-03	 3.52720000E-03	-1.48707000E-03
					 1.67554000E-03	 1.33143000E-03	-1.90243000E-03
					-2.33302000E-03	 1.39091000E-03	 2.62039000E-03
					-2.06433000E-03	 3.63020000E-03	 2.61181000E-03
					-1.87969000E-03	-4.54332000E-04	 1.71447000E-03
					-1.14295000E-03	 1.29341000E-03	 1.29109000E-03
					-2.19865000E-03	 2.54647000E-03	 2.56254000E-03
					-1.59838000E-03	 1.32574000E-03	 1.71235000E-03
					-1.01489000E-03	 3.52967000E-03	 1.22529000E-03
					 3.26371000E-05	 5.47495000E-03	-1.41806000E-04
					 1.88442000E-03	 5.61008000E-03	-2.88138000E-03
					 3.60314000E-05	 4.52023000E-03	-1.36255000E-04
					 2.01695000E-03	 4.64939000E-03	-2.94421000E-03
					 2.81197000E-05	 2.70432000E-03	-9.34001000E-05
					 9.57890000E-04	 5.50989000E-03	-1.43152000E-03
					 1.39618000E-03	 2.83995000E-03	-1.90224000E-03
					-1.81382000E-03	 5.60676000E-03	 2.59564000E-03
					-1.93933000E-03	 4.65129000E-03	 2.66923000E-03
					-1.33532000E-03	 2.82620000E-03	 1.71319000E-03
					-8.91208000E-04	 5.50686000E-03	 1.14735000E-03
					 3.01896000E-05	 7.82293000E-03	-1.83870000E-04
					 2.99227000E-03	 7.89934000E-03	-4.43516000E-03
					 3.18835000E-05	 1.06761000E-02	-2.16131000E-04
					 2.78405000E-03	 1.07620000E-02	-4.46881000E-03
					 3.58117000E-05	 4.12430000E-03	-1.47960000E-04
					 1.51082000E-03	 7.83658000E-03	-2.33661000E-03
					 2.75709000E-03	 4.22056000E-03	-3.68755000E-03
					 3.13149000E-05	 9.27380000E-03	-1.99939000E-04
					 2.88876000E-03	 9.35599000E-03	-4.42294000E-03
					 3.54045000E-05	 6.72384000E-03	-1.71131000E-04
					 1.40814000E-03	 1.06954000E-02	-2.34034000E-03
					 2.52477000E-03	 6.83099000E-03	-3.71683000E-03
					-2.92679000E-03	 7.94110000E-03	 4.06664000E-03
					-2.71626000E-03	 1.07949000E-02	 4.03587000E-03
					-2.67976000E-03	 4.24806000E-03	 3.38872000E-03
					-1.44904000E-03	 7.85753000E-03	 1.96870000E-03
					-2.82126000E-03	 9.39251000E-03	 4.02217000E-03
					-2.44886000E-03	 6.84921000E-03	 3.37227000E-03
					-1.34321000E-03	 1.07112000E-02	 1.90788000E-03
					 3.02478000E-05	 1.33231000E-02	-2.45832000E-04
					 2.58747000E-03	 1.34219000E-02	-4.49665000E-03
					 3.15588000E-05	 1.20252000E-02	-2.31683000E-04
					 2.68657000E-03	 1.21143000E-02	-4.51364000E-03
					 3.21041000E-05	 9.09787000E-03	-1.92347000E-04
					 1.30595000E-03	 1.33491000E-02	-2.33879000E-03
					 2.30347000E-03	 9.21632000E-03	-3.73110000E-03
					-2.52416000E-03	 1.34490000E-02	 4.00438000E-03
					-2.62030000E-03	 1.21446000E-02	 4.04985000E-03
					-2.23526000E-03	 9.22772000E-03	 3.34470000E-03
					-1.24460000E-03	 1.33616000E-02	 1.84688000E-03
					 1.97402000E-06	 1.75208000E-02	-2.62547000E-04
					 3.08862000E-03	 1.75876000E-02	-5.89855000E-03
					 6.63314000E-06	 2.04887000E-02	-3.11139000E-04
					 2.86465000E-03	 2.05650000E-02	-5.94329000E-03
					 1.88653000E-05	 1.22770000E-02	-2.21187000E-04
					 1.54347000E-03	 1.75262000E-02	-3.07820000E-03
					 3.10973000E-03	 1.23457000E-02	-5.15096000E-03
					 4.49670000E-06	 1.90317000E-02	-2.87599000E-04
					 2.97752000E-03	 1.91053000E-02	-5.93310000E-03
					 2.23928000E-05	 1.52540000E-02	-2.63130000E-04
					 1.43593000E-03	 2.04993000E-02	-3.13667000E-03
					 2.89673000E-03	 1.53347000E-02	-5.19026000E-03
					-3.08077000E-03	 1.76638000E-02	 5.37333000E-03
					-2.84789000E-03	 2.06338000E-02	 5.32062000E-03
					-3.06777000E-03	 1.24037000E-02	 4.70888000E-03
					-1.53859000E-03	 1.75645000E-02	 2.55309000E-03
					-2.96455000E-03	 1.91778000E-02	 5.35772000E-03
					-2.84852000E-03	 1.53846000E-02	 4.66433000E-03
					-1.42170000E-03	 2.05339000E-02	 2.51429000E-03
					 8.47901000E-06	 2.32327000E-02	-3.56456000E-04
					 2.65056000E-03	 2.33187000E-02	-5.99232000E-03
					 8.11795000E-06	 2.18891000E-02	-3.33886000E-04
					 2.75825000E-03	 2.19685000E-02	-5.95140000E-03
					 2.27820000E-05	 1.80218000E-02	-3.01638000E-04
					 1.32791000E-03	 2.32482000E-02	-3.19970000E-03
					 2.69952000E-03	 1.81163000E-02	-5.23091000E-03
					-2.63071000E-03	 2.33822000E-02	 5.27870000E-03
					-2.73904000E-03	 2.20342000E-02	 5.28292000E-03
					-2.65146000E-03	 1.81609000E-02	 4.62796000E-03
					-1.31013000E-03	 2.32806000E-02	 2.48666000E-03
					-3.18797000E-05	 3.05462000E-02	-3.65020000E-04
					 2.78203000E-03	 3.06140000E-02	-7.62447000E-03
					-2.78901000E-05	 3.32219000E-02	-4.23621000E-04
					 2.52142000E-03	 3.32977000E-02	-7.68066000E-03
					-1.42740000E-05	 2.35946000E-02	-3.10276000E-04
					 1.37412000E-03	 3.05470000E-02	-3.97256000E-03
					 2.96549000E-03	 2.36633000E-02	-6.72613000E-03
					-2.94180000E-05	 3.19170000E-02	-3.94986000E-04
					 2.65211000E-03	 3.19888000E-02	-7.68079000E-03
					-9.83590000E-06	 2.64462000E-02	-3.63226000E-04
					 1.24624000E-03	 3.32262000E-02	-4.05786000E-03
					 2.72315000E-03	 2.65230000E-02	-6.77486000E-03
					-2.84095000E-03	 3.07351000E-02	 6.89156000E-03
					-2.57169000E-03	 3.34091000E-02	 6.83045000E-03
					-2.98930000E-03	 2.37605000E-02	 6.10443000E-03
					-1.43678000E-03	 3.06073000E-02	 3.24209000E-03
					-2.70557000E-03	 3.21056000E-02	 6.88766000E-03
					-2.73808000E-03	 2.66115000E-02	 6.04651000E-03
					-1.30047000E-03	 3.32821000E-02	 3.20999000E-03
					-2.72542000E-05	 3.56380000E-02	-4.78093000E-04
					 2.26096000E-03	 3.57191000E-02	-7.73782000E-03
					-2.71905000E-05	 3.44628000E-02	-4.51284000E-04
					 2.39181000E-03	 3.45418000E-02	-7.67887000E-03
					-8.44864000E-06	 2.90549000E-02	-4.12997000E-04
					 1.11645000E-03	 3.56449000E-02	-4.14408000E-03
					 2.48423000E-03	 2.91383000E-02	-6.82932000E-03
					-2.30961000E-03	 3.58211000E-02	 6.77866000E-03
					-2.44051000E-03	 3.46478000E-02	 6.77347000E-03
					-2.49661000E-03	 2.92194000E-02	 6.00065000E-03
					-1.16934000E-03	 3.56966000E-02	 3.18719000E-03
					-7.96763000E-05	 4.72778000E-02	-5.16266000E-04
					 2.32436000E-03	 4.73174000E-02	-9.56022000E-03
					-7.74143000E-05	 4.95468000E-02	-5.78960000E-04
					 2.06490000E-03	 4.95910000E-02	-9.62746000E-03
					-5.46617000E-05	 3.84327000E-02	-4.31763000E-04
					 1.12067000E-03	 4.72642000E-02	-4.99646000E-03
					 2.56372000E-03	 3.84896000E-02	-8.58707000E-03
					-7.83224000E-05	 4.84450000E-02	-5.48681000E-04
					 2.19465000E-03	 4.84878000E-02	-9.62844000E-03
					-5.15037000E-05	 4.09125000E-02	-4.95143000E-04
					 9.93703000E-04	 4.95345000E-02	-5.09482000E-03
					 2.29887000E-03	 4.09751000E-02	-8.65080000E-03
					-2.48445000E-03	 4.74892000E-02	 8.52556000E-03
					-2.21776000E-03	 4.97619000E-02	 8.46768000E-03
					-2.67069000E-03	 3.86343000E-02	 7.71988000E-03
					-1.28012000E-03	 4.73485000E-02	 3.96408000E-03
					-2.35098000E-03	 4.86609000E-02	 8.52842000E-03
					-2.39794000E-03	 4.11138000E-02	 7.65768000E-03
					-1.14790000E-03	 4.96200000E-02	 3.93659000E-03
					-7.64045000E-05	 5.15594000E-02	-6.38060000E-04
					 1.80667000E-03	 5.16052000E-02	-9.68300000E-03
					-7.68501000E-05	 5.05866000E-02	-6.08547000E-04
					 1.93638000E-03	 5.06320000E-02	-9.62526000E-03
					-5.07347000E-05	 4.31278000E-02	-5.53749000E-04
					 8.65314000E-04	 5.15481000E-02	-5.18265000E-03
					 2.03244000E-03	 4.31930000E-02	-8.70910000E-03
					-1.95522000E-03	 5.17709000E-02	 8.40543000E-03
					-2.08656000E-03	 5.07999000E-02	 8.40672000E-03
					-2.12862000E-03	 4.33239000E-02	 7.59974000E-03
					-1.01697000E-03	 5.16317000E-02	 3.90621000E-03
					-1.14334000E-04	 6.77891000E-02	-7.33497000E-04
					 1.66785000E-03	 6.77605000E-02	-1.12879000E-02
					-1.14996000E-04	 6.94892000E-02	-7.87621000E-04
					 1.49850000E-03	 6.94583000E-02	-1.13576000E-02
					-9.90241000E-05	 5.70977000E-02	-6.19056000E-04
					 7.77026000E-04	 6.77543000E-02	-5.93033000E-03
					 2.02734000E-03	 5.70999000E-02	-1.04856000E-02
					-1.13783000E-04	 6.86610000E-02	-7.60916000E-04
					 1.58457000E-03	 6.86296000E-02	-1.13749000E-02
					-9.88144000E-05	 5.91058000E-02	-6.76376000E-04
					 6.90922000E-04	 6.94521000E-02	-6.04214000E-03
					 1.79651000E-03	 5.91125000E-02	-1.05530000E-02
					-1.89534000E-03	 6.79972000E-02	 9.81653000E-03
					-1.72557000E-03	 6.96928000E-02	 9.77740000E-03
					-2.22721000E-03	 5.73042000E-02	 9.24667000E-03
					-1.00538000E-03	 6.78709000E-02	 4.46124000E-03
					-1.80999000E-03	 6.88676000E-02	 9.84904000E-03
					-1.99241000E-03	 5.93177000E-02	 9.19872000E-03
					-9.19940000E-04	 6.95696000E-02	 4.46529000E-03
					-1.16807000E-04	 7.10134000E-02	-8.35443000E-04
					 1.32062000E-03	 7.09822000E-02	-1.13901000E-02
					-1.16584000E-04	 7.02733000E-02	-8.12260000E-04
					 1.40804000E-03	 7.02436000E-02	-1.13401000E-02
					-9.96371000E-05	 6.08868000E-02	-7.30879000E-04
					 6.01670000E-04	 7.09755000E-02	-6.11864000E-03
					 1.56945000E-03	 6.08968000E-02	-1.05991000E-02
					-1.55006000E-03	 7.12105000E-02	 9.71383000E-03
					-1.63759000E-03	 7.04739000E-02	 9.71046000E-03
					-1.76418000E-03	 6.10964000E-02	 9.13524000E-03
					-8.33977000E-04	 7.10911000E-02	 4.44583000E-03
					-1.65088000E-04	 9.03783000E-02	-9.76227000E-04
					 1.11489000E-03	 9.02925000E-02	-1.20619000E-02
					-1.53883000E-04	 9.16779000E-02	-1.03474000E-03
					 1.12608000E-03	 9.15795000E-02	-1.21422000E-02
					-1.34363000E-04	 7.90801000E-02	-8.53850000E-04
					 4.71864000E-04	 9.03375000E-02	-6.48446000E-03
					 1.32266000E-03	 7.89988000E-02	-1.18063000E-02
					-1.60606000E-04	 9.10293000E-02	-1.00746000E-03
					 1.12264000E-03	 9.09379000E-02	-1.21215000E-02
					-1.32456000E-04	 8.04983000E-02	-9.09936000E-04
					 4.85459000E-04	 9.16321000E-02	-6.56882000E-03
					 1.24163000E-03	 8.04143000E-02	-1.18818000E-02
					-1.43280000E-03	 9.05371000E-02	 1.00937000E-02
					-1.43028000E-03	 9.18123000E-02	 1.00586000E-02
					-1.58340000E-03	 7.92519000E-02	 1.00876000E-02
					-7.99033000E-04	 9.04580000E-02	 4.52700000E-03
					-1.43459000E-03	 9.11747000E-02	 1.00919000E-02
					-1.50307000E-03	 8.06586000E-02	 1.00510000E-02
					-7.91907000E-04	 9.17457000E-02	 4.49522000E-03
					-1.42920000E-04	 9.29309000E-02	-1.07697000E-03
					 1.10947000E-03	 9.28209000E-02	-1.21584000E-02
					-1.47276000E-04	 9.23039000E-02	-1.05722000E-03
					 1.11530000E-03	 9.22039000E-02	-1.21526000E-02
					-1.30910000E-04	 8.18241000E-02	-9.52920000E-04
					 4.87968000E-04	 9.28776000E-02	-6.59943000E-03
					 1.14641000E-03	 8.17338000E-02	-1.19034000E-02
					-1.40085000E-03	 9.30582000E-02	 9.99188000E-03
					-1.41182000E-03	 9.24371000E-02	 1.00252000E-02
					-1.40950000E-03	 8.19770000E-02	 9.98686000E-03
					-7.74996000E-04	 9.29941000E-02	 4.44150000E-03
					 0.00000000E+00	 0.00000000E+00	 0.00000000E+00
					 0.00000000E+00	 0.00000000E+00	 0.00000000E+00
					-1.03480000E-04	-2.08402000E-03	 2.52490000E-04
					-2.61213000E-03	-2.37320000E-03	 4.16253000E-03
					 0.00000000E+00	 0.00000000E+00	 0.00000000E+00
					 0.00000000E+00	 0.00000000E+00	 0.00000000E+00
					-6.59129000E-05	-4.33913000E-03	 1.85758000E-04
					-2.07441000E-03	-4.63678000E-03	 4.15012000E-03
					 0.00000000E+00	 0.00000000E+00	 0.00000000E+00
					-5.59457000E-05	 1.69895000E-04	 1.23339000E-04
					-1.36173000E-03	-2.13919000E-03	 2.32910000E-03
					-1.60710000E-03	-2.41683000E-04	 2.10325000E-03
					 0.00000000E+00	 0.00000000E+00	 0.00000000E+00
					 0.00000000E+00	 0.00000000E+00	 0.00000000E+00
					-8.28369000E-05	-3.30015000E-03	 2.16923000E-04
					-2.33729000E-03	-3.58848000E-03	 3.97760000E-03
					 0.00000000E+00	 0.00000000E+00	 0.00000000E+00
					-1.98581000E-05	-1.09086000E-03	 8.47626000E-05
					-1.07063000E-03	-4.39272000E-03	 2.10905000E-03
					-1.01394000E-03	-1.46188000E-03	 2.00988000E-03
					 0.00000000E+00	 0.00000000E+00	 0.00000000E+00
					 2.41128000E-03	-2.25574000E-03	-3.66962000E-03
					 0.00000000E+00	 0.00000000E+00	 0.00000000E+00
					 1.94962000E-03	-4.52882000E-03	-3.78869000E-03
					 0.00000000E+00	 0.00000000E+00	 0.00000000E+00
					 1.50143000E-03	-1.45209000E-04	-1.84757000E-03
					 1.15595000E-03	-2.07833000E-03	-1.82986000E-03
					 0.00000000E+00	 0.00000000E+00	 0.00000000E+00
					 2.17773000E-03	-3.47649000E-03	-3.55395000E-03
					 0.00000000E+00	 0.00000000E+00	 0.00000000E+00
					 9.82542000E-04	-1.38356000E-03	-1.83004000E-03
					 9.38442000E-04	-4.33841000E-03	-1.74260000E-03
					 0.00000000E+00	 0.00000000E+00	 0.00000000E+00
					 0.00000000E+00	 0.00000000E+00	 0.00000000E+00
					-3.57747000E-05	-6.10587000E-03	 1.20927000E-04
					-1.52402000E-03	-6.36408000E-03	 4.03516000E-03
					 0.00000000E+00	 0.00000000E+00	 0.00000000E+00
					 0.00000000E+00	 0.00000000E+00	 0.00000000E+00
					-4.92710000E-05	-5.30761000E-03	 1.53123000E-04
					-1.80015000E-03	-5.58655000E-03	 4.27777000E-03
					 0.00000000E+00	 0.00000000E+00	 0.00000000E+00
					 5.46784000E-06	-1.82532000E-03	 5.94960000E-05
					-7.84115000E-04	-6.14197000E-03	 1.83594000E-03
					-3.57294000E-04	-2.14430000E-03	 2.03987000E-03
					 0.00000000E+00	 0.00000000E+00	 0.00000000E+00
					 1.45686000E-03	-6.26984000E-03	-3.79948000E-03
					 0.00000000E+00	 0.00000000E+00	 0.00000000E+00
					 1.70655000E-03	-5.48874000E-03	-3.98047000E-03
					 0.00000000E+00	 0.00000000E+00	 0.00000000E+00
					 3.75765000E-04	-2.08298000E-03	-1.91173000E-03
					 7.13333000E-04	-6.09714000E-03	-1.59718000E-03
					-2.39504000E-04	-1.20480000E-02	 4.19312000E-04
					-4.36411000E-03	-1.22144000E-02	 6.85899000E-03
					-1.93737000E-04	-1.60692000E-02	 3.06437000E-04
					-4.12503000E-03	-1.62396000E-02	 6.78717000E-03
					-1.68437000E-04	-6.32145000E-03	 3.50904000E-04
					-2.29977000E-03	-1.21131000E-02	 3.65556000E-03
					-3.56135000E-03	-6.57163000E-03	 5.80000000E-03
					-2.17409000E-04	-1.40751000E-02	 3.60450000E-04
					-4.24479000E-03	-1.42442000E-02	 6.72619000E-03
					-1.27952000E-04	-9.51377000E-03	 2.56250000E-04
					-2.15523000E-03	-1.61345000E-02	 3.46619000E-03
					-3.13141000E-03	-9.76995000E-03	 5.74596000E-03
					 3.89165000E-03	-1.20367000E-02	-6.02933000E-03
					 3.73597000E-03	-1.60752000E-02	-6.18097000E-03
					 3.22890000E-03	-6.41999000E-03	-5.10928000E-03
					 1.82213000E-03	-1.20227000E-02	-2.81947000E-03
					 3.81540000E-03	-1.40805000E-02	-6.01120000E-03
					 2.88059000E-03	-9.63207000E-03	-5.24422000E-03
					 1.77238000E-03	-1.60546000E-02	-2.85209000E-03
					-1.54007000E-04	-1.99074000E-02	 1.95042000E-04
					-3.88374000E-03	-2.00637000E-02	 6.63384000E-03
					-1.73729000E-04	-1.80046000E-02	 2.53341000E-04
					-4.00429000E-03	-1.81992000E-02	 6.85700000E-03
					-9.33129000E-05	-1.23340000E-02	 1.65321000E-04
					-2.02432000E-03	-1.99619000E-02	 3.19445000E-03
					-2.72283000E-03	-1.25855000E-02	 5.61530000E-03
					 3.60080000E-03	-1.99211000E-02	-6.25063000E-03
					 3.66921000E-03	-1.80142000E-02	-6.35978000E-03
					 2.55080000E-03	-1.24655000E-02	-5.29261000E-03
					 1.72349000E-03	-1.98966000E-02	-2.80199000E-03
					-3.43983000E-04	-2.49791000E-02	 4.78385000E-04
					-5.68581000E-03	-2.49408000E-02	 6.93689000E-03
					-2.91984000E-04	-3.03537000E-02	 3.77782000E-04
					-5.75795000E-03	-3.04317000E-02	 6.86119000E-03
					-2.98869000E-04	-1.84973000E-02	 4.58704000E-04
					-3.01017000E-03	-2.49791000E-02	 3.73196000E-03
					-5.06960000E-03	-1.85856000E-02	 7.17841000E-03
					-3.17315000E-04	-2.76496000E-02	 4.32780000E-04
					-5.72555000E-03	-2.76825000E-02	 6.81381000E-03
					-2.51030000E-04	-2.32543000E-02	 3.43977000E-04
					-3.04910000E-03	-3.04176000E-02	 3.54470000E-03
					-5.00975000E-03	-2.33579000E-02	 7.10485000E-03
					 4.95597000E-03	-2.48126000E-02	-5.96460000E-03
					 5.16602000E-03	-3.02021000E-02	-6.12374000E-03
					 4.46531000E-03	-1.84098000E-02	-6.26437000E-03
					 2.30852000E-03	-2.49173000E-02	-2.76356000E-03
					 5.05900000E-03	-2.74844000E-02	-5.96178000E-03
					 4.50860000E-03	-2.31659000E-02	-6.42064000E-03
					 2.43964000E-03	-3.03057000E-02	-2.80926000E-03
					-2.42809000E-04	-3.58862000E-02	 2.68766000E-04
					-5.94240000E-03	-3.61013000E-02	 6.72439000E-03
					-2.67167000E-04	-3.31145000E-02	 3.21514000E-04
					-5.85359000E-03	-3.31282000E-02	 6.91678000E-03
					-1.95515000E-04	-2.80077000E-02	 2.25887000E-04
					-3.05752000E-03	-3.60226000E-02	 3.29438000E-03
					-4.99146000E-03	-2.81487000E-02	 6.94884000E-03
					 5.40721000E-03	-3.57697000E-02	-6.23126000E-03
					 5.28656000E-03	-3.29570000E-02	-6.29155000E-03
					 4.55942000E-03	-2.79234000E-02	-6.50244000E-03
					 2.57175000E-03	-3.58642000E-02	-2.80195000E-03
					-3.54726000E-04	-3.59750000E-02	 5.00251000E-04
					-6.43421000E-03	-3.57569000E-02	 5.09573000E-03