# vtk DataFile Version 3.0

ASCII
DATASET UNSTRUCTURED_GRID

POINTS 522 double
	 1.00000000E+00	 1.00000000E+00	-5.96046000E-08
	 1.00000000E+00	 5.00000000E-01	-5.96046000E-08
	 1.00000000E+00	 5.00000000E-01	 1.00000000E+00
	 1.00000000E+00	 1.00000000E+00	 1.00000000E+00
	 5.00000000E-01	 1.00000000E+00	-5.96046000E-08
	 5.00000000E-01	 5.00000000E-01	-5.96046000E-08
	 5.00000000E-01	 5.00000000E-01	 1.00000000E+00
	 5.00000000E-01	 1.00000000E+00	 1.00000000E+00
	 1.00000000E+00	 7.50000000E-01	-5.96046000E-08
	 1.00000000E+00	 5.00000000E-01	 5.00000000E-01
	 1.00000000E+00	 7.50000000E-01	 1.00000000E+00
	 1.00000000E+00	 1.00000000E+00	 5.00000000E-01
	 7.50000000E-01	 1.00000000E+00	-5.96046000E-08
	 7.50000000E-01	 5.00000000E-01	-5.96046000E-08
	 7.50000000E-01	 5.00000000E-01	 1.00000000E+00
	 7.50000000E-01	 1.00000000E+00	 1.00000000E+00
	 5.00000000E-01	 7.50000000E-01	-5.96046000E-08
	 5.00000000E-01	 5.00000000E-01	 5.00000000E-01
	 5.00000000E-01	 7.50000000E-01	 1.00000000E+00
	 5.00000000E-01	 1.00000000E+00	 5.00000000E-01
	 1.00000000E+00	-1.49012000E-08	-5.96046000E-08
	 1.00000000E+00	-1.49012000E-08	 1.00000000E+00
	 5.00000000E-01	-1.49012000E-08	-5.96046000E-08
	 5.00000000E-01	-1.49012000E-08	 1.00000000E+00
	 1.00000000E+00	 2.50000000E-01	-5.96046000E-08
	 1.00000000E+00	-1.49012000E-08	 5.00000000E-01
	 1.00000000E+00	 2.50000000E-01	 1.00000000E+00
	 7.50000000E-01	-1.49012000E-08	-5.96046000E-08
	 7.50000000E-01	-1.49012000E-08	 1.00000000E+00
	 5.00000000E-01	 2.50000000E-01	-5.96046000E-08
	 5.00000000E-01	-1.49012000E-08	 5.00000000E-01
	 5.00000000E-01	 2.50000000E-01	 1.00000000E+00
	-7.45058000E-09	 1.00000000E+00	-5.96046000E-08
	-7.45058000E-09	 5.00000000E-01	-5.96046000E-08
	-7.45058000E-09	 5.00000000E-01	 1.00000000E+00
	-7.45058000E-09	 1.00000000E+00	 1.00000000E+00
	 2.50000000E-01	 1.00000000E+00	-5.96046000E-08
	 2.50000000E-01	 5.00000000E-01	-5.96046000E-08
	 2.50000000E-01	 5.00000000E-01	 1.00000000E+00
	 2.50000000E-01	 1.00000000E+00	 1.00000000E+00
	-7.45058000E-09	 7.50000000E-01	-5.96046000E-08
	-7.45058000E-09	 5.00000000E-01	 5.00000000E-01
	-7.45058000E-09	 7.50000000E-01	 1.00000000E+00
	-7.45058000E-09	 1.00000000E+00	 5.00000000E-01
	-7.45058000E-09	-1.49012000E-08	-5.96046000E-08
	-7.45058000E-09	-1.49012000E-08	 1.00000000E+00
	 2.50000000E-01	-1.49012000E-08	-5.96046000E-08
	 2.50000000E-01	-1.49012000E-08	 1.00000000E+00
	-7.45058000E-09	 2.50000000E-01	-5.96046000E-08
	-7.45058000E-09	-1.49012000E-08	 5.00000000E-01
	-7.45058000E-09	 2.50000000E-01	 1.00000000E+00
	 1.00000000E+00	 5.00000000E-01	 2.00000000E+00
	 1.00000000E+00	 1.00000000E+00	 2.00000000E+00
	 5.00000000E-01	 5.00000000E-01	 2.00000000E+00
	 5.00000000E-01	 1.00000000E+00	 2.00000000E+00
	 1.00000000E+00	 5.00000000E-01	 1.50000000E+00
	 1.00000000E+00	 7.50000000E-01	 2.00000000E+00
	 1.00000000E+00	 1.00000000E+00	 1.50000000E+00
	 7.50000000E-01	 5.00000000E-01	 2.00000000E+00
	 7.50000000E-01	 1.00000000E+00	 2.00000000E+00
	 5.00000000E-01	 5.00000000E-01	 1.50000000E+00
	 5.00000000E-01	 7.50000000E-01	 2.00000000E+00
	 5.00000000E-01	 1.00000000E+00	 1.50000000E+00
	 1.00000000E+00	-1.49012000E-08	 2.00000000E+00
	 5.00000000E-01	-1.49012000E-08	 2.00000000E+00
	 1.00000000E+00	-1.49012000E-08	 1.50000000E+00
	 1.00000000E+00	 2.50000000E-01	 2.00000000E+00
	 7.50000000E-01	-1.49012000E-08	 2.00000000E+00
	 5.00000000E-01	-1.49012000E-08	 1.50000000E+00
	 5.00000000E-01	 2.50000000E-01	 2.00000000E+00
	-7.45058000E-09	 5.00000000E-01	 2.00000000E+00
	-7.45058000E-09	 1.00000000E+00	 2.00000000E+00
	 2.50000000E-01	 5.00000000E-01	 2.00000000E+00
	 2.50000000E-01	 1.00000000E+00	 2.00000000E+00
	-7.45058000E-09	 5.00000000E-01	 1.50000000E+00
	-7.45058000E-09	 7.50000000E-01	 2.00000000E+00
	-7.45058000E-09	 1.00000000E+00	 1.50000000E+00
	-7.45058000E-09	-1.49012000E-08	 2.00000000E+00
	 2.50000000E-01	-1.49012000E-08	 2.00000000E+00
	-7.45058000E-09	-1.49012000E-08	 1.50000000E+00
	-7.45058000E-09	 2.50000000E-01	 2.00000000E+00
	 1.00000000E+00	 5.00000000E-01	 3.00000000E+00
	 1.00000000E+00	 1.00000000E+00	 3.00000000E+00
	 5.00000000E-01	 5.00000000E-01	 3.00000000E+00
	 5.00000000E-01	 1.00000000E+00	 3.00000000E+00
	 1.00000000E+00	 5.00000000E-01	 2.50000000E+00
	 1.00000000E+00	 7.50000000E-01	 3.00000000E+00
	 1.00000000E+00	 1.00000000E+00	 2.50000000E+00
	 7.50000000E-01	 5.00000000E-01	 3.00000000E+00
	 7.50000000E-01	 1.00000000E+00	 3.00000000E+00
	 5.00000000E-01	 5.00000000E-01	 2.50000000E+00
	 5.00000000E-01	 7.50000000E-01	 3.00000000E+00
	 5.00000000E-01	 1.00000000E+00	 2.50000000E+00
	 1.00000000E+00	-1.49012000E-08	 3.00000000E+00
	 5.00000000E-01	-1.49012000E-08	 3.00000000E+00
	 1.00000000E+00	-1.49012000E-08	 2.50000000E+00
	 1.00000000E+00	 2.50000000E-01	 3.00000000E+00
	 7.50000000E-01	-1.49012000E-08	 3.00000000E+00
	 5.00000000E-01	-1.49012000E-08	 2.50000000E+00
	 5.00000000E-01	 2.50000000E-01	 3.00000000E+00
	-7.45058000E-09	 5.00000000E-01	 3.00000000E+00
	-7.45058000E-09	 1.00000000E+00	 3.00000000E+00
	 2.50000000E-01	 5.00000000E-01	 3.00000000E+00
	 2.50000000E-01	 1.00000000E+00	 3.00000000E+00
	-7.45058000E-09	 5.00000000E-01	 2.50000000E+00
	-7.45058000E-09	 7.50000000E-01	 3.00000000E+00
	-7.45058000E-09	 1.00000000E+00	 2.50000000E+00
	-7.45058000E-09	-1.49012000E-08	 3.00000000E+00
	 2.50000000E-01	-1.49012000E-08	 3.00000000E+00
	-7.45058000E-09	-1.49012000E-08	 2.50000000E+00
	-7.45058000E-09	 2.50000000E-01	 3.00000000E+00
	 1.00000000E+00	 5.00000000E-01	 4.00000000E+00
	 1.00000000E+00	 1.00000000E+00	 4.00000000E+00
	 5.00000000E-01	 5.00000000E-01	 4.00000000E+00
	 5.00000000E-01	 1.00000000E+00	 4.00000000E+00
	 1.00000000E+00	 5.00000000E-01	 3.50000000E+00
	 1.00000000E+00	 7.50000000E-01	 4.00000000E+00
	 1.00000000E+00	 1.00000000E+00	 3.50000000E+00
	 7.50000000E-01	 5.00000000E-01	 4.00000000E+00
	 7.50000000E-01	 1.00000000E+00	 4.00000000E+00
	 5.00000000E-01	 5.00000000E-01	 3.50000000E+00
	 5.00000000E-01	 7.50000000E-01	 4.00000000E+00
	 5.00000000E-01	 1.00000000E+00	 3.50000000E+00
	 1.00000000E+00	-1.49012000E-08	 4.00000000E+00
	 5.00000000E-01	-1.49012000E-08	 4.00000000E+00
	 1.00000000E+00	-1.49012000E-08	 3.50000000E+00
	 1.00000000E+00	 2.50000000E-01	 4.00000000E+00
	 7.50000000E-01	-1.49012000E-08	 4.00000000E+00
	 5.00000000E-01	-1.49012000E-08	 3.50000000E+00
	 5.00000000E-01	 2.50000000E-01	 4.00000000E+00
	-7.45058000E-09	 5.00000000E-01	 4.00000000E+00
	-7.45058000E-09	 1.00000000E+00	 4.00000000E+00
	 2.50000000E-01	 5.00000000E-01	 4.00000000E+00
	 2.50000000E-01	 1.00000000E+00	 4.00000000E+00
	-7.45058000E-09	 5.00000000E-01	 3.50000000E+00
	-7.45058000E-09	 7.50000000E-01	 4.00000000E+00
	-7.45058000E-09	 1.00000000E+00	 3.50000000E+00
	-7.45058000E-09	-1.49012000E-08	 4.00000000E+00
	 2.50000000E-01	-1.49012000E-08	 4.00000000E+00
	-7.45058000E-09	-1.49012000E-08	 3.50000000E+00
	-7.45058000E-09	 2.50000000E-01	 4.00000000E+00
	 1.00000000E+00	 5.00000000E-01	 5.00000000E+00
	 1.00000000E+00	 1.00000000E+00	 5.00000000E+00
	 5.00000000E-01	 5.00000000E-01	 5.00000000E+00
	 5.00000000E-01	 1.00000000E+00	 5.00000000E+00
	 1.00000000E+00	 5.00000000E-01	 4.50000000E+00
	 1.00000000E+00	 7.50000000E-01	 5.00000000E+00
	 1.00000000E+00	 1.00000000E+00	 4.50000000E+00
	 7.50000000E-01	 5.00000000E-01	 5.00000000E+00
	 7.50000000E-01	 1.00000000E+00	 5.00000000E+00
	 5.00000000E-01	 5.00000000E-01	 4.50000000E+00
	 5.00000000E-01	 7.50000000E-01	 5.00000000E+00
	 5.00000000E-01	 1.00000000E+00	 4.50000000E+00
	 1.00000000E+00	-1.49012000E-08	 5.00000000E+00
	 5.00000000E-01	-1.49012000E-08	 5.00000000E+00
	 1.00000000E+00	-1.49012000E-08	 4.50000000E+00
	 1.00000000E+00	 2.50000000E-01	 5.00000000E+00
	 7.50000000E-01	-1.49012000E-08	 5.00000000E+00
	 5.00000000E-01	-1.49012000E-08	 4.50000000E+00
	 5.00000000E-01	 2.50000000E-01	 5.00000000E+00
	-7.45058000E-09	 5.00000000E-01	 5.00000000E+00
	-7.45058000E-09	 1.00000000E+00	 5.00000000E+00
	 2.50000000E-01	 5.00000000E-01	 5.00000000E+00
	 2.50000000E-01	 1.00000000E+00	 5.00000000E+00
	-7.45058000E-09	 5.00000000E-01	 4.50000000E+00
	-7.45058000E-09	 7.50000000E-01	 5.00000000E+00
	-7.45058000E-09	 1.00000000E+00	 4.50000000E+00
	-7.45058000E-09	-1.49012000E-08	 5.00000000E+00
	 2.50000000E-01	-1.49012000E-08	 5.00000000E+00
	-7.45058000E-09	-1.49012000E-08	 4.50000000E+00
	-7.45058000E-09	 2.50000000E-01	 5.00000000E+00
	 1.00000000E+00	 5.00000000E-01	 6.00000000E+00
	 1.00000000E+00	 1.00000000E+00	 6.00000000E+00
	 5.00000000E-01	 5.00000000E-01	 6.00000000E+00
	 5.00000000E-01	 1.00000000E+00	 6.00000000E+00
	 1.00000000E+00	 5.00000000E-01	 5.50000000E+00
	 1.00000000E+00	 7.50000000E-01	 6.00000000E+00
	 1.00000000E+00	 1.00000000E+00	 5.50000000E+00
	 7.50000000E-01	 5.00000000E-01	 6.00000000E+00
	 7.50000000E-01	 1.00000000E+00	 6.00000000E+00
	 5.00000000E-01	 5.00000000E-01	 5.50000000E+00
	 5.00000000E-01	 7.50000000E-01	 6.00000000E+00
	 5.00000000E-01	 1.00000000E+00	 5.50000000E+00
	 1.00000000E+00	-1.49012000E-08	 6.00000000E+00
	 5.00000000E-01	-1.49012000E-08	 6.00000000E+00
	 1.00000000E+00	-1.49012000E-08	 5.50000000E+00
	 1.00000000E+00	 2.50000000E-01	 6.00000000E+00
	 7.50000000E-01	-1.49012000E-08	 6.00000000E+00
	 5.00000000E-01	-1.49012000E-08	 5.50000000E+00
	 5.00000000E-01	 2.50000000E-01	 6.00000000E+00
	-7.45058000E-09	 5.00000000E-01	 6.00000000E+00
	-7.45058000E-09	 1.00000000E+00	 6.00000000E+00
	 2.50000000E-01	 5.00000000E-01	 6.00000000E+00
	 2.50000000E-01	 1.00000000E+00	 6.00000000E+00
	-7.45058000E-09	 5.00000000E-01	 5.50000000E+00
	-7.45058000E-09	 7.50000000E-01	 6.00000000E+00
	-7.45058000E-09	 1.00000000E+00	 5.50000000E+00
	-7.45058000E-09	-1.49012000E-08	 6.00000000E+00
	 2.50000000E-01	-1.49012000E-08	 6.00000000E+00
	-7.45058000E-09	-1.49012000E-08	 5.50000000E+00
	-7.45058000E-09	 2.50000000E-01	 6.00000000E+00
	 1.00000000E+00	 5.00000000E-01	 7.00000000E+00
[...]
POINT_DATA 522
FIELD U 1
	U 3 522 double
		 0.00000000E+00	 0.00000000E+00	 0.00000000E+00
		 0.00000000E+00	 0.00000000E+00	 0.00000000E+00
		-1.02117000E-05	-5.00264000E-03	-5.07271000E-05
		 8.76171000E-04	-5.17210000E-03	 3.19412000E-03
		 0.00000000E+00	 0.00000000E+00	 0.00000000E+00
		 0.00000000E+00	 0.00000000E+00	 0.00000000E+00
		-1.20010000E-05	-3.92573000E-03	-3.97807000E-05
		 1.25470000E-03	-4.11108000E-03	 3.25216000E-03
		 0.00000000E+00	 0.00000000E+00	 0.00000000E+00
		-1.34410000E-05	-1.53955000E-03	-1.81050000E-05
		 4.32383000E-04	-5.01693000E-03	 1.40685000E-03
		 1.21318000E-04	-1.79606000E-03	 1.68758000E-03
		 0.00000000E+00	 0.00000000E+00	 0.00000000E+00
		 0.00000000E+00	 0.00000000E+00	 0.00000000E+00
		-1.31312000E-05	-4.52948000E-03	-4.31732000E-05
		 1.06694000E-03	-4.70923000E-03	 3.34123000E-03
		 0.00000000E+00	 0.00000000E+00	 0.00000000E+00
		-1.70715000E-05	-1.11209000E-03	-1.81723000E-05
		 6.19547000E-04	-3.94439000E-03	 1.55274000E-03
		 6.31207000E-04	-1.38666000E-03	 1.64515000E-03
		 0.00000000E+00	 0.00000000E+00	 0.00000000E+00
		-8.85471000E-04	-5.14658000E-03	-3.29856000E-03
		 0.00000000E+00	 0.00000000E+00	 0.00000000E+00
		-1.26803000E-03	-4.09522000E-03	-3.32849000E-03
		 0.00000000E+00	 0.00000000E+00	 0.00000000E+00
		-1.28391000E-04	-1.78247000E-03	-1.72318000E-03
		-4.50156000E-04	-5.00296000E-03	-1.50632000E-03
		 0.00000000E+00	 0.00000000E+00	 0.00000000E+00
		-1.08065000E-03	-4.68947000E-03	-3.43239000E-03
		 0.00000000E+00	 0.00000000E+00	 0.00000000E+00
		-6.43114000E-04	-1.39430000E-03	-1.68276000E-03
		-6.39048000E-04	-3.93702000E-03	-1.63070000E-03
		 0.00000000E+00	 0.00000000E+00	 0.00000000E+00
		 0.00000000E+00	 0.00000000E+00	 0.00000000E+00
		-5.60005000E-06	-2.48077000E-03	-3.39847000E-05
		 1.62965000E-03	-2.65539000E-03	 3.21305000E-03
		 0.00000000E+00	 0.00000000E+00	 0.00000000E+00
		 0.00000000E+00	 0.00000000E+00	 0.00000000E+00
		-9.13900000E-06	-3.27053000E-03	-3.84551000E-05
		 1.43793000E-03	-3.44733000E-03	 3.12926000E-03
		 0.00000000E+00	 0.00000000E+00	 0.00000000E+00
		-1.45663000E-05	-2.63628000E-04	-1.67545000E-05
		 8.14352000E-04	-2.49701000E-03	 1.64126000E-03
		 1.09990000E-03	-5.44673000E-04	 1.68286000E-03
		 0.00000000E+00	 0.00000000E+00	 0.00000000E+00
		-1.63210000E-03	-2.64229000E-03	-3.27277000E-03
		 0.00000000E+00	 0.00000000E+00	 0.00000000E+00
		-1.44622000E-03	-3.43204000E-03	-3.19567000E-03
		 0.00000000E+00	 0.00000000E+00	 0.00000000E+00
		-1.10362000E-03	-5.73575000E-04	-1.72054000E-03
		-8.22689000E-04	-2.49287000E-03	-1.70845000E-03
		 6.28722000E-06	-1.52152000E-02	-1.40638000E-04
		 2.06668000E-03	-1.53603000E-02	 5.14052000E-03
		 5.44999000E-06	-1.30404000E-02	-1.12470000E-04
		 2.29279000E-03	-1.31863000E-02	 5.17013000E-03
		 7.66719000E-06	-9.69124000E-03	-9.06069000E-05
		 1.03406000E-03	-1.52644000E-02	 2.43020000E-03
		 1.53967000E-03	-9.88099000E-03	 4.30120000E-03
		 7.78001000E-06	-1.41529000E-02	-1.28718000E-04
		 2.18085000E-03	-1.42945000E-02	 5.21377000E-03
		 2.79190000E-06	-8.01649000E-03	-6.91264000E-05
		 1.15181000E-03	-1.30946000E-02	 2.51919000E-03
		 1.82015000E-03	-8.20088000E-03	 4.34426000E-03
		-2.07762000E-03	-1.53271000E-02	-5.42338000E-03
		-2.29631000E-03	-1.31265000E-02	-5.39956000E-03
		-1.54181000E-03	-9.85847000E-03	-4.49275000E-03
		-1.02775000E-03	-1.52545000E-02	-2.71289000E-03
		-2.18706000E-03	-1.42433000E-02	-5.47224000E-03
		-1.82972000E-03	-8.15839000E-03	-4.48624000E-03
		-1.14545000E-03	-1.30640000E-02	-2.74525000E-03
		 2.65926000E-06	-1.06260000E-02	-7.64235000E-05
		 2.53642000E-03	-1.07682000E-02	 5.20128000E-03
		 3.42410000E-06	-1.18550000E-02	-9.38859000E-05
		 2.41528000E-03	-1.20003000E-02	 5.13381000E-03
		-3.84256000E-07	-6.03943000E-03	-4.91864000E-05
		 1.27054000E-03	-1.06777000E-02	 2.60524000E-03
		 2.12365000E-03	-6.22758000E-03	 4.34667000E-03
		-2.53246000E-03	-1.07037000E-02	-5.35949000E-03
		-2.41581000E-03	-1.19398000E-02	-5.32773000E-03
		-2.14027000E-03	-6.16443000E-03	-4.44292000E-03
		-1.26337000E-03	-1.06411000E-02	-2.75837000E-03
		-8.27884000E-07	-2.77324000E-02	-2.45167000E-04
		 2.57934000E-03	-2.79503000E-02	 6.71476000E-03
		 3.96976000E-06	-2.50078000E-02	-2.07693000E-04
		 2.88941000E-03	-2.52154000E-02	 6.73512000E-03
		 1.33343000E-06	-2.11960000E-02	-1.92839000E-04
		 1.28663000E-03	-2.78035000E-02	 3.25571000E-03
		 2.40948000E-03	-2.13817000E-02	 5.87425000E-03
		-2.74403000E-07	-2.64109000E-02	-2.27578000E-04
		 2.73350000E-03	-2.66211000E-02	 6.73948000E-03
		 6.08559000E-06	-1.86770000E-02	-1.58870000E-04
		 1.44646000E-03	-2.50714000E-02	 3.30030000E-03
		 2.65551000E-03	-1.88489000E-02	 5.89263000E-03
		-2.57047000E-03	-2.78334000E-02	-7.20685000E-03
		-2.87789000E-03	-2.51081000E-02	-7.15243000E-03
		-2.40611000E-03	-2.13041000E-02	-6.25391000E-03
		-1.28670000E-03	-2.77411000E-02	-3.74617000E-03
		-2.72386000E-03	-2.65118000E-02	-7.19530000E-03
		-2.64690000E-03	-1.87702000E-02	-6.21018000E-03
		-1.43759000E-03	-2.50185000E-02	-3.71561000E-03
		 1.27295000E-05	-2.19642000E-02	-1.64924000E-04
		 3.21206000E-03	-2.21712000E-02	 6.78565000E-03
		 8.76977000E-06	-2.35260000E-02	-1.85401000E-04
		 3.05107000E-03	-2.37333000E-02	 6.72354000E-03
		 1.10209000E-05	-1.58964000E-02	-1.17069000E-04
		 1.61167000E-03	-2.20275000E-02	 3.37964000E-03
		 2.91601000E-03	-1.60699000E-02	 5.93891000E-03
		-3.19150000E-03	-2.20575000E-02	-7.12192000E-03
		-3.03613000E-03	-2.36245000E-02	-7.10010000E-03
		-2.89999000E-03	-1.59836000E-02	-6.17879000E-03
		-1.58870000E-03	-2.19707000E-02	-3.71078000E-03
		-2.64099000E-06	-4.40150000E-02	-4.24301000E-04
		 2.68957000E-03	-4.42990000E-02	 9.07369000E-03
		-2.82859000E-06	-4.11006000E-02	-3.67820000E-04
		 3.10272000E-03	-4.14045000E-02	 9.13606000E-03
		-4.21188000E-06	-3.51851000E-02	-3.18165000E-04
		 1.34798000E-03	-4.41009000E-02	 4.30660000E-03
		 2.63850000E-03	-3.54380000E-02	 7.83092000E-03
		-2.65694000E-06	-4.26096000E-02	-3.96681000E-04
		 2.89664000E-03	-4.29067000E-02	 9.11417000E-03
		-3.68739000E-06	-3.23507000E-02	-2.73492000E-04
		 1.55101000E-03	-4.11963000E-02	 4.37583000E-03
		 3.01867000E-03	-3.26057000E-02	 7.86530000E-03
		-2.70710000E-03	-4.41277000E-02	-9.92715000E-03
		-3.11358000E-03	-4.12116000E-02	-9.87251000E-03
		-2.64165000E-03	-3.52957000E-02	-8.47501000E-03
		-1.35501000E-03	-4.40177000E-02	-5.15417000E-03
		-2.91298000E-03	-4.27224000E-02	-9.91397000E-03
		-3.02040000E-03	-3.24638000E-02	-8.41585000E-03
		-1.55714000E-03	-4.10992000E-02	-5.11069000E-03
		 3.74654000E-06	-3.77997000E-02	-3.07782000E-04
		 3.52342000E-03	-3.80976000E-02	 9.19450000E-03
		-1.64721000E-06	-3.95020000E-02	-3.39933000E-04
		 3.31047000E-03	-3.98060000E-02	 9.15816000E-03
		 3.40209000E-06	-2.91444000E-02	-2.26935000E-04
		 1.76120000E-03	-3.78930000E-02	 4.44101000E-03
		 3.41441000E-03	-2.93894000E-02	 7.92236000E-03
		-3.51396000E-03	-3.78990000E-02	-9.80365000E-03
		-3.31296000E-03	-3.96083000E-02	-9.83225000E-03
		-3.39914000E-03	-2.92522000E-02	-8.37569000E-03
		-1.75307000E-03	-3.77950000E-02	-5.05402000E-03
		 1.10797000E-05	-6.62912000E-02	-7.17923000E-04
		 3.10952000E-03	-6.65582000E-02	 1.10834000E-02
		 1.38755000E-05	-6.30651000E-02	-6.20889000E-04
		 3.36511000E-03	-6.33399000E-02	 1.12014000E-02
		-1.14457000E-06	-5.44792000E-02	-5.60561000E-04
		 1.56297000E-03	-6.63934000E-02	 5.09477000E-03
		 2.84726000E-03	-5.47526000E-02	 1.02217000E-02
		 1.24212000E-05	-6.47086000E-02	-6.68947000E-04
		 3.23685000E-03	-6.49831000E-02	 1.11838000E-02
		 2.33765000E-06	-5.14402000E-02	-4.84346000E-04
		 1.68929000E-03	-6.31721000E-02	 5.24126000E-03
		 3.20329000E-03	-5.17374000E-02	 1.03167000E-02
		-3.09390000E-03	-6.62578000E-02	-1.25250000E-02
		-3.33983000E-03	-6.30302000E-02	-1.24503000E-02
		-2.86794000E-03	-5.45220000E-02	-1.13448000E-02
		-1.54275000E-03	-6.62447000E-02	-6.53440000E-03
		-3.21596000E-03	-6.46750000E-02	-1.25262000E-02
		-3.20941000E-03	-5.14792000E-02	-1.12868000E-02
		-1.66228000E-03	-6.30181000E-02	-6.48507000E-03
		 2.28086000E-05	-5.95876000E-02	-5.25426000E-04
		 3.62038000E-03	-5.98661000E-02	 1.12759000E-02
		 1.71480000E-05	-6.13574000E-02	-5.73261000E-04
		 3.49169000E-03	-6.16328000E-02	 1.12232000E-02
		 1.26245000E-05	-4.80679000E-02	-4.05161000E-04
		 1.82183000E-03	-5.96968000E-02	 5.34462000E-03
		 3.55554000E-03	-4.83700000E-02	 1.03774000E-02
		-3.57679000E-03	-5.95532000E-02	-1.23347000E-02
		-3.45977000E-03	-6.13227000E-02	-1.23789000E-02
		-3.53853000E-03	-4.80991000E-02	-1.11877000E-02
		-1.77635000E-03	-5.95403000E-02	-6.39644000E-03
		 4.11341000E-05	-9.20523000E-02	-1.06804000E-03
		 3.73809000E-03	-9.22788000E-02	 1.17334000E-02
		 5.13794000E-05	-8.83239000E-02	-9.64327000E-04
		 3.82325000E-03	-8.85427000E-02	 1.18521000E-02
		 3.33536000E-05	-7.89671000E-02	-8.87320000E-04
		 1.88605000E-03	-9.21557000E-02	 5.27681000E-03
		 3.44033000E-03	-7.92184000E-02	 1.15355000E-02
		 4.62747000E-05	-9.01988000E-02	-1.01800000E-03
		 3.78160000E-03	-9.04182000E-02	 1.18271000E-02
		 3.39915000E-05	-7.54910000E-02	-7.84990000E-04
		 1.93812000E-03	-8.84235000E-02	 5.42372000E-03
		 3.59469000E-03	-7.57378000E-02	 1.16575000E-02
		-3.65296000E-03	-9.19303000E-02	-1.38871000E-02
		-3.72501000E-03	-8.81932000E-02	-1.37959000E-02
		-3.36795000E-03	-7.88762000E-02	-1.33225000E-02
		-1.80408000E-03	-9.19832000E-02	-7.41864000E-03
		-3.68813000E-03	-9.00695000E-02	-1.38794000E-02
		-3.52316000E-03	-7.54016000E-02	-1.32390000E-02
		-1.83700000E-03	-8.82506000E-02	-7.35724000E-03
		 6.40846000E-05	-8.45056000E-02	-8.37015000E-04
		 3.92271000E-03	-8.47293000E-02	 1.19674000E-02
		 5.68917000E-05	-8.64244000E-02	-9.03422000E-04
		 3.87207000E-03	-8.66453000E-02	 1.18843000E-02
		 3.84241000E-05	-7.18520000E-02	-6.75196000E-04
		 1.99444000E-03	-8.46085000E-02	 5.56841000E-03
		 3.75106000E-03	-7.21020000E-02	 1.17494000E-02
		-3.80523000E-03	-8.43661000E-02	-1.36571000E-02
		-3.76741000E-03	-8.62914000E-02	-1.37043000E-02
		-3.67271000E-03	-7.17651000E-02	-1.31123000E-02
		-1.86947000E-03	-8.44259000E-02	-7.25007000E-03
		 7.85322000E-05	-1.18415000E-01	-1.44282000E-03
		 3.93314000E-03	-1.18596000E-01	 1.16425000E-02
		 1.17979000E-04	-1.14576000E-01	-1.31372000E-03
		 3.95844000E-03	-1.14742000E-01	 1.17896000E-02
		 5.03270000E-05	-1.05252000E-01	-1.25592000E-03
		 2.00066000E-03	-1.18502000E-01	 5.10541000E-03
		 3.91181000E-03	-1.05465000E-01	 1.17519000E-02
		 9.24612000E-05	-1.16499000E-01	-1.37750000E-03
		 3.94224000E-03	-1.16665000E-01	 1.16974000E-02
		 7.85149000E-05	-1.01389000E-01	-1.14009000E-03
		 2.03763000E-03	-1.14654000E-01	 5.22766000E-03
		 3.95803000E-03	-1.01584000E-01	 1.18815000E-02
		-3.75033000E-03	-1.18247000E-01	-1.45352000E-02
		-3.72872000E-03	-1.14417000E-01	-1.44221000E-02
		-3.79755000E-03	-1.05113000E-01	-1.42825000E-02
		-1.83595000E-03	-1.18334000E-01	-7.99251000E-03
		-3.74268000E-03	-1.16336000E-01	-1.44583000E-02
		-3.80744000E-03	-1.01241000E-01	-1.41791000E-02
		-1.80346000E-03	-1.14501000E-01	-7.85574000E-03
		 1.54587000E-04	-1.10726000E-01	-1.18204000E-03
		 3.99116000E-03	-1.10911000E-01	 1.19292000E-02
		 1.42859000E-04	-1.12649000E-01	-1.25006000E-03
		 3.97740000E-03	-1.12824000E-01	 1.18819000E-02
		 1.06991000E-04	-9.74839000E-02	-1.00013000E-03
		 2.07451000E-03	-1.10814000E-01	 5.34561000E-03
		 4.02985000E-03	-9.76851000E-02	 1.20146000E-02
		-3.71654000E-03	-1.10547000E-01	-1.42970000E-02
		-3.71847000E-03	-1.12485000E-01	-1.43856000E-02
		-3.84133000E-03	-9.73115000E-02	-1.40323000E-02
		-1.77457000E-03	-1.10638000E-01	-7.70944000E-03
		 1.73489000E-04	-1.44412000E-01	-1.81896000E-03
		 3.81023000E-03	-1.44566000E-01	 1.12446000E-02
		 1.77187000E-04	-1.40799000E-01	-1.66569000E-03
		 3.82399000E-03	-1.40983000E-01	 1.14303000E-02
		 1.16300000E-04	-1.31422000E-01	-1.63163000E-03
		 1.99989000E-03	-1.44488000E-01	 4.72456000E-03
		 3.83886000E-03	-1.31582000E-01	 1.14466000E-02
		 1.76285000E-04	-1.42597000E-01	-1.73778000E-03
		 3.81691000E-03	-1.42769000E-01	 1.13215000E-02
		 1.48148000E-04	-1.27711000E-01	-1.48908000E-03
		 2.01186000E-03	-1.40892000E-01	 4.88362000E-03
		 3.85483000E-03	-1.27879000E-01	 1.16158000E-02
		-3.49050000E-03	-1.44212000E-01	-1.48286000E-02
		-3.49997000E-03	-1.40604000E-01	-1.47298000E-02
		-3.60022000E-03	-1.31252000E-01	-1.46872000E-02
		-1.66398000E-03	-1.44316000E-01	-8.34097000E-03
		-3.49239000E-03	-1.42404000E-01	-1.47610000E-02
		-3.57739000E-03	-1.27545000E-01	-1.45763000E-02
		-1.66900000E-03	-1.40705000E-01	-8.20770000E-03
		 1.72393000E-04	-1.37177000E-01	-1.56397000E-03
		 3.82571000E-03	-1.37400000E-01	 1.15825000E-02
		 1.76056000E-04	-1.38999000E-01	-1.60889000E-03
		 3.82568000E-03	-1.39197000E-01	 1.15249000E-02
		 1.74596000E-04	-1.23993000E-01	-1.38047000E-03
		 2.00950000E-03	-1.37293000E-01	 5.00358000E-03
		 3.87985000E-03	-1.24187000E-01	 1.17620000E-02
		-3.50426000E-03	-1.36978000E-01	-1.46666000E-02
		-3.50470000E-03	-1.38796000E-01	-1.47050000E-02
		-3.56187000E-03	-1.23818000E-01	-1.44948000E-02
		-1.67207000E-03	-1.37076000E-01	-8.11987000E-03
		 0.00000000E+00	 0.00000000E+00	 0.00000000E+00
		 0.00000000E+00	 0.00000000E+00	 0.00000000E+00
		 6.56684000E-06	-1.16523000E-02	 2.95262000E-06
		-3.64648000E-03	-1.26697000E-02	 1.30702000E-02
		 0.00000000E+00	 0.00000000E+00	 0.00000000E+00
		 0.00000000E+00	 0.00000000E+00	 0.00000000E+00
		 2.65990000E-05	-1.44086000E-02	-4.06011000E-05
		-1.85301000E-03	-1.54714000E-02	 1.31660000E-02
		 0.00000000E+00	 0.00000000E+00	 0.00000000E+00
		-9.78726000E-06	-1.96225000E-03	 3.32638000E-05
		-1.82545000E-03	-1.18611000E-02	 6.58391000E-03
		-2.89404000E-03	-3.19818000E-03	 6.60023000E-03
		 0.00000000E+00	 0.00000000E+00	 0.00000000E+00
		 0.00000000E+00	 0.00000000E+00	 0.00000000E+00
		 1.61573000E-05	-1.33262000E-02	-2.17966000E-05
		-2.73660000E-03	-1.43592000E-02	 1.29399000E-02
		 0.00000000E+00	 0.00000000E+00	 0.00000000E+00
		-1.87976000E-06	-3.79238000E-03	 8.02019000E-06
		-9.13654000E-04	-1.46239000E-02	 6.42856000E-03
		-9.26397000E-04	-4.98720000E-03	 6.39140000E-03
		 0.00000000E+00	 0.00000000E+00	 0.00000000E+00
		 3.65132000E-03	-1.22079000E-02	-1.31244000E-02
		 0.00000000E+00	 0.00000000E+00	 0.00000000E+00
		 1.92667000E-03	-1.50219000E-02	-1.33028000E-02
		 0.00000000E+00	 0.00000000E+00	 0.00000000E+00
		 2.88086000E-03	-3.00064000E-03	-6.54172000E-03
		 1.83453000E-03	-1.16186000E-02	-6.59754000E-03
		 0.00000000E+00	 0.00000000E+00	 0.00000000E+00
		 2.78043000E-03	-1.39059000E-02	-1.30421000E-02
		 0.00000000E+00	 0.00000000E+00	 0.00000000E+00
		 9.53829000E-04	-4.82600000E-03	-6.37371000E-03
		 9.73311000E-04	-1.43969000E-02	-6.52899000E-03
		 0.00000000E+00	 0.00000000E+00	 0.00000000E+00
		 0.00000000E+00	 0.00000000E+00	 0.00000000E+00
		 4.72736000E-05	-1.54294000E-02	-4.86507000E-05
		-4.45782000E-05	-1.64116000E-02	 1.30341000E-02
		 0.00000000E+00	 0.00000000E+00	 0.00000000E+00
		 0.00000000E+00	 0.00000000E+00	 0.00000000E+00
		 3.74565000E-05	-1.52117000E-02	-5.46082000E-05
		-9.59149000E-04	-1.62392000E-02	 1.32552000E-02
		 0.00000000E+00	 0.00000000E+00	 0.00000000E+00
		 7.63829000E-06	-3.84436000E-03	 1.84181000E-05
		-1.40488000E-06	-1.56081000E-02	 6.20076000E-03
		 1.11244000E-03	-4.97859000E-03	 6.59207000E-03
		 0.00000000E+00	 0.00000000E+00	 0.00000000E+00
		 1.80341000E-04	-1.59874000E-02	-1.31692000E-02
		 0.00000000E+00	 0.00000000E+00	 0.00000000E+00
		 1.06071000E-03	-1.57932000E-02	-1.34111000E-02
		 0.00000000E+00	 0.00000000E+00	 0.00000000E+00
		-1.04539000E-03	-4.84665000E-03	-6.55903000E-03
		 1.11232000E-04	-1.54070000E-02	-6.30957000E-03
		 1.38737000E-04	-4.92108000E-02	-6.12853000E-04
		-4.90372000E-03	-5.04911000E-02	 2.33786000E-02
		 1.67672000E-04	-5.35132000E-02	-7.28990000E-04
		-3.45199000E-03	-5.48234000E-02	 2.33176000E-02
		 7.32287000E-05	-2.75575000E-02	-1.94408000E-04
		-2.37589000E-03	-4.96890000E-02	 1.13475000E-02
		-4.38795000E-03	-2.87852000E-02	 1.87022000E-02
		 1.57213000E-04	-5.15188000E-02	-6.82535000E-04
		-4.17660000E-03	-5.28180000E-02	 2.32699000E-02
		 8.58077000E-05	-3.11720000E-02	-2.71252000E-04
		-1.63804000E-03	-5.40081000E-02	 1.11904000E-02
		-2.71619000E-03	-3.24162000E-02	 1.86830000E-02
		 5.15123000E-03	-4.92452000E-02	-2.46852000E-02
		 3.77772000E-03	-5.35682000E-02	-2.48617000E-02
		 4.49563000E-03	-2.79781000E-02	-1.91816000E-02
		 2.64203000E-03	-4.90731000E-02	-1.25934000E-02
		 4.47098000E-03	-5.15736000E-02	-2.47123000E-02
		 2.87837000E-03	-3.15967000E-02	-1.93097000E-02
		 1.97414000E-03	-5.33877000E-02	-1.26650000E-02
		 1.77948000E-04	-5.64423000E-02	-7.68546000E-04
		-2.01067000E-03	-5.77147000E-02	 2.32195000E-02
		 1.72556000E-04	-5.51352000E-02	-7.56408000E-04
		-2.73006000E-03	-5.64647000E-02	 2.33956000E-02
		 8.99091000E-05	-3.31568000E-02	-2.91545000E-04
		-9.23513000E-04	-5.69092000E-02	 1.09893000E-02
		-1.07275000E-03	-3.44035000E-02	 1.86129000E-02
		 2.41593000E-03	-5.65056000E-02	-2.48427000E-02
		 3.09573000E-03	-5.51893000E-02	-2.50002000E-02
		 1.27840000E-03	-3.35962000E-02	-1.92705000E-02
		 1.29724000E-03	-5.63235000E-02	-1.25395000E-02
		 3.98013000E-04	-1.06278000E-01	-2.14045000E-03
		-5.21327000E-03	-1.07623000E-01	 2.90416000E-02
		 4.45906000E-04	-1.11490000E-01	-2.29620000E-03
		-4.41158000E-03	-1.12943000E-01	 2.89622000E-02
		 2.48686000E-04	-7.57938000E-02	-1.26513000E-03
		-2.40462000E-03	-1.06848000E-01	 1.33254000E-02
		-5.16197000E-03	-7.71540000E-02	 2.68410000E-02
		 4.22186000E-04	-1.08981000E-01	-2.22127000E-03
		-4.81327000E-03	-1.10392000E-01	 2.89623000E-02
		 2.87074000E-04	-8.06416000E-02	-1.41059000E-03
		-2.00880000E-03	-1.12112000E-01	 1.31601000E-02
		-4.02306000E-03	-8.20198000E-02	 2.67745000E-02
		 5.98740000E-03	-1.05604000E-01	-3.33587000E-02
		 5.31400000E-03	-1.10844000E-01	-3.36276000E-02
		 5.65520000E-03	-7.54687000E-02	-2.94367000E-02
		 3.19070000E-03	-1.05853000E-01	-1.76084000E-02
		 5.64909000E-03	-1.08318000E-01	-3.34691000E-02
		 4.60517000E-03	-8.03294000E-02	-2.96686000E-02
		 2.88051000E-03	-1.11088000E-01	-1.77848000E-02
		 4.83294000E-04	-1.15995000E-01	-2.40461000E-03
		-3.72996000E-03	-1.17561000E-01	 2.87741000E-02
		 4.66758000E-04	-1.13850000E-01	-2.35800000E-03
		-4.07457000E-03	-1.15236000E-01	 2.89904000E-02
		 3.21209000E-04	-8.44155000E-02	-1.48610000E-03
		-1.59286000E-03	-1.16673000E-01	 1.28906000E-02
		-2.93941000E-03	-8.58153000E-02	 2.66222000E-02
		 4.65881000E-03	-1.15390000E-01	-3.36905000E-02
		 4.98849000E-03	-1.13197000E-01	-3.37878000E-02
		 3.55364000E-03	-8.41170000E-02	-2.96750000E-02
		 2.56034000E-03	-1.15630000E-01	-1.77571000E-02
		 8.60237000E-04	-1.73298000E-01	-4.31060000E-03
		-4.81346000E-03	-1.74394000E-01	 2.92348000E-02
		 9.01759000E-04	-1.79012000E-01	-4.43653000E-03
		-4.83418000E-03	-1.80561000E-01	 2.91541000E-02
		 5.71714000E-04	-1.39266000E-01	-3.18456000E-03
		-1.97848000E-03	-1.73840000E-01	 1.23863000E-02
		-5.08448000E-03	-1.40605000E-01	 2.96812000E-02
		 8.82869000E-04	-1.76125000E-01	-4.37063000E-03
		-4.81684000E-03	-1.77392000E-01	 2.92014000E-02
		 6.11436000E-04	-1.44794000E-01	-3.37313000E-03
		-1.84297000E-03	-1.79769000E-01	 1.22777000E-02
		-4.74362000E-03	-1.46079000E-01	 2.96512000E-02
		 6.36394000E-03	-1.72180000E-01	-3.78561000E-02
		 6.34118000E-03	-1.77725000E-01	-3.80133000E-02
		 6.21373000E-03	-1.38330000E-01	-3.60783000E-02
		 3.61519000E-03	-1.72752000E-01	-2.10030000E-02
		 6.35790000E-03	-1.74948000E-01	-3.79429000E-02
		 5.90821000E-03	-1.43820000E-01	-3.63170000E-02
		 3.60991000E-03	-1.78355000E-01	-2.11509000E-02
		 8.03743000E-04	-1.84666000E-01	-4.56812000E-03
		-4.72811000E-03	-1.86587000E-01	 2.89948000E-02
		 8.53676000E-04	-1.81805000E-01	-4.50715000E-03
		-4.77665000E-03	-1.84061000E-01	 2.91069000E-02
		 6.25079000E-04	-1.49964000E-01	-3.57122000E-03
		-2.07567000E-03	-1.85590000E-01	 1.20946000E-02
		-4.24669000E-03	-1.51134000E-01	 2.94506000E-02
		 6.33935000E-03	-1.83243000E-01	-3.80988000E-02