<?xml version="1.0"?>
<VTKFile type="UnstructuredGrid" version="0.1" byte_order="LittleEndian">
	<UnstructuredGrid>
		<Piece NumberOfPoints="522" NumberOfCells="64">
			<Points>
				<DataArray type="Float64" NumberOfComponents="3" format="ascii">
					 1.00000000E+00	 1.00000000E+00	-5.96046000E-08
					 1.00000000E+00	 5.00000000E-01	-5.96046000E-08
					 1.00000000E+00	 5.00000000E-01	 1.00000000E+00
					 1.00000000E+00	 1.00000000E+00	 1.00000000E+00
					 5.00000000E-01	 1.00000000E+00	-5.96046000E-08
					 5.00000000E-01	 5.00000000E-01	-5.96046000E-08
					 5.00000000E-01	 5.00000000E-01	 1.00000000E+00
					 5.00000000E-01	 1.00000000E+00	 1.00000000E+00
					 1.00000000E+00	 7.50000000E-01	-5.96046000E-08
					 1.00000000E+00	 5.00000000E-01	 5.00000000E-01
					 1.00000000E+00	 7.50000000E-01	 1.00000000E+00
					 1.00000000E+00	 1.00000000E+00	 5.00000000E-01
					 7.50000000E-01	 1.00000000E+00	-5.96046000E-08
					 7.50000000E-01	 5.00000000E-01	-5.96046000E-08
					 7.50000000E-01	 5.00000000E-01	 1.00000000E+00
					 7.50000000E-01	 1.00000000E+00	 1.00000000E+00
					 5.00000000E-01	 7.50000000E-01	-5.96046000E-08
					 5.00000000E-01	 5.00000000E-01	 5.00000000E-01
					 5.00000000E-01	 7.50000000E-01	 1.00000000E+00
					 5.00000000E-01	 1.00000000E+00	 5.00000000E-01
					 1.00000000E+00	-1.49012000E-08	-5.96046000E-08
					 1.00000000E+00	-1.49012000E-08	 1.00000000E+00
					 5.00000000E-01	-1.49012000E-08	-5.96046000E-08
					 5.00000000E-01	-1.49012000E-08	 1.00000000E+00
					 1.00000000E+00	 2.50000000E-01	-5.96046000E-08
					 1.00000000E+00	-1.49012000E-08	 5.00000000E-01
					 1.00000000E+00	 2.50000000E-01	 1.00000000E+00
					 7.50000000E-01	-1.49012000E-08	-5.96046000E-08
					 7.50000000E-01	-1.49012000E-08	 1.00000000E+00
					 5.00000000E-01	 2.50000000E-01	-5.96046000E-08
					 5.00000000E-01	-1.49012000E-08	 5.00000000E-01
					 5.00000000E-01	 2.50000000E-01	 1.00000000E+00
					-7.45058000E-09	 1.00000000E+00	-5.96046000E-08
					-7.45058000E-09	 5.00000000E-01	-5.96046000E-08
					-7.45058000E-09	 5.00000000E-01	 1.00000000E+00
					-7.45058000E-09	 1.00000000E+00	 1.00000000E+00
					 2.50000000E-01	 1.00000000E+00	-5.96046000E-08
					 2.50000000E-01	 5.00000000E-01	-5.96046000E-08
					 2.50000000E-01	 5.00000000E-01	 1.00000000E+00
					 2.50000000E-01	 1.00000000E+00	 1.00000000E+00
					-7.45058000E-09	 7.50000000E-01	-5.96046000E-08
					-7.45058000E-09	 5.00000000E-01	 5.00000000E-01
					-7.45058000E-09	 7.50000000E-01	 1.00000000E+00
					-7.45058000E-09	 1.00000000E+00	 5.00000000E-01
					-7.45058000E-09	-1.49012000E-08	-5.96046000E-08
					-7.45058000E-09	-1.49012000E-08	 1.00000000E+00
					 2.50000000E-01	-1.49012000E-08	-5.96046000E-08
					 2.50000000E-01	-1.49012000E-08	 1.00000000E+00
					-7.45058000E-09	 2.50000000E-01	-5.96046000E-08
					-7.45058000E-09	-1.49012000E-08	 5.00000000E-01
					-7.45058000E-09	 2.50000000E-01	 1.00000000E+00
					 1.00000000E+00	 5.00000000E-01	 2.00000000E+00
					 1.00000000E+00	 1.00000000E+00	 2.00000000E+00
					 5.00000000E-01	 5.00000000E-01	 2.00000000E+00
					 5.00000000E-01	 1.00000000E+00	 2.00000000E+00
					 1.00000000E+00	 5.00000000E-01	 1.50000000E+00
					 1.00000000E+00	 7.50000000E-01	 2.00000000E+00
					 1.00000000E+00	 1.00000000E+00	 1.50000000E+00
					 7.50000000E-01	 5.00000000E-01	 2.00000000E+00
					 7.50000000E-01	 1.00000000E+00	 2.00000000E+00
					 5.00000000E-01	 5.00000000E-01	 1.50000000E+00
					 5.00000000E-01	 7.50000000E-01	 2.00000000E+00
					 5.00000000E-01	 1.00000000E+00	 1.50000000E+00
					 1.00000000E+00	-1.49012000E-08	 2.00000000E+00
					 5.00000000E-01	-1.49012000E-08	 2.00000000E+00
					 1.00000000E+00	-1.49012000E-08	 1.50000000E+00
					 1.00000000E+00	 2.50000000E-01	 2.00000000E+00
					 7.50000000E-01	-1.49012000E-08	 2.00000000E+00
					 5.00000000E-01	-1.49012000E-08	 1.50000000E+00
					 5.00000000E-01	 2.50000000E-01	 2.00000000E+00
					-7.45058000E-09	 5.00000000E-01	 2.00000000E+00
					-7.45058000E-09	 1.00000000E+00	 2.00000000E+00
					 2.50000000E-01	 5.00000000E-01	 2.00000000E+00
					 2.50000000E-01	 1.00000000E+00	 2.00000000E+00
					-7.45058000E-09	 5.00000000E-01	 1.50000000E+00
					-7.45058000E-09	 7.50000000E-01	 2.00000000E+00
					-7.45058000E-09	 1.00000000E+00	 1.50000000E+00
					-7.45058000E-09	-1.49012000E-08	 2.00000000E+00
					 2.50000000E-01	-1.49012000E-08	 2.00000000E+00
					-7.45058000E-09	-1.49012000E-08	 1.50000000E+00
					-7.45058000E-09	 2.50000000E-01	 2.00000000E+00
					 1.00000000E+00	 5.00000000E-01	 3.00000000E+00
					 1.00000000E+00	 1.00000000E+00	 3.00000000E+00
					 5.00000000E-01	 5.00000000E-01	 3.00000000E+00
					 5.00000000E-01	 1.00000000E+00	 3.00000000E+00
					 1.00000000E+00	 5.00000000E-01	 2.50000000E+00
					 1.00000000E+00	 7.50000000E-01	 3.00000000E+00
					 1.00000000E+00	 1.00000000E+00	 2.50000000E+00
					 7.50000000E-01	 5.00000000E-01	 3.00000000E+00
					 7.50000000E-01	 1.00000000E+00	 3.00000000E+00
					 5.00000000E-01	 5.00000000E-01	 2.50000000E+00
					 5.00000000E-01	 7.50000000E-01	 3.00000000E+00
					 5.00000000E-01	 1.00000000E+00	 2.50000000E+00
					 1.00000000E+00	-1.49012000E-08	 3.00000000E+00
					 5.00000000E-01	-1.49012000E-08	 3.00000000E+00
					 1.00000000E+00	-1.49012000E-08	 2.50000000E+00
					 1.00000000E+00	 2.50000000E-01	 3.00000000E+00
					 7.50000000E-01	-1.49012000E-08	 3.00000000E+00
					 5.00000000E-01	-1.49012000E-08	 2.50000000E+00
					 5.00000000E-01	 2.50000000E-01	 3.00000000E+00
					-7.45058000E-09	 5.00000000E-01	 3.00000000E+00
					-7.45058000E-09	 1.00000000E+00	 3.00000000E+00
					 2.50000000E-01	 5.00000000E-01	 3.00000000E+00
					 2.50000000E-01	 1.00000000E+00	 3.00000000E+00
					-7.45058000E-09	 5.00000000E-01	 2.50000000E+00
					-7.45058000E-09	 7.50000000E-01	 3.00000000E+00
					-7.45058000E-09	 1.00000000E+00	 2.50000000E+00
					-7.45058000E-09	-1.49012000E-08	 3.00000000E+00
					 2.50000000E-01	-1.49012000E-08	 3.00000000E+00
					-7.45058000E-09	-1.49012000E-08	 2.50000000E+00
					-7.45058000E-09	 2.50000000E-01	 3.00000000E+00
					 1.00000000E+00	 5.00000000E-01	 4.00000000E+00
					 1.00000000E+00	 1.00000000E+00	 4.00000000E+00
					 5.00000000E-01	 5.00000000E-01	 4.00000000E+00
					 5.00000000E-01	 1.00000000E+00	 4.00000000E+00
					 1.00000000E+00	 5.00000000E-01	 3.50000000E+00
					 1.00000000E+00	 7.50000000E-01	 4.00000000E+00
					 1.00000000E+00	 1.00000000E+00	 3.50000000E+00
					 7.50000000E-01	 5.00000000E-01	 4.00000000E+00
					 7.50000000E-01	 1.00000000E+00	 4.00000000E+00
					 5.00000000E-01	 5.00000000E-01	 3.50000000E+00
					 5.00000000E-01	 7.50000000E-01	 4.00000000E+00
					 5.00000000E-01	 1.00000000E+00	 3.50000000E+00
					 1.00000000E+00	-1.49012000E-08	 4.00000000E+00
					 5.00000000E-01	-1.49012000E-08	 4.00000000E+00
					 1.00000000E+00	-1.49012000E-08	 3.50000000E+00
					 1.00000000E+00	 2.50000000E-01	 4.00000000E+00
					 7.50000000E-01	-1.49012000E-08	 4.00000000E+00
					 5.00000000E-01	-1.49012000E-08	 3.50000000E+00
					 5.00000000E-01	 2.50000000E-01	 4.00000000E+00
					-7.45058000E-09	 5.00000000E-01	 4.00000000E+00
					-7.45058000E-09	 1.00000000E+00	 4.00000000E+00
					 2.50000000E-01	 5.00000000E-01	 4.00000000E+00
					 2.50000000E-01	 1.00000000E+00	 4.00000000E+00
					-7.45058000E-09	 5.00000000E-01	 3.50000000E+00
					-7.45058000E-09	 7.50000000E-01	 4.00000000E+00
					-7.45058000E-09	 1.00000000E+00	 3.50000000E+00
					-7.45058000E-09	-1.49012000E-08	 4.00000000E+00
					 2.50000000E-01	-1.49012000E-08	 4.00000000E+00
					-7.45058000E-09	-1.49012000E-08	 3.50000000E+00
					-7.45058000E-09	 2.50000000E-01	 4.00000000E+00
					 1.00000000E+00	 5.00000000E-01	 5.00000000E+00
					 1.00000000E+00	 1.00000000E+00	 5.00000000E+00
					 5.00000000E-01	 5.00000000E-01	 5.00000000E+00
					 5.00000000E-01	 1.00000000E+00	 5.00000000E+00
					 1.00000000E+00	 5.00000000E-01	 4.50000000E+00
					 1.00000000E+00	 7.50000000E-01	 5.00000000E+00
					 1.00000000E+00	 1.00000000E+00	 4.50000000E+00
					 7.50000000E-01	 5.00000000E-01	 5.00000000E+00
					 7.50000000E-01	 1.00000000E+00	 5.00000000E+00
					 5.00000000E-01	 5.00000000E-01	 4.50000000E+00
					 5.00000000E-01	 7.50000000E-01	 5.00000000E+00
					 5.00000000E-01	 1.00000000E+00	 4.50000000E+00
					 1.00000000E+00	-1.49012000E-08	 5.00000000E+00
					 5.00000000E-01	-1.49012000E-08	 5.00000000E+00
					 1.00000000E+00	-1.49012000E-08	 4.50000000E+00
					 1.00000000E+00	 2.50000000E-01	 5.00000000E+00
					 7.50000000E-01	-1.49012000E-08	 5.00000000E+00
					 5.00000000E-01	-1.49012000E-08	 4.50000000E+00
					 5.00000000E-01	 2.50000000E-01	 5.00000000E+00
					-7.45058000E-09	 5.00000000E-01	 5.00000000E+00
					-7.45058000E-09	 1.00000000E+00	 5.00000000E+00
					 2.50000000E-01	 5.00000000E-01	 5.00000000E+00
					 2.50000000E-01	 1.00000000E+00	 5.00000000E+00
					-7.45058000E-09	 5.00000000E-01	 4.50000000E+00
					-7.45058000E-09	 7.50000000E-01	 5.00000000E+00
					-7.45058000E-09	 1.00000000E+00	 4.50000000E+00
					-7.45058000E-09	-1.49012000E-08	 5.00000000E+00
					 2.50000000E-01	-1.49012000E-08	 5.00000000E+00
					-7.45058000E-09	-1.49012000E-08	 4.50000000E+00
					-7.45058000E-09	 2.50000000E-01	 5.00000000E+00
					 1.00000000E+00	 5.00000000E-01	 6.00000000E+00
					 1.00000000E+00	 1.00000000E+00	 6.00000000E+00
					 5.00000000E-01	 5.00000000E-01	 6.00000000E+00
					 5.00000000E-01	 1.00000000E+00	 6.00000000E+00
					 1.00000000E+00	 5.00000000E-01	 5.50000000E+00
					 1.00000000E+00	 7.50000000E-01	 6.00000000E+00
					 1.00000000E+00	 1.00000000E+00	 5.50000000E+00
					 7.50000000E-01	 5.00000000E-01	 6.00000000E+00
					 7.50000000E-01	 1.00000000E+00	 6.00000000E+00
					 5.00000000E-01	 5.00000000E-01	 5.50000000E+00
					 5.00000000E-01	 7.50000000E-01	 6.00000000E+00
					 5.00000000E-01	 1.00000000E+00	 5.50000000E+00
					 1.00000000E+00	-1.49012000E-08	 6.00000000E+00
[...]
			<PointData>
				<DataArray type="Float32" Name="U" NumberOfComponents="3" ComponentName0="D1" ComponentName1="D2" ComponentName2="D3" format="ascii">
					 0.00000000E+00	 0.00000000E+00	 0.00000000E+00
					 0.00000000E+00	 0.00000000E+00	 0.00000000E+00
					 7.45774000E-06	-3.55911000E-03	 1.06053000E-06
					 6.62120000E-04	-3.68776000E-03	 2.36363000E-03
					 0.00000000E+00	 0.00000000E+00	 0.00000000E+00
					 0.00000000E+00	 0.00000000E+00	 0.00000000E+00
					 6.19564000E-06	-2.74442000E-03	 9.53392000E-06
					 9.66396000E-04	-2.89171000E-03	 2.40017000E-03
					 0.00000000E+00	 0.00000000E+00	 0.00000000E+00
					-1.20876000E-06	-1.07046000E-03	 6.25687000E-06
					 3.36808000E-04	-3.56817000E-03	 1.06451000E-03
					 9.28511000E-05	-1.25395000E-03	 1.21957000E-03
					 0.00000000E+00	 0.00000000E+00	 0.00000000E+00
					 0.00000000E+00	 0.00000000E+00	 0.00000000E+00
					 7.05503000E-06	-3.20248000E-03	 5.15726000E-06
					 8.15335000E-04	-3.34362000E-03	 2.46981000E-03
					 0.00000000E+00	 0.00000000E+00	 0.00000000E+00
					-2.23706000E-07	-7.58728000E-04	 9.24216000E-06
					 4.85677000E-04	-2.76229000E-03	 1.17366000E-03
					 4.70818000E-04	-9.64837000E-04	 1.19073000E-03
					 0.00000000E+00	 0.00000000E+00	 0.00000000E+00
					-6.51825000E-04	-3.67981000E-03	-2.36404000E-03
					 0.00000000E+00	 0.00000000E+00	 0.00000000E+00
					-9.58703000E-04	-2.87628000E-03	-2.38450000E-03
					 0.00000000E+00	 0.00000000E+00	 0.00000000E+00
					-9.61657000E-05	-1.24641000E-03	-1.20994000E-03
					-3.22934000E-04	-3.56652000E-03	-1.06287000E-03
					 0.00000000E+00	 0.00000000E+00	 0.00000000E+00
					-8.05929000E-04	-3.33083000E-03	-2.46295000E-03
					 0.00000000E+00	 0.00000000E+00	 0.00000000E+00
					-4.73229000E-04	-9.54243000E-04	-1.17366000E-03
					-4.74606000E-04	-2.75509000E-03	-1.15578000E-03
					 0.00000000E+00	 0.00000000E+00	 0.00000000E+00
					 0.00000000E+00	 0.00000000E+00	 0.00000000E+00
					 6.56731000E-06	-1.63118000E-03	 2.13157000E-05
					 1.26427000E-03	-1.77608000E-03	 2.38424000E-03
					 0.00000000E+00	 0.00000000E+00	 0.00000000E+00
					 0.00000000E+00	 0.00000000E+00	 0.00000000E+00
					 5.71598000E-06	-2.23991000E-03	 1.46485000E-05
					 1.11273000E-03	-2.38346000E-03	 2.30574000E-03
					 0.00000000E+00	 0.00000000E+00	 0.00000000E+00
					 1.68083000E-06	-1.27220000E-04	 1.13984000E-05
					 6.37360000E-04	-1.65105000E-03	 1.25924000E-03
					 8.13728000E-04	-3.50466000E-04	 1.22584000E-03
					 0.00000000E+00	 0.00000000E+00	 0.00000000E+00
					-1.25504000E-03	-1.75258000E-03	-2.34473000E-03
					 0.00000000E+00	 0.00000000E+00	 0.00000000E+00
					-1.10576000E-03	-2.36444000E-03	-2.27970000E-03
					 0.00000000E+00	 0.00000000E+00	 0.00000000E+00
					-8.11631000E-04	-3.37050000E-04	-1.20330000E-03
					-6.25383000E-04	-1.63825000E-03	-1.21754000E-03
					 1.42495000E-05	-1.13415000E-02	-2.53798000E-05
					 1.58661000E-03	-1.14818000E-02	 4.13125000E-03
					 2.01332000E-05	-9.67018000E-03	-1.69568000E-06
					 1.80041000E-03	-9.80355000E-03	 4.16471000E-03
					 1.00503000E-05	-7.02520000E-03	-1.27782000E-05
					 7.97691000E-04	-1.13891000E-02	 1.98344000E-03
					 1.15979000E-03	-7.18596000E-03	 3.32725000E-03
					 1.63825000E-05	-1.05303000E-02	-1.30098000E-05
					 1.69429000E-03	-1.06641000E-02	 4.19729000E-03
					 1.39204000E-05	-5.74959000E-03	 2.91889000E-06
					 9.11562000E-04	-9.71348000E-03	 2.06000000E-03
					 1.42226000E-03	-5.90388000E-03	 3.35392000E-03
					-1.55369000E-03	-1.14270000E-02	-4.18255000E-03
					-1.75443000E-03	-9.75404000E-03	-4.16887000E-03
					-1.14477000E-03	-7.16157000E-03	-3.34904000E-03
					-7.67692000E-04	-1.13606000E-02	-2.03411000E-03
					-1.65615000E-03	-1.06112000E-02	-4.22413000E-03
					-1.39651000E-03	-5.87318000E-03	-3.34850000E-03
					-8.69004000E-04	-9.68856000E-03	-2.06349000E-03
					 2.91299000E-05	-7.79143000E-03	 2.07994000E-05
					 2.03325000E-03	-7.91125000E-03	 4.17499000E-03
					 2.46894000E-05	-8.75374000E-03	 9.03597000E-06
					 1.91671000E-03	-8.88299000E-03	 4.13309000E-03
					 1.96651000E-05	-4.20824000E-03	 2.46636000E-05
					 1.02961000E-03	-7.82646000E-03	 2.11241000E-03
					 1.70356000E-03	-4.35426000E-03	 3.36080000E-03
					-1.96843000E-03	-7.86890000E-03	-4.13370000E-03
					-1.86106000E-03	-8.83748000E-03	-4.11461000E-03
					-1.66449000E-03	-4.32158000E-03	-3.31560000E-03
					-9.68739000E-04	-7.80621000E-03	-2.07163000E-03
					 3.81034000E-05	-2.17086000E-02	-7.23462000E-05
					 2.11004000E-03	-2.17906000E-02	 5.20639000E-03
					 4.34338000E-05	-1.95738000E-02	-3.72963000E-05
					 2.22893000E-03	-1.96634000E-02	 5.25886000E-03
					 2.73443000E-05	-1.62881000E-02	-4.05449000E-05
					 1.07567000E-03	-2.17312000E-02	 2.51463000E-03
					 1.90660000E-03	-1.64057000E-02	 4.75376000E-03
					 4.12286000E-05	-2.06577000E-02	-5.60687000E-05
					 2.16971000E-03	-2.07437000E-02	 5.25293000E-03
					 3.12058000E-05	-1.43277000E-02	-1.31911000E-05
					 1.13736000E-03	-1.96012000E-02	 2.58074000E-03
					 2.06833000E-03	-1.44420000E-02	 4.79598000E-03
					-2.04777000E-03	-2.17449000E-02	-5.35451000E-03
					-2.15798000E-03	-1.95966000E-02	-5.33734000E-03
					-1.85249000E-03	-1.63479000E-02	-4.84635000E-03
					-1.00428000E-03	-2.17126000E-02	-2.66026000E-03
					-2.10248000E-03	-2.06870000E-02	-5.36864000E-03
					-2.00948000E-03	-1.43811000E-02	-4.82644000E-03
					-1.05620000E-03	-1.95688000E-02	-2.65630000E-03
					 4.85100000E-05	-1.73227000E-02	 2.38277000E-06
					 2.35887000E-03	-1.74141000E-02	 5.28655000E-03
					 4.56165000E-05	-1.84634000E-02	-1.71777000E-05
					 2.29365000E-03	-1.85560000E-02	 5.26356000E-03
					 3.73418000E-05	-1.22047000E-02	 1.22016000E-05
					 1.20255000E-03	-1.73529000E-02	 2.62745000E-03
					 2.24755000E-03	-1.23178000E-02	 4.81670000E-03
					-2.27793000E-03	-1.73242000E-02	-5.28669000E-03
					-2.21909000E-03	-1.84782000E-02	-5.30323000E-03
					-2.17792000E-03	-1.22482000E-02	-4.78934000E-03
					-1.11105000E-03	-1.73057000E-02	-2.62306000E-03
					 5.35880000E-05	-3.33960000E-02	-1.33118000E-04
					 2.36955000E-03	-3.34071000E-02	 5.33654000E-03
					 6.25848000E-05	-3.11308000E-02	-9.23388000E-05
					 2.29253000E-03	-3.11254000E-02	 5.40072000E-03
					 4.45327000E-05	-2.75142000E-02	-1.09019000E-04
					 1.20967000E-03	-3.34125000E-02	 2.54560000E-03
					 2.27329000E-03	-2.75632000E-02	 5.42448000E-03
					 5.75708000E-05	-3.22551000E-02	-1.12700000E-04
					 2.32944000E-03	-3.22566000E-02	 5.37261000E-03
					 5.22090000E-05	-2.52736000E-02	-6.57638000E-05
					 1.17666000E-03	-3.11381000E-02	 2.59765000E-03
					 2.31221000E-03	-2.53185000E-02	 5.48553000E-03
					-2.25261000E-03	-3.33198000E-02	-5.59921000E-03
					-2.15678000E-03	-3.10534000E-02	-5.58131000E-03
					-2.18686000E-03	-2.74920000E-02	-5.63271000E-03
					-1.09836000E-03	-3.33683000E-02	-2.81071000E-03
					-2.20454000E-03	-3.21759000E-02	-5.59402000E-03
					-2.20678000E-03	-2.52445000E-02	-5.61651000E-03
					-1.04796000E-03	-3.11031000E-02	-2.78126000E-03
					 7.12780000E-05	-2.89422000E-02	-5.57809000E-05
					 2.22651000E-03	-2.89225000E-02	 5.41117000E-03
					 6.69906000E-05	-3.00255000E-02	-7.28170000E-05
					 2.26189000E-03	-3.00161000E-02	 5.43563000E-03
					 6.06131000E-05	-2.29988000E-02	-1.86781000E-05
					 1.14568000E-03	-2.89398000E-02	 2.59458000E-03
					 2.36180000E-03	-2.30308000E-02	 5.50637000E-03
					-2.07374000E-03	-2.88664000E-02	-5.51780000E-03
					-2.11617000E-03	-2.99505000E-02	-5.57712000E-03
					-2.23568000E-03	-2.29631000E-02	-5.55212000E-03
					-1.00061000E-03	-2.89170000E-02	-2.70486000E-03
					 1.02808000E-04	-4.34035000E-02	-1.68115000E-04
					 2.19475000E-03	-4.33077000E-02	 3.97094000E-03
					 1.04826000E-04	-4.14687000E-02	-1.39350000E-04
					 1.90182000E-03	-4.13569000E-02	 4.00317000E-03
					 7.55398000E-05	-3.88698000E-02	-1.53860000E-04
					 1.14125000E-03	-4.33976000E-02	 1.93880000E-03
					 2.35619000E-03	-3.88250000E-02	 4.79924000E-03
					 1.04957000E-04	-4.23992000E-02	-1.51204000E-04
					 2.05179000E-03	-4.22882000E-02	 3.94606000E-03
					 7.98314000E-05	-3.67017000E-02	-1.18865000E-04
					 1.00326000E-03	-4.14548000E-02	 1.92557000E-03
					 2.15190000E-03	-3.66429000E-02	 4.86178000E-03
					-1.99441000E-03	-4.32583000E-02	-4.30338000E-03
					-1.69425000E-03	-4.13060000E-02	-4.27987000E-03
					-2.20524000E-03	-3.87590000E-02	-5.10852000E-03
					-9.40441000E-04	-4.33705000E-02	-2.27566000E-03
					-1.84389000E-03	-4.22397000E-02	-4.24437000E-03
					-1.98949000E-03	-3.65786000E-02	-5.09424000E-03
					-7.95290000E-04	-4.14284000E-02	-2.20347000E-03
					 1.03753000E-04	-3.98062000E-02	-1.09628000E-04
					 1.61444000E-03	-3.96992000E-02	 4.02836000E-03
					 1.04682000E-04	-4.05981000E-02	-1.27438000E-04
					 1.75646000E-03	-4.04861000E-02	 4.06364000E-03
					 8.12438000E-05	-3.47255000E-02	-8.90890000E-05
					 8.63206000E-04	-3.97938000E-02	 1.90206000E-03
					 1.95805000E-03	-3.46633000E-02	 4.86760000E-03
					-1.40957000E-03	-3.96495000E-02	-4.24700000E-03
					-1.55162000E-03	-4.04371000E-02	-4.31555000E-03
					-1.79374000E-03	-3.46007000E-02	-5.03433000E-03
					-6.55465000E-04	-3.97661000E-02	-2.12181000E-03
					 9.40455000E-05	-4.86061000E-02	-1.44820000E-04
					 1.20789000E-03	-4.85729000E-02	 2.53335000E-03
					 1.02397000E-04	-4.75440000E-02	-1.46149000E-04
					 1.13446000E-03	-4.75088000E-02	 2.49727000E-03
					 1.09648000E-04	-4.65557000E-02	-1.57714000E-04
					 6.55026000E-04	-4.85961000E-02	 1.35077000E-03
					 1.79580000E-03	-4.64962000E-02	 3.09858000E-03
					 9.77035000E-05	-4.80629000E-02	-1.49266000E-04
					 1.16847000E-03	-4.80304000E-02	 2.42282000E-03
					 1.15581000E-04	-4.50057000E-02	-1.47016000E-04
					 6.20620000E-04	-4.75350000E-02	 1.24402000E-03
					 1.56064000E-03	-4.49220000E-02	 3.08350000E-03
					-1.00388000E-03	-4.85464000E-02	-2.81780000E-03
					-9.21936000E-04	-4.74948000E-02	-2.78983000E-03
					-1.56003000E-03	-4.64467000E-02	-3.41201000E-03
					-4.55957000E-04	-4.85883000E-02	-1.63242000E-03
					-9.63090000E-04	-4.80112000E-02	-2.72054000E-03
					-1.32201000E-03	-4.48942000E-02	-3.37918000E-03
					-4.11432000E-04	-4.75305000E-02	-1.53660000E-03
					 1.10074000E-04	-4.65596000E-02	-1.47273000E-04
					 1.05807000E-03	-4.65247000E-02	 2.52430000E-03
					 1.06387000E-04	-4.70455000E-02	-1.41874000E-04
					 1.09912000E-03	-4.70125000E-02	 2.55699000E-03
					 1.20087000E-04	-4.36758000E-02	-1.31394000E-04
					 5.82480000E-04	-4.65511000E-02	 1.21045000E-03
					 1.33739000E-03	-4.35939000E-02	 3.12348000E-03
					-8.31210000E-04	-4.65192000E-02	-2.82342000E-03
					-8.75841000E-04	-4.69961000E-02	-2.84903000E-03
					-1.09326000E-03	-4.35741000E-02	-3.39148000E-03
					-3.64329000E-04	-4.65519000E-02	-1.50397000E-03
					 9.79173000E-05	-5.29869000E-02	-1.37239000E-04
					 6.18537000E-04	-5.30325000E-02	 2.66663000E-03
					 9.77624000E-05	-5.24694000E-02	-1.52600000E-04
					 6.61223000E-04	-5.24945000E-02	 2.63416000E-03
					 9.47571000E-05	-5.04920000E-02	-1.55997000E-04
					 3.56489000E-04	-5.30148000E-02	 1.25193000E-03
					 7.08623000E-04	-5.04688000E-02	 2.50739000E-03
					 9.61838000E-05	-5.27312000E-02	-1.40670000E-04
					 6.43330000E-04	-5.27781000E-02	 2.67657000E-03
					 9.19240000E-05	-4.98426000E-02	-1.50026000E-04
					 3.75990000E-04	-5.24776000E-02	 1.24118000E-03
					 7.75172000E-04	-4.98466000E-02	 2.47916000E-03
					-3.63673000E-04	-5.29485000E-02	-2.98096000E-03
					-4.34955000E-04	-5.24773000E-02	-2.97668000E-03
					-5.34898000E-04	-5.04621000E-02	-2.79449000E-03
					-1.47784000E-04	-5.29416000E-02	-1.56392000E-03
					-3.94060000E-04	-5.27244000E-02	-2.98437000E-03
					-5.83050000E-04	-4.98321000E-02	-2.77208000E-03
					-1.74596000E-04	-5.24602000E-02	-1.56371000E-03
					 1.01458000E-04	-5.19090000E-02	-1.54207000E-04
					 6.62662000E-04	-5.19526000E-02	 2.61902000E-03
					 1.00211000E-04	-5.22006000E-02	-1.59997000E-04
					 6.59833000E-04	-5.22131000E-02	 2.62737000E-03
					 9.23380000E-05	-4.91624000E-02	-1.44868000E-04
					 3.97905000E-04	-5.19247000E-02	 1.21395000E-03
					 7.91081000E-04	-4.91718000E-02	 2.48232000E-03
					-4.91847000E-04	-5.19254000E-02	-2.93425000E-03
					-4.69976000E-04	-5.22179000E-02	-2.95505000E-03
					-6.05469000E-04	-4.91631000E-02	-2.78409000E-03
					-1.95366000E-04	-5.19070000E-02	-1.53659000E-03
					-1.34290000E-04	-5.86545000E-02	-5.37552000E-05
					 5.18425000E-04	-5.82025000E-02	 2.47802000E-03
					 1.25773000E-04	-5.80757000E-02	-1.87101000E-04
					 5.79175000E-04	-5.78289000E-02	 2.46562000E-03
					 3.07941000E-05	-5.58657000E-02	-4.36038000E-05
					 1.49595000E-04	-5.84000000E-02	 1.34881000E-03
					 7.26198000E-04	-5.59089000E-02	 2.65163000E-03
					-1.26607000E-05	-5.83620000E-02	-1.40506000E-04
					 5.47447000E-04	-5.79060000E-02	 2.41764000E-03
					 1.13430000E-04	-5.52908000E-02	-1.52634000E-04
					 3.86035000E-04	-5.79205000E-02	 1.19588000E-03
					 6.31043000E-04	-5.52503000E-02	 2.58263000E-03
					-6.17447000E-04	-5.89257000E-02	-3.12569000E-03
					-5.40481000E-04	-5.82921000E-02	-3.13291000E-03
					-4.62806000E-04	-5.58677000E-02	-3.08341000E-03
					-3.78935000E-04	-5.88406000E-02	-1.57584000E-03
					-5.91168000E-04	-5.86435000E-02	-3.17087000E-03
					-5.02597000E-04	-5.53523000E-02	-3.10084000E-03
					-1.89823000E-04	-5.82260000E-02	-1.65024000E-03
					 2.75114000E-04	-5.75078000E-02	-1.00738000E-04
					 7.24073000E-04	-5.73388000E-02	 2.53038000E-03
					 2.27052000E-04	-5.77876000E-02	-1.72935000E-04
					 6.46103000E-04	-5.76143000E-02	 2.48871000E-03
					 1.53010000E-04	-5.47425000E-02	-1.30260000E-04
					 4.89512000E-04	-5.74440000E-02	 1.26672000E-03
					 6.23748000E-04	-5.47853000E-02	 2.61601000E-03
					-4.92664000E-04	-5.74887000E-02	-2.98820000E-03
					-5.03417000E-04	-5.79101000E-02	-3.05331000E-03
					-5.24131000E-04	-5.46871000E-02	-2.99441000E-03
					-6.56650000E-05	-5.74996000E-02	-1.55252000E-03
					 0.00000000E+00	 0.00000000E+00	 0.00000000E+00
					 0.00000000E+00	 0.00000000E+00	 0.00000000E+00
					 6.06727000E-05	-1.51760000E-02	-4.11714000E-04
					-3.62610000E-03	-1.63539000E-02	 1.54182000E-02
					 0.00000000E+00	 0.00000000E+00	 0.00000000E+00
					 0.00000000E+00	 0.00000000E+00	 0.00000000E+00
					 1.63255000E-05	-1.77879000E-02	-5.05878000E-04
					-1.57798000E-03	-1.90358000E-02	 1.54999000E-02
					 0.00000000E+00	 0.00000000E+00	 0.00000000E+00
					 7.00153000E-05	-2.89122000E-03	-1.45967000E-04
					-1.78570000E-03	-1.54017000E-02	 7.47141000E-03
					-3.09425000E-03	-4.32459000E-03	 7.86820000E-03
					 0.00000000E+00	 0.00000000E+00	 0.00000000E+00
					 0.00000000E+00	 0.00000000E+00	 0.00000000E+00
					 4.19801000E-05	-1.68320000E-02	-4.67239000E-04
					-2.58112000E-03	-1.80423000E-02	 1.53122000E-02
					 0.00000000E+00	 0.00000000E+00	 0.00000000E+00
					 8.75735000E-06	-4.74005000E-03	-1.78154000E-04
					-7.81326000E-04	-1.80323000E-02	 7.31424000E-03
					-7.74002000E-04	-6.15167000E-03	 7.62029000E-03
					 0.00000000E+00	 0.00000000E+00	 0.00000000E+00
					 3.70793000E-03	-1.58304000E-02	-1.63265000E-02
					 0.00000000E+00	 0.00000000E+00	 0.00000000E+00
					 1.61745000E-03	-1.85111000E-02	-1.66040000E-02
					 0.00000000E+00	 0.00000000E+00	 0.00000000E+00
					 3.21288000E-03	-4.18554000E-03	-8.20385000E-03
					 1.89248000E-03	-1.51351000E-02	-8.32203000E-03
					 0.00000000E+00	 0.00000000E+00	 0.00000000E+00
					 2.65468000E-03	-1.75141000E-02	-1.63317000E-02
					 0.00000000E+00	 0.00000000E+00	 0.00000000E+00
					 7.98678000E-04	-6.03291000E-03	-8.00522000E-03
					 8.14349000E-04	-1.77684000E-02	-8.35518000E-03
					 0.00000000E+00	 0.00000000E+00	 0.00000000E+00
					 0.00000000E+00	 0.00000000E+00	 0.00000000E+00
					-3.91038000E-05	-1.83726000E-02	-5.18172000E-04
					 4.69734000E-04	-1.95272000E-02	 1.53172000E-02
					 0.00000000E+00	 0.00000000E+00	 0.00000000E+00
					 0.00000000E+00	 0.00000000E+00	 0.00000000E+00
					-1.09731000E-05	-1.84284000E-02	-5.24827000E-04
					-5.70258000E-04	-1.96343000E-02	 1.55405000E-02
					 0.00000000E+00	 0.00000000E+00	 0.00000000E+00
					-6.21057000E-05	-4.46142000E-03	-1.83606000E-04
					 2.13962000E-04	-1.85791000E-02	 7.08103000E-03
					 1.59506000E-03	-5.82239000E-03	 7.83670000E-03
					 0.00000000E+00	 0.00000000E+00	 0.00000000E+00
					-4.99015000E-04	-1.90282000E-02	-1.64285000E-02
					 0.00000000E+00	 0.00000000E+00	 0.00000000E+00
					 5.68869000E-04	-1.91111000E-02	-1.66795000E-02
					 0.00000000E+00	 0.00000000E+00	 0.00000000E+00
					-1.68624000E-03	-5.70995000E-03	-8.23725000E-03
					-2.73603000E-04	-1.83386000E-02	-8.13492000E-03
					 6.11528000E-05	-6.08991000E-02	-1.68158000E-03
					-4.45123000E-03	-6.24301000E-02	 2.64825000E-02
					 4.35360000E-05	-6.46344000E-02	-1.87199000E-03
					-2.94136000E-03	-6.61687000E-02	 2.63626000E-02
					 6.38486000E-05	-3.48329000E-02	-9.08403000E-04
					-2.19438000E-03	-6.14970000E-02	 1.23070000E-02
					-4.14928000E-03	-3.62847000E-02	 2.16396000E-02
					 5.31779000E-05	-6.29333000E-02	-1.78996000E-03
					-3.69778000E-03	-6.44673000E-02	 2.63766000E-02
					 2.61157000E-05	-3.80991000E-02	-1.05299000E-03
					-1.44748000E-03	-6.52343000E-02	 1.21169000E-02
					-2.31853000E-03	-3.95576000E-02	 2.15706000E-02
					 4.57982000E-03	-6.07923000E-02	-2.99442000E-02
					 3.04536000E-03	-6.45654000E-02	-3.02075000E-02
					 4.24536000E-03	-3.52563000E-02	-2.35631000E-02
					 2.31557000E-03	-6.06853000E-02	-1.56927000E-02
					 3.81915000E-03	-6.28543000E-02	-3.00526000E-02
					 2.38000000E-03	-3.85327000E-02	-2.37891000E-02
					 1.54416000E-03	-6.44465000E-02	-1.58811000E-02
					 1.11630000E-05	-6.68729000E-02	-1.97146000E-03
					-1.44071000E-03	-6.83632000E-02	 2.61976000E-02
					 2.86011000E-05	-6.59190000E-02	-1.93243000E-03
					-2.18687000E-03	-6.74695000E-02	 2.63883000E-02
					-2.34678000E-05	-3.95269000E-02	-1.10082000E-03
					-7.23589000E-04	-6.74372000E-02	 1.18707000E-02
					-5.17882000E-04	-4.09733000E-02	 2.14437000E-02
					 1.52454000E-03	-6.68233000E-02	-3.02401000E-02
					 2.28343000E-03	-6.58535000E-02	-3.03554000E-02
					 5.29138000E-04	-3.99981000E-02	-2.37590000E-02
					 7.65396000E-04	-6.66977000E-02	-1.58330000E-02
					 1.64275000E-04	-1.27182000E-01	-4.07065000E-03
					-4.60215000E-03	-1.28835000E-01	 3.18410000E-02
					 1.58595000E-04	-1.31481000E-01	-4.28960000E-03
					-3.74674000E-03	-1.33256000E-01	 3.16799000E-02
					 1.02090000E-04	-9.20612000E-02	-2.73471000E-03
					-2.21463000E-03	-1.27890000E-01	 1.37837000E-02
					-4.58794000E-03	-9.37047000E-02	 2.98127000E-02
					 1.63685000E-04	-1.29442000E-01	-4.18731000E-03
					-4.17556000E-03	-1.31168000E-01	 3.17292000E-02
					 8.51705000E-05	-9.61525000E-02	-2.95716000E-03
					-1.81737000E-03	-1.32255000E-01	 1.35565000E-02
					-3.41761000E-03	-9.78040000E-02	 2.96752000E-02
					 4.87527000E-03	-1.26320000E-01	-4.00373000E-02
					 4.04848000E-03	-1.30621000E-01	-4.03493000E-02
					 4.78555000E-03	-9.15722000E-02	-3.53854000E-02
					 2.52417000E-03	-1.26654000E-01	-2.19324000E-02
					 4.46107000E-03	-1.28572000E-01	-4.01883000E-02
					 3.59686000E-03	-9.56637000E-02	-3.56819000E-02
					 2.10601000E-03	-1.30959000E-01	-2.21737000E-02
					 1.41714000E-04	-1.34957000E-01	-4.44209000E-03
					-3.00843000E-03	-1.36864000E-01	 3.14521000E-02
					 1.50837000E-04	-1.33340000E-01	-4.37453000E-03
					-3.38150000E-03	-1.35056000E-01	 3.16589000E-02
					 6.75790000E-05	-9.90690000E-02	-3.09986000E-03
					-1.39888000E-03	-1.35796000E-01	 1.32673000E-02
					-2.30004000E-03	-1.00745000E-01	 2.94591000E-02
					 3.23895000E-03	-1.34130000E-01	-4.04553000E-02
					 3.64432000E-03	-1.32468000E-01	-4.05022000E-02
					 2.41091000E-03	-9.85983000E-02	-3.57436000E-02
					 1.67900000E-03	-1.34464000E-01	-2.22118000E-02
					 4.67104000E-04	-2.04416000E-01	-7.27698000E-03
					-4.26362000E-03	-2.06051000E-01	 3.23188000E-02