<?xml version="1.0"?>
<VTKFile type="UnstructuredGrid" version="0.1" byte_order="LittleEndian">
	<UnstructuredGrid>
		<Piece NumberOfPoints="522" NumberOfCells="64">
			<Points>
				<DataArray type="Float64" NumberOfComponents="3" format="ascii">
					 1.00000000E+00	 1.00000000E+00	-5.96046000E-08
					 1.00000000E+00	 5.00000000E-01	-5.96046000E-08
					 1.00000000E+00	 5.00000000E-01	 1.00000000E+00
					 1.00000000E+00	 1.00000000E+00	 1.00000000E+00
					 5.00000000E-01	 1.00000000E+00	-5.96046000E-08
					 5.00000000E-01	 5.00000000E-01	-5.96046000E-08
					 5.00000000E-01	 5.00000000E-01	 1.00000000E+00
					 5.00000000E-01	 1.00000000E+00	 1.00000000E+00
					 1.00000000E+00	 7.50000000E-01	-5.96046000E-08
					 1.00000000E+00	 5.00000000E-01	 5.00000000E-01
					 1.00000000E+00	 7.50000000E-01	 1.00000000E+00
					 1.00000000E+00	 1.00000000E+00	 5.00000000E-01
					 7.50000000E-01	 1.00000000E+00	-5.96046000E-08
					 7.50000000E-01	 5.00000000E-01	-5.96046000E-08
					 7.50000000E-01	 5.00000000E-01	 1.00000000E+00
					 7.50000000E-01	 1.00000000E+00	 1.00000000E+00
					 5.00000000E-01	 7.50000000E-01	-5.96046000E-08
					 5.00000000E-01	 5.00000000E-01	 5.00000000E-01
					 5.00000000E-01	 7.50000000E-01	 1.00000000E+00
					 5.00000000E-01	 1.00000000E+00	 5.00000000E-01
					 1.00000000E+00	-1.49012000E-08	-5.96046000E-08
					 1.00000000E+00	-1.49012000E-08	 1.00000000E+00
					 5.00000000E-01	-1.49012000E-08	-5.96046000E-08
					 5.00000000E-01	-1.49012000E-08	 1.00000000E+00
					 1.00000000E+00	 2.50000000E-01	-5.96046000E-08
					 1.00000000E+00	-1.49012000E-08	 5.00000000E-01
					 1.00000000E+00	 2.50000000E-01	 1.00000000E+00
					 7.50000000E-01	-1.49012000E-08	-5.96046000E-08
					 7.50000000E-01	-1.49012000E-08	 1.00000000E+00
					 5.00000000E-01	 2.50000000E-01	-5.96046000E-08
					 5.00000000E-01	-1.49012000E-08	 5.00000000E-01
					 5.00000000E-01	 2.50000000E-01	 1.00000000E+00
					-7.45058000E-09	 1.00000000E+00	-5.96046000E-08
					-7.45058000E-09	 5.00000000E-01	-5.96046000E-08
					-7.45058000E-09	 5.00000000E-01	 1.00000000E+00
					-7.45058000E-09	 1.00000000E+00	 1.00000000E+00
					 2.50000000E-01	 1.00000000E+00	-5.96046000E-08
					 2.50000000E-01	 5.00000000E-01	-5.96046000E-08
					 2.50000000E-01	 5.00000000E-01	 1.00000000E+00
					 2.50000000E-01	 1.00000000E+00	 1.00000000E+00
					-7.45058000E-09	 7.50000000E-01	-5.96046000E-08
					-7.45058000E-09	 5.00000000E-01	 5.00000000E-01
					-7.45058000E-09	 7.50000000E-01	 1.00000000E+00
					-7.45058000E-09	 1.00000000E+00	 5.00000000E-01
					-7.45058000E-09	-1.49012000E-08	-5.96046000E-08
					-7.45058000E-09	-1.49012000E-08	 1.00000000E+00
					 2.50000000E-01	-1.49012000E-08	-5.96046000E-08
					 2.50000000E-01	-1.49012000E-08	 1.00000000E+00
					-7.45058000E-09	 2.50000000E-01	-5.96046000E-08
					-7.45058000E-09	-1.49012000E-08	 5.00000000E-01
					-7.45058000E-09	 2.50000000E-01	 1.00000000E+00
					 1.00000000E+00	 5.00000000E-01	 2.00000000E+00
					 1.00000000E+00	 1.00000000E+00	 2.00000000E+00
					 5.00000000E-01	 5.00000000E-01	 2.00000000E+00
					 5.00000000E-01	 1.00000000E+00	 2.00000000E+00
					 1.00000000E+00	 5.00000000E-01	 1.50000000E+00
					 1.00000000E+00	 7.50000000E-01	 2.00000000E+00
					 1.00000000E+00	 1.00000000E+00	 1.50000000E+00
					 7.50000000E-01	 5.00000000E-01	 2.00000000E+00
					 7.50000000E-01	 1.00000000E+00	 2.00000000E+00
					 5.00000000E-01	 5.00000000E-01	 1.50000000E+00
					 5.00000000E-01	 7.50000000E-01	 2.00000000E+00
					 5.00000000E-01	 1.00000000E+00	 1.50000000E+00
					 1.00000000E+00	-1.49012000E-08	 2.00000000E+00
					 5.00000000E-01	-1.49012000E-08	 2.00000000E+00
					 1.00000000E+00	-1.49012000E-08	 1.50000000E+00
					 1.00000000E+00	 2.50000000E-01	 2.00000000E+00
					 7.50000000E-01	-1.49012000E-08	 2.00000000E+00
					 5.00000000E-01	-1.49012000E-08	 1.50000000E+00
					 5.00000000E-01	 2.50000000E-01	 2.00000000E+00
					-7.45058000E-09	 5.00000000E-01	 2.00000000E+00
					-7.45058000E-09	 1.00000000E+00	 2.00000000E+00
					 2.50000000E-01	 5.00000000E-01	 2.00000000E+00
					 2.50000000E-01	 1.00000000E+00	 2.00000000E+00
					-7.45058000E-09	 5.00000000E-01	 1.50000000E+00
					-7.45058000E-09	 7.50000000E-01	 2.00000000E+00
					-7.45058000E-09	 1.00000000E+00	 1.50000000E+00
					-7.45058000E-09	-1.49012000E-08	 2.00000000E+00
					 2.50000000E-01	-1.49012000E-08	 2.00000000E+00
					-7.45058000E-09	-1.49012000E-08	 1.50000000E+00
					-7.45058000E-09	 2.50000000E-01	 2.00000000E+00
					 1.00000000E+00	 5.00000000E-01	 3.00000000E+00
					 1.00000000E+00	 1.00000000E+00	 3.00000000E+00
					 5.00000000E-01	 5.00000000E-01	 3.00000000E+00
					 5.00000000E-01	 1.00000000E+00	 3.00000000E+00
					 1.00000000E+00	 5.00000000E-01	 2.50000000E+00
					 1.00000000E+00	 7.50000000E-01	 3.00000000E+00
					 1.00000000E+00	 1.00000000E+00	 2.50000000E+00
					 7.50000000E-01	 5.00000000E-01	 3.00000000E+00
					 7.50000000E-01	 1.00000000E+00	 3.00000000E+00
					 5.00000000E-01	 5.00000000E-01	 2.50000000E+00
					 5.00000000E-01	 7.50000000E-01	 3.00000000E+00
					 5.00000000E-01	 1.00000000E+00	 2.50000000E+00
					 1.00000000E+00	-1.49012000E-08	 3.00000000E+00
					 5.00000000E-01	-1.49012000E-08	 3.00000000E+00
					 1.00000000E+00	-1.49012000E-08	 2.50000000E+00
					 1.00000000E+00	 2.50000000E-01	 3.00000000E+00
					 7.50000000E-01	-1.49012000E-08	 3.00000000E+00
					 5.00000000E-01	-1.49012000E-08	 2.50000000E+00
					 5.00000000E-01	 2.50000000E-01	 3.00000000E+00
					-7.45058000E-09	 5.00000000E-01	 3.00000000E+00
					-7.45058000E-09	 1.00000000E+00	 3.00000000E+00
					 2.50000000E-01	 5.00000000E-01	 3.00000000E+00
					 2.50000000E-01	 1.00000000E+00	 3.00000000E+00
					-7.45058000E-09	 5.00000000E-01	 2.50000000E+00
					-7.45058000E-09	 7.50000000E-01	 3.00000000E+00
					-7.45058000E-09	 1.00000000E+00	 2.50000000E+00
					-7.45058000E-09	-1.49012000E-08	 3.00000000E+00
					 2.50000000E-01	-1.49012000E-08	 3.00000000E+00
					-7.45058000E-09	-1.49012000E-08	 2.50000000E+00
					-7.45058000E-09	 2.50000000E-01	 3.00000000E+00
					 1.00000000E+00	 5.00000000E-01	 4.00000000E+00
					 1.00000000E+00	 1.00000000E+00	 4.00000000E+00
					 5.00000000E-01	 5.00000000E-01	 4.00000000E+00
					 5.00000000E-01	 1.00000000E+00	 4.00000000E+00
					 1.00000000E+00	 5.00000000E-01	 3.50000000E+00
					 1.00000000E+00	 7.50000000E-01	 4.00000000E+00
					 1.00000000E+00	 1.00000000E+00	 3.50000000E+00
					 7.50000000E-01	 5.00000000E-01	 4.00000000E+00
					 7.50000000E-01	 1.00000000E+00	 4.00000000E+00
					 5.00000000E-01	 5.00000000E-01	 3.50000000E+00
					 5.00000000E-01	 7.50000000E-01	 4.00000000E+00
					 5.00000000E-01	 1.00000000E+00	 3.50000000E+00
					 1.00000000E+00	-1.49012000E-08	 4.00000000E+00
					 5.00000000E-01	-1.49012000E-08	 4.00000000E+00
					 1.00000000E+00	-1.49012000E-08	 3.50000000E+00
					 1.00000000E+00	 2.50000000E-01	 4.00000000E+00
					 7.50000000E-01	-1.49012000E-08	 4.00000000E+00
					 5.00000000E-01	-1.49012000E-08	 3.50000000E+00
					 5.00000000E-01	 2.50000000E-01	 4.00000000E+00
					-7.45058000E-09	 5.00000000E-01	 4.00000000E+00
					-7.45058000E-09	 1.00000000E+00	 4.00000000E+00
					 2.50000000E-01	 5.00000000E-01	 4.00000000E+00
					 2.50000000E-01	 1.00000000E+00	 4.00000000E+00
					-7.45058000E-09	 5.00000000E-01	 3.50000000E+00
					-7.45058000E-09	 7.50000000E-01	 4.00000000E+00
					-7.45058000E-09	 1.00000000E+00	 3.50000000E+00
					-7.45058000E-09	-1.49012000E-08	 4.00000000E+00
					 2.50000000E-01	-1.49012000E-08	 4.00000000E+00
					-7.45058000E-09	-1.49012000E-08	 3.50000000E+00
					-7.45058000E-09	 2.50000000E-01	 4.00000000E+00
					 1.00000000E+00	 5.00000000E-01	 5.00000000E+00
					 1.00000000E+00	 1.00000000E+00	 5.00000000E+00
					 5.00000000E-01	 5.00000000E-01	 5.00000000E+00
					 5.00000000E-01	 1.00000000E+00	 5.00000000E+00
					 1.00000000E+00	 5.00000000E-01	 4.50000000E+00
					 1.00000000E+00	 7.50000000E-01	 5.00000000E+00
					 1.00000000E+00	 1.00000000E+00	 4.50000000E+00
					 7.50000000E-01	 5.00000000E-01	 5.00000000E+00
					 7.50000000E-01	 1.00000000E+00	 5.00000000E+00
					 5.00000000E-01	 5.00000000E-01	 4.50000000E+00
					 5.00000000E-01	 7.50000000E-01	 5.00000000E+00
					 5.00000000E-01	 1.00000000E+00	 4.50000000E+00
					 1.00000000E+00	-1.49012000E-08	 5.00000000E+00
					 5.00000000E-01	-1.49012000E-08	 5.00000000E+00
					 1.00000000E+00	-1.49012000E-08	 4.50000000E+00
					 1.00000000E+00	 2.50000000E-01	 5.00000000E+00
					 7.50000000E-01	-1.49012000E-08	 5.00000000E+00
					 5.00000000E-01	-1.49012000E-08	 4.50000000E+00
					 5.00000000E-01	 2.50000000E-01	 5.00000000E+00
					-7.45058000E-09	 5.00000000E-01	 5.00000000E+00
					-7.45058000E-09	 1.00000000E+00	 5.00000000E+00
					 2.50000000E-01	 5.00000000E-01	 5.00000000E+00
					 2.50000000E-01	 1.00000000E+00	 5.00000000E+00
					-7.45058000E-09	 5.00000000E-01	 4.50000000E+00
					-7.45058000E-09	 7.50000000E-01	 5.00000000E+00
					-7.45058000E-09	 1.00000000E+00	 4.50000000E+00
					-7.45058000E-09	-1.49012000E-08	 5.00000000E+00
					 2.50000000E-01	-1.49012000E-08	 5.00000000E+00
					-7.45058000E-09	-1.49012000E-08	 4.50000000E+00
					-7.45058000E-09	 2.50000000E-01	 5.00000000E+00
					 1.00000000E+00	 5.00000000E-01	 6.00000000E+00
					 1.00000000E+00	 1.00000000E+00	 6.00000000E+00
					 5.00000000E-01	 5.00000000E-01	 6.00000000E+00
					 5.00000000E-01	 1.00000000E+00	 6.00000000E+00
					 1.00000000E+00	 5.00000000E-01	 5.50000000E+00
					 1.00000000E+00	 7.50000000E-01	 6.00000000E+00
					 1.00000000E+00	 1.00000000E+00	 5.50000000E+00
					 7.50000000E-01	 5.00000000E-01	 6.00000000E+00
					 7.50000000E-01	 1.00000000E+00	 6.00000000E+00
					 5.00000000E-01	 5.00000000E-01	 5.50000000E+00
					 5.00000000E-01	 7.50000000E-01	 6.00000000E+00
					 5.00000000E-01	 1.00000000E+00	 5.50000000E+00
					 1.00000000E+00	-1.49012000E-08	 6.00000000E+00
[...]
			<PointData>
				<DataArray type="Float32" Name="U" NumberOfComponents="3" ComponentName0="D1" ComponentName1="D2" ComponentName2="D3" format="ascii">
					 0.00000000E+00	 0.00000000E+00	 0.00000000E+00
					 0.00000000E+00	 0.00000000E+00	 0.00000000E+00
					-1.33434000E-05	-2.62147000E-03	-2.80543000E-05
					-4.14336000E-04	-2.77939000E-03	 2.20036000E-03
					 0.00000000E+00	 0.00000000E+00	 0.00000000E+00
					 0.00000000E+00	 0.00000000E+00	 0.00000000E+00
					 5.71388000E-06	-2.94107000E-03	 5.55551000E-06
					-1.79254000E-04	-3.07828000E-03	 2.34441000E-03
					 0.00000000E+00	 0.00000000E+00	 0.00000000E+00
					-1.28326000E-05	-5.97297000E-04	 1.74296000E-05
					-1.86591000E-04	-2.65724000E-03	 1.05646000E-03
					-5.05137000E-04	-8.25239000E-04	 1.16243000E-03
					 0.00000000E+00	 0.00000000E+00	 0.00000000E+00
					 0.00000000E+00	 0.00000000E+00	 0.00000000E+00
					-3.54334000E-06	-2.81591000E-03	-8.44657000E-07
					-2.98475000E-04	-2.94345000E-03	 2.24941000E-03
					 0.00000000E+00	 0.00000000E+00	 0.00000000E+00
					-6.53430000E-06	-8.93579000E-04	 2.22397000E-05
					-8.33220000E-05	-2.95760000E-03	 1.08958000E-03
					-1.20682000E-04	-1.05972000E-03	 1.19590000E-03
					 0.00000000E+00	 0.00000000E+00	 0.00000000E+00
					 4.42001000E-04	-2.81595000E-03	-2.28370000E-03
					 0.00000000E+00	 0.00000000E+00	 0.00000000E+00
					 1.69257000E-04	-3.05958000E-03	-2.26343000E-03
					 0.00000000E+00	 0.00000000E+00	 0.00000000E+00
					 4.05154000E-04	-8.10813000E-04	-1.22569000E-03
					 2.28229000E-04	-2.66951000E-03	-1.09904000E-03
					 0.00000000E+00	 0.00000000E+00	 0.00000000E+00
					 3.11450000E-04	-2.94028000E-03	-2.29362000E-03
					 0.00000000E+00	 0.00000000E+00	 0.00000000E+00
					 7.63840000E-05	-1.04443000E-03	-1.16701000E-03
					 7.88233000E-05	-2.98184000E-03	-1.08609000E-03
					 0.00000000E+00	 0.00000000E+00	 0.00000000E+00
					 0.00000000E+00	 0.00000000E+00	 0.00000000E+00
					-1.83416000E-05	-3.03965000E-03	 9.06157000E-05
					 1.32417000E-05	-3.10691000E-03	 2.30593000E-03
					 0.00000000E+00	 0.00000000E+00	 0.00000000E+00
					 0.00000000E+00	 0.00000000E+00	 0.00000000E+00
					-6.98806000E-06	-3.00142000E-03	 4.93412000E-05
					-7.31142000E-05	-3.11653000E-03	 2.30898000E-03
					 0.00000000E+00	 0.00000000E+00	 0.00000000E+00
					 1.53909000E-05	-8.55858000E-04	 3.73619000E-05
					 3.58688000E-06	-3.01349000E-03	 1.12532000E-03
					 1.84578000E-04	-1.09185000E-03	 1.25534000E-03
					 0.00000000E+00	 0.00000000E+00	 0.00000000E+00
					-4.73493000E-05	-3.11979000E-03	-2.19427000E-03
					 0.00000000E+00	 0.00000000E+00	 0.00000000E+00
					 4.95418000E-05	-3.10967000E-03	-2.25060000E-03
					 0.00000000E+00	 0.00000000E+00	 0.00000000E+00
					-2.14586000E-04	-1.07974000E-03	-1.17985000E-03
					-4.03737000E-05	-3.00589000E-03	-1.00980000E-03
					-2.54892000E-06	-9.11051000E-03	-7.10665000E-05
					-1.54959000E-05	-9.22191000E-03	 3.41550000E-03
					-4.66538000E-08	-9.09415000E-03	-1.28976000E-04
					 1.00970000E-04	-9.17219000E-03	 3.36149000E-03
					-9.62036000E-07	-5.56279000E-03	-6.19500000E-05
					-1.21470000E-05	-9.14857000E-03	 1.63707000E-03
					-2.27549000E-04	-5.64710000E-03	 2.93522000E-03
					 5.49143000E-06	-9.10501000E-03	-1.16059000E-04
					 3.89665000E-05	-9.17311000E-03	 3.46858000E-03
					 1.73731000E-05	-5.70612000E-03	-6.68329000E-05
					 6.58770000E-05	-9.11538000E-03	 1.66122000E-03
					-2.08344000E-05	-5.83670000E-03	 2.93288000E-03
					 3.37671000E-05	-9.18771000E-03	-3.58783000E-03
					-1.09844000E-04	-9.16281000E-03	-3.62913000E-03
					 3.17126000E-04	-5.64097000E-03	-3.00700000E-03
					 1.36941000E-05	-9.14743000E-03	-1.79248000E-03
					-4.77281000E-05	-9.18779000E-03	-3.65323000E-03
					 9.24831000E-05	-5.84728000E-03	-3.01948000E-03
					-3.84946000E-05	-9.08206000E-03	-1.87008000E-03
					 6.39131000E-06	-8.88294000E-03	-1.51532000E-04
					 2.60392000E-04	-9.01626000E-03	 3.35707000E-03
					 1.04096000E-06	-9.00539000E-03	-1.49594000E-04
					 1.74590000E-04	-9.09146000E-03	 3.36442000E-03
					 1.77259000E-05	-5.70643000E-03	-7.06880000E-05
					 1.68155000E-04	-8.92158000E-03	 1.68126000E-03
					 5.77997000E-05	-5.85231000E-03	 2.89927000E-03
					-2.16323000E-04	-8.98388000E-03	-3.67503000E-03
					-1.57491000E-04	-9.05640000E-03	-3.59840000E-03
					-5.43428000E-05	-5.86549000E-03	-2.98042000E-03
					-1.29026000E-04	-8.93662000E-03	-1.93142000E-03
					 3.08372000E-05	-1.72777000E-02	-3.55280000E-05
					 8.91141000E-05	-1.74765000E-02	 4.89891000E-03
					 4.60908000E-05	-1.71030000E-02	-5.87325000E-05
					 3.18110000E-04	-1.72509000E-02	 4.96526000E-03
					 1.10183000E-06	-1.28885000E-02	-6.30428000E-05
					 2.68523000E-05	-1.73426000E-02	 2.48411000E-03
					 9.36533000E-05	-1.30320000E-02	 4.08185000E-03
					 3.77275000E-05	-1.72316000E-02	-6.71696000E-05
					 1.97023000E-04	-1.73798000E-02	 4.86650000E-03
					 5.53714000E-06	-1.27182000E-02	-6.58160000E-05
					 1.91414000E-04	-1.71428000E-02	 2.44406000E-03
					 2.73459000E-04	-1.28773000E-02	 4.05867000E-03
					-1.83939000E-05	-1.73840000E-02	-5.08024000E-03
					-2.57307000E-04	-1.72044000E-02	-5.03045000E-03
					-9.66619000E-05	-1.30119000E-02	-4.24961000E-03
					 5.85156000E-05	-1.72807000E-02	-2.61296000E-03
					-1.44127000E-04	-1.73223000E-02	-5.03584000E-03
					-2.48234000E-04	-1.28001000E-02	-4.23056000E-03
					-1.04163000E-04	-1.71321000E-02	-2.55447000E-03
					 3.60960000E-05	-1.66875000E-02	-4.88396000E-05
					 7.01870000E-04	-1.67479000E-02	 4.94105000E-03
					 3.25717000E-05	-1.69354000E-02	-5.44743000E-05
					 5.06789000E-04	-1.71031000E-02	 4.93888000E-03
					 4.76742000E-05	-1.23332000E-02	-9.31148000E-05
					 3.06141000E-04	-1.67074000E-02	 2.41197000E-03
					 5.49440000E-04	-1.24003000E-02	 4.06130000E-03
					-6.60361000E-04	-1.66371000E-02	-5.06223000E-03
					-4.42191000E-04	-1.70361000E-02	-5.08488000E-03
					-4.95881000E-04	-1.23569000E-02	-4.25489000E-03
					-2.52058000E-04	-1.66285000E-02	-2.54242000E-03
					 7.66428000E-05	-2.84997000E-02	-2.29980000E-04
					-6.13162000E-04	-2.86173000E-02	 6.49086000E-03
					 1.80929000E-05	-2.90224000E-02	-2.30091000E-04
					-4.39788000E-04	-2.91623000E-02	 6.50015000E-03
					 5.41062000E-05	-2.24998000E-02	-1.12488000E-04
					-2.85468000E-04	-2.85151000E-02	 3.18632000E-03
					-1.91451000E-04	-2.26966000E-02	 5.79895000E-03
					 4.06018000E-05	-2.87979000E-02	-1.92224000E-04
					-5.34890000E-04	-2.88900000E-02	 6.40322000E-03
					 3.63206000E-05	-2.26234000E-02	-1.27715000E-04
					-2.03832000E-04	-2.90772000E-02	 3.12789000E-03
					 1.30595000E-05	-2.27956000E-02	 5.78041000E-03
					 6.66507000E-04	-2.85453000E-02	-6.86833000E-03
					 4.91846000E-04	-2.91227000E-02	-6.90835000E-03
					 2.76618000E-04	-2.25825000E-02	-6.05680000E-03
					 3.85588000E-04	-2.84993000E-02	-3.62304000E-03
					 5.84960000E-04	-2.88480000E-02	-6.77470000E-03
					 2.23642000E-05	-2.27322000E-02	-6.02446000E-03
					 2.75719000E-04	-2.90339000E-02	-3.55184000E-03
					 5.17987000E-05	-2.93790000E-02	-1.69951000E-04
					-2.10202000E-04	-2.95714000E-02	 6.46825000E-03
					 2.53201000E-05	-2.92248000E-02	-2.00337000E-04
					-3.14560000E-04	-2.93986000E-02	 6.59303000E-03
					-6.22731000E-06	-2.25366000E-02	-1.10996000E-04
					-7.92248000E-05	-2.94194000E-02	 3.03311000E-03
					 2.76822000E-04	-2.26646000E-02	 5.73591000E-03
					 1.90124000E-04	-2.94432000E-02	-6.89943000E-03
					 3.46955000E-04	-2.92810000E-02	-6.97103000E-03
					-2.76410000E-04	-2.25669000E-02	-5.98995000E-03
					 1.43136000E-04	-2.94106000E-02	-3.42352000E-03
					-9.44681000E-06	-4.23342000E-02	-3.01390000E-04
					-1.60584000E-03	-4.23346000E-02	 7.68423000E-03
					 7.06399000E-05	-4.38292000E-02	-2.58241000E-04
					-1.39960000E-03	-4.39762000E-02	 7.58783000E-03
					 4.55847000E-05	-3.50575000E-02	-2.56410000E-04
					-7.34954000E-04	-4.23038000E-02	 3.70811000E-03
					-1.16152000E-03	-3.51911000E-02	 7.09371000E-03
					 4.38909000E-05	-4.31197000E-02	-2.78922000E-04
					-1.50535000E-03	-4.32458000E-02	 7.62373000E-03
					 5.07397000E-05	-3.61218000E-02	-2.73226000E-04
					-6.33690000E-04	-4.38966000E-02	 3.65830000E-03
					-8.88743000E-04	-3.62384000E-02	 7.10092000E-03
					 1.64169000E-03	-4.23330000E-02	-8.23239000E-03
					 1.49841000E-03	-4.38832000E-02	-8.21745000E-03
					 1.21777000E-03	-3.51127000E-02	-7.60524000E-03
					 8.18123000E-04	-4.23249000E-02	-4.27134000E-03
					 1.55051000E-03	-4.31292000E-02	-8.19973000E-03
					 1.02590000E-03	-3.61491000E-02	-7.62744000E-03
					 7.65168000E-04	-4.38264000E-02	-4.22801000E-03
					 8.65337000E-05	-4.51343000E-02	-3.58209000E-04
					-1.23319000E-03	-4.53776000E-02	 7.66990000E-03
					 7.59603000E-05	-4.44875000E-02	-3.02441000E-04
					-1.30325000E-03	-4.46642000E-02	 7.66314000E-03
					 4.24008000E-05	-3.69531000E-02	-2.49947000E-04
					-5.22107000E-04	-4.52241000E-02	 3.60309000E-03
					-7.49790000E-04	-3.71938000E-02	 7.09347000E-03
					 1.32810000E-03	-4.52577000E-02	-8.22447000E-03
					 1.41471000E-03	-4.45016000E-02	-8.27294000E-03
					 8.96855000E-04	-3.70776000E-02	-7.58010000E-03
					 6.50479000E-04	-4.51816000E-02	-4.24021000E-03
					 7.70866000E-05	-5.92795000E-02	-3.18726000E-04
					-1.42384000E-03	-5.95712000E-02	 8.56704000E-03
					 7.65496000E-05	-6.09933000E-02	-4.13632000E-04
					-1.45335000E-03	-6.10773000E-02	 8.52193000E-03
					 1.38990000E-04	-5.04992000E-02	-3.18580000E-04
					-7.77668000E-04	-5.93978000E-02	 4.08187000E-03
					-1.57788000E-03	-5.06577000E-02	 8.16699000E-03
					 8.48899000E-05	-6.01630000E-02	-3.72451000E-04
					-1.46406000E-03	-6.02906000E-02	 8.52085000E-03
					 1.13964000E-04	-5.21272000E-02	-3.28151000E-04
					-6.72034000E-04	-6.10179000E-02	 4.01660000E-03
					-1.46410000E-03	-5.22457000E-02	 8.11923000E-03
					 1.85478000E-03	-5.92024000E-02	-9.27388000E-03
					 1.61511000E-03	-6.09030000E-02	-9.38564000E-03
					 1.77977000E-03	-5.04978000E-02	-8.79131000E-03
					 9.69147000E-04	-5.92527000E-02	-4.75220000E-03
					 1.71834000E-03	-6.00874000E-02	-9.38058000E-03
					 1.62469000E-03	-5.21104000E-02	-8.81467000E-03
					 8.56387000E-04	-6.09220000E-02	-4.87528000E-03
					 9.72455000E-05	-6.23969000E-02	-4.58661000E-04
					-1.42648000E-03	-6.25963000E-02	 8.37494000E-03
					 8.27023000E-05	-6.17010000E-02	-4.44562000E-04
					-1.43398000E-03	-6.19037000E-02	 8.44149000E-03
					 7.87266000E-05	-5.36256000E-02	-4.18592000E-04
					-6.34495000E-04	-6.24746000E-02	 4.02033000E-03
					-1.37672000E-03	-5.38236000E-02	 8.07516000E-03
					 1.37977000E-03	-6.22405000E-02	-9.44863000E-03
					 1.50485000E-03	-6.16907000E-02	-9.39665000E-03
					 1.53300000E-03	-5.36322000E-02	-8.91382000E-03
					 8.05985000E-04	-6.23026000E-02	-4.94963000E-03
					 1.97196000E-04	-7.84809000E-02	-7.09058000E-04
					-1.34575000E-03	-7.84861000E-02	 8.64263000E-03
					 1.43206000E-04	-7.98829000E-02	-6.09860000E-04
					-1.27667000E-03	-7.99357000E-02	 8.72485000E-03
					 6.27273000E-05	-6.87362000E-02	-4.88582000E-04
					-5.55275000E-04	-7.84813000E-02	 3.94650000E-03
					-1.40369000E-03	-6.89330000E-02	 8.78211000E-03
					 1.60912000E-04	-7.91814000E-02	-6.73661000E-04
					-1.29996000E-03	-7.91609000E-02	 8.74957000E-03
					 7.19772000E-05	-7.02811000E-02	-4.91541000E-04
					-5.66894000E-04	-7.99100000E-02	 4.01261000E-03
					-1.44541000E-03	-7.03818000E-02	 8.73652000E-03
					 1.43872000E-03	-7.85264000E-02	-1.00540000E-02
					 1.54344000E-03	-7.98097000E-02	-9.92646000E-03
					 1.61308000E-03	-6.87845000E-02	-9.78878000E-03
					 8.64910000E-04	-7.84849000E-02	-5.34308000E-03
					 1.51002000E-03	-7.90608000E-02	-9.99945000E-03
					 1.59855000E-03	-7.02737000E-02	-9.78362000E-03
					 8.33116000E-04	-7.98517000E-02	-5.25543000E-03
					 1.11265000E-04	-8.12790000E-02	-6.82932000E-04
					-1.24498000E-03	-8.13717000E-02	 8.67883000E-03
					 1.25216000E-04	-8.05856000E-02	-6.41114000E-04
					-1.24670000E-03	-8.06098000E-02	 8.71185000E-03
					 7.22670000E-05	-7.18036000E-02	-5.51015000E-04
					-5.76311000E-04	-8.13200000E-02	 3.92823000E-03
					-1.40576000E-03	-7.18777000E-02	 8.64265000E-03
					 1.59480000E-03	-8.14347000E-02	-1.00401000E-02
					 1.53388000E-03	-8.04903000E-02	-1.00039000E-02
					 1.59354000E-03	-7.17515000E-02	-9.80209000E-03
					 7.77618000E-04	-8.13458000E-02	-5.29214000E-03
					-1.50475000E-05	-9.72481000E-02	-7.32359000E-04
					-1.49862000E-03	-9.72167000E-02	 8.65015000E-03
					 6.67995000E-05	-9.81698000E-02	-1.00265000E-03
					-1.14817000E-03	-9.82804000E-02	 8.14366000E-03
					 1.80945000E-04	-8.78146000E-02	-7.49551000E-04
					-7.61937000E-04	-9.72468000E-02	 3.95240000E-03
					-1.07996000E-03	-8.79268000E-02	 8.60903000E-03
					 3.75471000E-05	-9.77422000E-02	-9.16655000E-04
					-1.30293000E-03	-9.78119000E-02	 8.31970000E-03
					 1.33543000E-04	-8.90845000E-02	-8.37146000E-04
					-5.54964000E-04	-9.82341000E-02	 3.65319000E-03
					-1.13029000E-03	-8.91986000E-02	 8.40155000E-03
					 1.35425000E-03	-9.71943000E-02	-1.02945000E-02
					 1.37968000E-03	-9.79708000E-02	-1.01843000E-02
					 1.30320000E-03	-8.78584000E-02	-1.01667000E-02
					 6.93035000E-04	-9.72025000E-02	-5.51911000E-03
					 1.38256000E-03	-9.76055000E-02	-1.01929000E-02
					 1.33072000E-03	-8.90131000E-02	-1.00854000E-02
					 7.75297000E-04	-9.80850000E-02	-5.57326000E-03
					 3.13588000E-04	-9.94896000E-02	-6.34736000E-04
					-8.12904000E-04	-9.93642000E-02	 8.32172000E-03
					 1.93063000E-04	-9.88694000E-02	-8.70517000E-04
					-1.02784000E-03	-9.88618000E-02	 8.15557000E-03
					 5.90457000E-05	-9.03571000E-02	-7.04529000E-04
					-2.60003000E-04	-9.94477000E-02	 3.92335000E-03
					-1.18491000E-03	-9.05280000E-02	 8.40631000E-03
					 1.48015000E-03	-9.93029000E-02	-9.92252000E-03
					 1.44594000E-03	-9.86755000E-02	-1.00096000E-02
					 1.44887000E-03	-9.03625000E-02	-9.94341000E-03
					 8.70296000E-04	-9.93842000E-02	-5.43994000E-03
					 0.00000000E+00	 0.00000000E+00	 0.00000000E+00
					 0.00000000E+00	 0.00000000E+00	 0.00000000E+00
					 2.49260000E-05	-1.25414000E-02	-7.13219000E-05
					-2.32624000E-03	-1.34829000E-02	 1.31388000E-02
					 0.00000000E+00	 0.00000000E+00	 0.00000000E+00
					 0.00000000E+00	 0.00000000E+00	 0.00000000E+00
					 3.53465000E-05	-1.39944000E-02	-5.35925000E-05
					-4.58229000E-04	-1.51619000E-02	 1.33986000E-02
					 0.00000000E+00	 0.00000000E+00	 0.00000000E+00
					 1.13547000E-05	-2.43555000E-03	-2.94546000E-05
					-1.13789000E-03	-1.27028000E-02	 6.54974000E-03
					-2.28633000E-03	-3.60869000E-03	 6.55831000E-03
					 0.00000000E+00	 0.00000000E+00	 0.00000000E+00
					 0.00000000E+00	 0.00000000E+00	 0.00000000E+00
					 3.57543000E-05	-1.35787000E-02	-2.62961000E-05
					-1.37643000E-03	-1.46819000E-02	 1.31444000E-02
					 0.00000000E+00	 0.00000000E+00	 0.00000000E+00
					 7.15168000E-06	-3.51777000E-03	 1.64487000E-05
					-2.09440000E-04	-1.42272000E-02	 6.56338000E-03
					-2.67169000E-04	-4.75458000E-03	 6.40549000E-03
					 0.00000000E+00	 0.00000000E+00	 0.00000000E+00
					 2.38165000E-03	-1.30984000E-02	-1.34736000E-02
					 0.00000000E+00	 0.00000000E+00	 0.00000000E+00
					 6.96712000E-04	-1.46038000E-02	-1.34156000E-02
					 0.00000000E+00	 0.00000000E+00	 0.00000000E+00
					 2.08027000E-03	-3.50892000E-03	-6.62285000E-03
					 1.29526000E-03	-1.24771000E-02	-6.73422000E-03
					 0.00000000E+00	 0.00000000E+00	 0.00000000E+00
					 1.53912000E-03	-1.41093000E-02	-1.34132000E-02
					 0.00000000E+00	 0.00000000E+00	 0.00000000E+00
					 2.03167000E-04	-4.60845000E-03	-6.32103000E-03
					 3.34894000E-04	-1.39646000E-02	-6.68023000E-03
					 0.00000000E+00	 0.00000000E+00	 0.00000000E+00
					 0.00000000E+00	 0.00000000E+00	 0.00000000E+00
					 2.03376000E-05	-1.36312000E-02	 2.14416000E-04
					 1.48162000E-03	-1.46949000E-02	 1.33467000E-02
					 0.00000000E+00	 0.00000000E+00	 0.00000000E+00
					 0.00000000E+00	 0.00000000E+00	 0.00000000E+00
					 1.90877000E-05	-1.41449000E-02	 6.78568000E-05
					 4.90034000E-04	-1.52395000E-02	 1.34244000E-02
					 0.00000000E+00	 0.00000000E+00	 0.00000000E+00
					 3.66755000E-05	-2.84668000E-03	 1.33863000E-04
					 7.57337000E-04	-1.38709000E-02	 6.58757000E-03
					 1.79383000E-03	-4.05896000E-03	 6.67169000E-03
					 0.00000000E+00	 0.00000000E+00	 0.00000000E+00
					-1.24802000E-03	-1.43924000E-02	-1.31847000E-02
					 0.00000000E+00	 0.00000000E+00	 0.00000000E+00
					-2.49912000E-04	-1.48106000E-02	-1.34079000E-02
					 0.00000000E+00	 0.00000000E+00	 0.00000000E+00
					-1.84573000E-03	-3.81037000E-03	-6.46530000E-03
					-6.13810000E-04	-1.37174000E-02	-6.34395000E-03
					 2.99214000E-04	-5.15424000E-02	-7.39938000E-04
					-3.22306000E-03	-5.28873000E-02	 2.44013000E-02
					 3.03799000E-04	-5.41022000E-02	-8.73475000E-04
					-1.48216000E-03	-5.55530000E-02	 2.44360000E-02
					 1.94493000E-04	-2.89598000E-02	-3.12509000E-04
					-1.45102000E-03	-5.20200000E-02	 1.18147000E-02
					-2.72341000E-03	-3.02941000E-02	 1.92118000E-02
					 3.06671000E-04	-5.30151000E-02	-8.39734000E-04
					-2.35583000E-03	-5.44039000E-02	 2.43314000E-02
					 2.06333000E-04	-3.10216000E-02	-3.29197000E-04
					-5.92922000E-04	-5.46802000E-02	 1.16955000E-02
					-9.41114000E-04	-3.23260000E-02	 1.93113000E-02
					 3.74618000E-03	-5.14683000E-02	-2.61416000E-02
					 2.03332000E-03	-5.41793000E-02	-2.61980000E-02
					 3.02261000E-03	-2.95131000E-02	-1.99427000E-02
					 1.98818000E-03	-5.13484000E-02	-1.34305000E-02
					 2.87771000E-03	-5.31143000E-02	-2.60346000E-02
					 1.33545000E-03	-3.14618000E-02	-1.99741000E-02
					 1.19974000E-03	-5.39617000E-02	-1.33816000E-02
					 3.02500000E-04	-5.50510000E-02	-8.71283000E-04
					 7.17670000E-05	-5.66189000E-02	 2.43180000E-02
					 3.00560000E-04	-5.47656000E-02	-8.75291000E-04
					-6.91996000E-04	-5.63247000E-02	 2.45002000E-02
					 1.60415000E-04	-3.12475000E-02	-2.51603000E-04
					 1.99731000E-04	-5.56147000E-02	 1.15493000E-02
					 8.70049000E-04	-3.25327000E-02	 1.93112000E-02
					 4.75421000E-04	-5.51720000E-02	-2.60720000E-02
					 1.24297000E-03	-5.48856000E-02	-2.62306000E-02
					-5.13449000E-04	-3.16918000E-02	-1.98118000E-02
					 4.35557000E-04	-5.49547000E-02	-1.32010000E-02
					 7.61814000E-04	-1.12285000E-01	-2.46341000E-03
					-3.28024000E-03	-1.13974000E-01	 3.13357000E-02
					 6.83355000E-04	-1.15594000E-01	-2.51022000E-03
					-2.21625000E-03	-1.17413000E-01	 3.14311000E-02
					 4.33497000E-04	-7.95599000E-02	-1.52624000E-03
					-1.21428000E-03	-1.13007000E-01	 1.43420000E-02
					-3.37392000E-03	-8.11993000E-02	 2.84587000E-02
					 7.36074000E-04	-1.14105000E-01	-2.51663000E-03
					-2.75025000E-03	-1.15811000E-01	 3.13771000E-02
					 4.48715000E-04	-8.26601000E-02	-1.52072000E-03
					-7.62433000E-04	-1.16358000E-01	 1.43544000E-02
					-1.95656000E-03	-8.43467000E-02	 2.85081000E-02
					 4.58945000E-03	-1.11532000E-01	-3.65067000E-02
					 3.57471000E-03	-1.14921000E-01	-3.65150000E-02
					 4.27806000E-03	-7.92412000E-02	-3.16224000E-02
					 2.65716000E-03	-1.11782000E-01	-1.93178000E-02
					 4.07232000E-03	-1.13308000E-01	-3.65774000E-02
					 2.91011000E-03	-8.23303000E-02	-3.16878000E-02
					 2.10529000E-03	-1.15136000E-01	-1.94168000E-02
					 6.71895000E-04	-1.17887000E-01	-2.45817000E-03
					-1.32687000E-03	-1.19930000E-01	 3.13717000E-02
					 6.64323000E-04	-1.16884000E-01	-2.50756000E-03
					-1.77326000E-03	-1.18606000E-01	 3.14398000E-02
					 5.11969000E-04	-8.44563000E-02	-1.53225000E-03
					-2.94374000E-04	-1.18787000E-01	 1.42811000E-02
					-6.33847000E-04	-8.60950000E-02	 2.84679000E-02
					 2.65393000E-03	-1.17412000E-01	-3.64459000E-02
					 3.12068000E-03	-1.16203000E-01	-3.65731000E-02
					 1.67593000E-03	-8.42313000E-02	-3.15606000E-02
					 1.55311000E-03	-1.17502000E-01	-1.93380000E-02
					 1.22435000E-03	-1.87703000E-01	-5.29013000E-03
					-2.16159000E-03	-1.89794000E-01	 3.41109000E-02