<?xml version="1.0"?>
<VTKFile type="UnstructuredGrid" version="0.1" byte_order="LittleEndian">
	<UnstructuredGrid>
		<Piece NumberOfPoints="522" NumberOfCells="64">
			<Points>
				<DataArray type="Float64" NumberOfComponents="3" format="ascii">
					 1.00000000E+00	 1.00000000E+00	-5.96046000E-08
					 1.00000000E+00	 5.00000000E-01	-5.96046000E-08
					 1.00000000E+00	 5.00000000E-01	 1.00000000E+00
					 1.00000000E+00	 1.00000000E+00	 1.00000000E+00
					 5.00000000E-01	 1.00000000E+00	-5.96046000E-08
					 5.00000000E-01	 5.00000000E-01	-5.96046000E-08
					 5.00000000E-01	 5.00000000E-01	 1.00000000E+00
					 5.00000000E-01	 1.00000000E+00	 1.00000000E+00
					 1.00000000E+00	 7.50000000E-01	-5.96046000E-08
					 1.00000000E+00	 5.00000000E-01	 5.00000000E-01
					 1.00000000E+00	 7.50000000E-01	 1.00000000E+00
					 1.00000000E+00	 1.00000000E+00	 5.00000000E-01
					 7.50000000E-01	 1.00000000E+00	-5.96046000E-08
					 7.50000000E-01	 5.00000000E-01	-5.96046000E-08
					 7.50000000E-01	 5.00000000E-01	 1.00000000E+00
					 7.50000000E-01	 1.00000000E+00	 1.00000000E+00
					 5.00000000E-01	 7.50000000E-01	-5.96046000E-08
					 5.00000000E-01	 5.00000000E-01	 5.00000000E-01
					 5.00000000E-01	 7.50000000E-01	 1.00000000E+00
					 5.00000000E-01	 1.00000000E+00	 5.00000000E-01
					 1.00000000E+00	-1.49012000E-08	-5.96046000E-08
					 1.00000000E+00	-1.49012000E-08	 1.00000000E+00
					 5.00000000E-01	-1.49012000E-08	-5.96046000E-08
					 5.00000000E-01	-1.49012000E-08	 1.00000000E+00
					 1.00000000E+00	 2.50000000E-01	-5.96046000E-08
					 1.00000000E+00	-1.49012000E-08	 5.00000000E-01
					 1.00000000E+00	 2.50000000E-01	 1.00000000E+00
					 7.50000000E-01	-1.49012000E-08	-5.96046000E-08
					 7.50000000E-01	-1.49012000E-08	 1.00000000E+00
					 5.00000000E-01	 2.50000000E-01	-5.96046000E-08
					 5.00000000E-01	-1.49012000E-08	 5.00000000E-01
					 5.00000000E-01	 2.50000000E-01	 1.00000000E+00
					-7.45058000E-09	 1.00000000E+00	-5.96046000E-08
					-7.45058000E-09	 5.00000000E-01	-5.96046000E-08
					-7.45058000E-09	 5.00000000E-01	 1.00000000E+00
					-7.45058000E-09	 1.00000000E+00	 1.00000000E+00
					 2.50000000E-01	 1.00000000E+00	-5.96046000E-08
					 2.50000000E-01	 5.00000000E-01	-5.96046000E-08
					 2.50000000E-01	 5.00000000E-01	 1.00000000E+00
					 2.50000000E-01	 1.00000000E+00	 1.00000000E+00
					-7.45058000E-09	 7.50000000E-01	-5.96046000E-08
					-7.45058000E-09	 5.00000000E-01	 5.00000000E-01
					-7.45058000E-09	 7.50000000E-01	 1.00000000E+00
					-7.45058000E-09	 1.00000000E+00	 5.00000000E-01
					-7.45058000E-09	-1.49012000E-08	-5.96046000E-08
					-7.45058000E-09	-1.49012000E-08	 1.00000000E+00
					 2.50000000E-01	-1.49012000E-08	-5.96046000E-08
					 2.50000000E-01	-1.49012000E-08	 1.00000000E+00
					-7.45058000E-09	 2.50000000E-01	-5.96046000E-08
					-7.45058000E-09	-1.49012000E-08	 5.00000000E-01
					-7.45058000E-09	 2.50000000E-01	 1.00000000E+00
					 1.00000000E+00	 5.00000000E-01	 2.00000000E+00
					 1.00000000E+00	 1.00000000E+00	 2.00000000E+00
					 5.00000000E-01	 5.00000000E-01	 2.00000000E+00
					 5.00000000E-01	 1.00000000E+00	 2.00000000E+00
					 1.00000000E+00	 5.00000000E-01	 1.50000000E+00
					 1.00000000E+00	 7.50000000E-01	 2.00000000E+00
					 1.00000000E+00	 1.00000000E+00	 1.50000000E+00
					 7.50000000E-01	 5.00000000E-01	 2.00000000E+00
					 7.50000000E-01	 1.00000000E+00	 2.00000000E+00
					 5.00000000E-01	 5.00000000E-01	 1.50000000E+00
					 5.00000000E-01	 7.50000000E-01	 2.00000000E+00
					 5.00000000E-01	 1.00000000E+00	 1.50000000E+00
					 1.00000000E+00	-1.49012000E-08	 2.00000000E+00
					 5.00000000E-01	-1.49012000E-08	 2.00000000E+00
					 1.00000000E+00	-1.49012000E-08	 1.50000000E+00
					 1.00000000E+00	 2.50000000E-01	 2.00000000E+00
					 7.50000000E-01	-1.49012000E-08	 2.00000000E+00
					 5.00000000E-01	-1.49012000E-08	 1.50000000E+00
					 5.00000000E-01	 2.50000000E-01	 2.00000000E+00
					-7.45058000E-09	 5.00000000E-01	 2.00000000E+00
					-7.45058000E-09	 1.00000000E+00	 2.00000000E+00
					 2.50000000E-01	 5.00000000E-01	 2.00000000E+00
					 2.50000000E-01	 1.00000000E+00	 2.00000000E+00
					-7.45058000E-09	 5.00000000E-01	 1.50000000E+00
					-7.45058000E-09	 7.50000000E-01	 2.00000000E+00
					-7.45058000E-09	 1.00000000E+00	 1.50000000E+00
					-7.45058000E-09	-1.49012000E-08	 2.00000000E+00
					 2.50000000E-01	-1.49012000E-08	 2.00000000E+00
					-7.45058000E-09	-1.49012000E-08	 1.50000000E+00
					-7.45058000E-09	 2.50000000E-01	 2.00000000E+00
					 1.00000000E+00	 5.00000000E-01	 3.00000000E+00
					 1.00000000E+00	 1.00000000E+00	 3.00000000E+00
					 5.00000000E-01	 5.00000000E-01	 3.00000000E+00
					 5.00000000E-01	 1.00000000E+00	 3.00000000E+00
					 1.00000000E+00	 5.00000000E-01	 2.50000000E+00
					 1.00000000E+00	 7.50000000E-01	 3.00000000E+00
					 1.00000000E+00	 1.00000000E+00	 2.50000000E+00
					 7.50000000E-01	 5.00000000E-01	 3.00000000E+00
					 7.50000000E-01	 1.00000000E+00	 3.00000000E+00
					 5.00000000E-01	 5.00000000E-01	 2.50000000E+00
					 5.00000000E-01	 7.50000000E-01	 3.00000000E+00
					 5.00000000E-01	 1.00000000E+00	 2.50000000E+00
					 1.00000000E+00	-1.49012000E-08	 3.00000000E+00
					 5.00000000E-01	-1.49012000E-08	 3.00000000E+00
					 1.00000000E+00	-1.49012000E-08	 2.50000000E+00
					 1.00000000E+00	 2.50000000E-01	 3.00000000E+00
					 7.50000000E-01	-1.49012000E-08	 3.00000000E+00
					 5.00000000E-01	-1.49012000E-08	 2.50000000E+00
					 5.00000000E-01	 2.50000000E-01	 3.00000000E+00
					-7.45058000E-09	 5.00000000E-01	 3.00000000E+00
					-7.45058000E-09	 1.00000000E+00	 3.00000000E+00
					 2.50000000E-01	 5.00000000E-01	 3.00000000E+00
					 2.50000000E-01	 1.00000000E+00	 3.00000000E+00
					-7.45058000E-09	 5.00000000E-01	 2.50000000E+00
					-7.45058000E-09	 7.50000000E-01	 3.00000000E+00
					-7.45058000E-09	 1.00000000E+00	 2.50000000E+00
					-7.45058000E-09	-1.49012000E-08	 3.00000000E+00
					 2.50000000E-01	-1.49012000E-08	 3.00000000E+00
					-7.45058000E-09	-1.49012000E-08	 2.50000000E+00
					-7.45058000E-09	 2.50000000E-01	 3.00000000E+00
					 1.00000000E+00	 5.00000000E-01	 4.00000000E+00
					 1.00000000E+00	 1.00000000E+00	 4.00000000E+00
					 5.00000000E-01	 5.00000000E-01	 4.00000000E+00
					 5.00000000E-01	 1.00000000E+00	 4.00000000E+00
					 1.00000000E+00	 5.00000000E-01	 3.50000000E+00
					 1.00000000E+00	 7.50000000E-01	 4.00000000E+00
					 1.00000000E+00	 1.00000000E+00	 3.50000000E+00
					 7.50000000E-01	 5.00000000E-01	 4.00000000E+00
					 7.50000000E-01	 1.00000000E+00	 4.00000000E+00
					 5.00000000E-01	 5.00000000E-01	 3.50000000E+00
					 5.00000000E-01	 7.50000000E-01	 4.00000000E+00
					 5.00000000E-01	 1.00000000E+00	 3.50000000E+00
					 1.00000000E+00	-1.49012000E-08	 4.00000000E+00
					 5.00000000E-01	-1.49012000E-08	 4.00000000E+00
					 1.00000000E+00	-1.49012000E-08	 3.50000000E+00
					 1.00000000E+00	 2.50000000E-01	 4.00000000E+00
					 7.50000000E-01	-1.49012000E-08	 4.00000000E+00
					 5.00000000E-01	-1.49012000E-08	 3.50000000E+00
					 5.00000000E-01	 2.50000000E-01	 4.00000000E+00
					-7.45058000E-09	 5.00000000E-01	 4.00000000E+00
					-7.45058000E-09	 1.00000000E+00	 4.00000000E+00
					 2.50000000E-01	 5.00000000E-01	 4.00000000E+00
					 2.50000000E-01	 1.00000000E+00	 4.00000000E+00
					-7.45058000E-09	 5.00000000E-01	 3.50000000E+00
					-7.45058000E-09	 7.50000000E-01	 4.00000000E+00
					-7.45058000E-09	 1.00000000E+00	 3.50000000E+00
					-7.45058000E-09	-1.49012000E-08	 4.00000000E+00
					 2.50000000E-01	-1.49012000E-08	 4.00000000E+00
					-7.45058000E-09	-1.49012000E-08	 3.50000000E+00
					-7.45058000E-09	 2.50000000E-01	 4.00000000E+00
					 1.00000000E+00	 5.00000000E-01	 5.00000000E+00
					 1.00000000E+00	 1.00000000E+00	 5.00000000E+00
					 5.00000000E-01	 5.00000000E-01	 5.00000000E+00
					 5.00000000E-01	 1.00000000E+00	 5.00000000E+00
					 1.00000000E+00	 5.00000000E-01	 4.50000000E+00
					 1.00000000E+00	 7.50000000E-01	 5.00000000E+00
					 1.00000000E+00	 1.00000000E+00	 4.50000000E+00
					 7.50000000E-01	 5.00000000E-01	 5.00000000E+00
					 7.50000000E-01	 1.00000000E+00	 5.00000000E+00
					 5.00000000E-01	 5.00000000E-01	 4.50000000E+00
					 5.00000000E-01	 7.50000000E-01	 5.00000000E+00
					 5.00000000E-01	 1.00000000E+00	 4.50000000E+00
					 1.00000000E+00	-1.49012000E-08	 5.00000000E+00
					 5.00000000E-01	-1.49012000E-08	 5.00000000E+00
					 1.00000000E+00	-1.49012000E-08	 4.50000000E+00
					 1.00000000E+00	 2.50000000E-01	 5.00000000E+00
					 7.50000000E-01	-1.49012000E-08	 5.00000000E+00
					 5.00000000E-01	-1.49012000E-08	 4.50000000E+00
					 5.00000000E-01	 2.50000000E-01	 5.00000000E+00
					-7.45058000E-09	 5.00000000E-01	 5.00000000E+00
					-7.45058000E-09	 1.00000000E+00	 5.00000000E+00
					 2.50000000E-01	 5.00000000E-01	 5.00000000E+00
					 2.50000000E-01	 1.00000000E+00	 5.00000000E+00
					-7.45058000E-09	 5.00000000E-01	 4.50000000E+00
					-7.45058000E-09	 7.50000000E-01	 5.00000000E+00
					-7.45058000E-09	 1.00000000E+00	 4.50000000E+00
					-7.45058000E-09	-1.49012000E-08	 5.00000000E+00
					 2.50000000E-01	-1.49012000E-08	 5.00000000E+00
					-7.45058000E-09	-1.49012000E-08	 4.50000000E+00
					-7.45058000E-09	 2.50000000E-01	 5.00000000E+00
					 1.00000000E+00	 5.00000000E-01	 6.00000000E+00
					 1.00000000E+00	 1.00000000E+00	 6.00000000E+00
					 5.00000000E-01	 5.00000000E-01	 6.00000000E+00
					 5.00000000E-01	 1.00000000E+00	 6.00000000E+00
					 1.00000000E+00	 5.00000000E-01	 5.50000000E+00
					 1.00000000E+00	 7.50000000E-01	 6.00000000E+00
					 1.00000000E+00	 1.00000000E+00	 5.50000000E+00
					 7.50000000E-01	 5.00000000E-01	 6.00000000E+00
					 7.50000000E-01	 1.00000000E+00	 6.00000000E+00
					 5.00000000E-01	 5.00000000E-01	 5.50000000E+00
					 5.00000000E-01	 7.50000000E-01	 6.00000000E+00
					 5.00000000E-01	 1.00000000E+00	 5.50000000E+00
					 1.00000000E+00	-1.49012000E-08	 6.00000000E+00
[...]
			<PointData>
				<DataArray type="Float32" Name="U" NumberOfComponents="3" ComponentName0="D1" ComponentName1="D2" ComponentName2="D3" format="ascii">
					 0.00000000E+00	 0.00000000E+00	 0.00000000E+00
					 0.00000000E+00	 0.00000000E+00	 0.00000000E+00
					-7.25698000E-06	-2.00755000E-03	 3.73004000E-05
					-1.92118000E-04	-2.16574000E-03	 2.73420000E-03
					 0.00000000E+00	 0.00000000E+00	 0.00000000E+00
					 0.00000000E+00	 0.00000000E+00	 0.00000000E+00
					 3.49466000E-06	-1.80738000E-03	-1.71476000E-05
					 4.60714000E-04	-2.05186000E-03	 2.69758000E-03
					 0.00000000E+00	 0.00000000E+00	 0.00000000E+00
					 3.62271000E-09	-2.64161000E-04	 1.65020000E-05
					-4.36104000E-05	-2.01409000E-03	 1.40693000E-03
					-1.54758000E-04	-4.82846000E-04	 1.17144000E-03
					 0.00000000E+00	 0.00000000E+00	 0.00000000E+00
					 0.00000000E+00	 0.00000000E+00	 0.00000000E+00
					 2.07195000E-06	-1.98445000E-03	 4.11457000E-06
					 1.23773000E-04	-2.24918000E-03	 2.71897000E-03
					 0.00000000E+00	 0.00000000E+00	 0.00000000E+00
					 3.11019000E-05	-2.07123000E-04	-1.04762000E-05
					 2.12287000E-04	-1.86198000E-03	 1.35014000E-03
					 3.01680000E-04	-3.80463000E-04	 1.08675000E-03
					 0.00000000E+00	 0.00000000E+00	 0.00000000E+00
					-1.13076000E-05	-2.37194000E-03	-2.68752000E-03
					 0.00000000E+00	 0.00000000E+00	 0.00000000E+00
					-4.97487000E-04	-2.02358000E-03	-2.74666000E-03
					 0.00000000E+00	 0.00000000E+00	 0.00000000E+00
					 1.05097000E-04	-5.38343000E-04	-1.11924000E-03
					 3.91654000E-05	-2.12713000E-03	-1.32325000E-03
					 0.00000000E+00	 0.00000000E+00	 0.00000000E+00
					-2.50072000E-04	-2.25375000E-03	-2.75644000E-03
					 0.00000000E+00	 0.00000000E+00	 0.00000000E+00
					-2.88767000E-04	-4.19408000E-04	-1.12227000E-03
					-2.28735000E-04	-1.84433000E-03	-1.39114000E-03
					 0.00000000E+00	 0.00000000E+00	 0.00000000E+00
					 0.00000000E+00	 0.00000000E+00	 0.00000000E+00
					-1.34706000E-05	-1.10824000E-03	-7.64604000E-05
					 1.11757000E-03	-1.17033000E-03	 2.66791000E-03
					 0.00000000E+00	 0.00000000E+00	 0.00000000E+00
					 0.00000000E+00	 0.00000000E+00	 0.00000000E+00
					-8.59359000E-06	-1.55375000E-03	-3.14252000E-05
					 7.88701000E-04	-1.80718000E-03	 2.62726000E-03
					 0.00000000E+00	 0.00000000E+00	 0.00000000E+00
					 5.22735000E-05	 3.18657000E-04	-1.49769000E-05
					 4.68159000E-04	-1.07178000E-03	 1.35932000E-03
					 7.41179000E-04	 1.16534000E-04	 1.15673000E-03
					 0.00000000E+00	 0.00000000E+00	 0.00000000E+00
					-9.43441000E-04	-1.37949000E-03	-2.76432000E-03
					 0.00000000E+00	 0.00000000E+00	 0.00000000E+00
					-7.19208000E-04	-1.81430000E-03	-2.68960000E-03
					 0.00000000E+00	 0.00000000E+00	 0.00000000E+00
					-7.07835000E-04	 7.18503000E-05	-1.20422000E-03
					-4.69190000E-04	-1.18164000E-03	-1.51816000E-03
					 2.43048000E-05	-1.09369000E-02	-5.11055000E-05
					 8.09315000E-05	-1.13816000E-02	 5.82296000E-03
					 2.25323000E-05	-1.09227000E-02	-1.02377000E-04
					 2.40117000E-04	-1.11583000E-02	 5.83290000E-03
					-8.83983000E-06	-5.67961000E-03	-6.14284000E-05
					-5.16260000E-05	-1.11051000E-02	 2.88003000E-03
					-2.54921000E-05	-5.93350000E-03	 4.36014000E-03
					 3.41579000E-05	-1.09670000E-02	-5.59234000E-05
					 1.45302000E-04	-1.12195000E-02	 5.78958000E-03
					-1.41485000E-05	-5.53186000E-03	-5.90481000E-05
					 1.49311000E-04	-1.09915000E-02	 2.84079000E-03
					 4.00180000E-04	-5.79487000E-03	 4.41973000E-03
					 2.40351000E-04	-1.10176000E-02	-5.90745000E-03
					-2.00538000E-04	-1.10505000E-02	-5.94979000E-03
					 9.43644000E-05	-5.89658000E-03	-4.40855000E-03
					 8.35234000E-05	-1.09249000E-02	-2.99997000E-03
					 1.49661000E-05	-1.11168000E-02	-5.84414000E-03
					-3.86661000E-04	-5.71320000E-03	-4.45694000E-03
					-7.64605000E-05	-1.09370000E-02	-2.95876000E-03
					 7.45474000E-05	-1.04694000E-02	-3.25652000E-05
					 5.22477000E-04	-1.09049000E-02	 5.77572000E-03
					 4.43199000E-05	-1.07501000E-02	-6.24508000E-05
					 3.77646000E-04	-1.10051000E-02	 5.85789000E-03
					-7.88110000E-06	-4.90494000E-03	-7.47723000E-05
					 3.36518000E-04	-1.06489000E-02	 2.76375000E-03
					 9.28321000E-04	-5.11303000E-03	 4.34605000E-03
					-7.24016000E-04	-1.04777000E-02	-5.96064000E-03
					-4.47320000E-04	-1.08957000E-02	-6.03006000E-03
					-9.35888000E-04	-4.97741000E-03	-4.41885000E-03
					-2.68078000E-04	-1.04358000E-02	-2.84714000E-03
					 2.36128000E-05	-2.43016000E-02	 2.76252000E-05
					-1.20691000E-03	-2.43361000E-02	 7.89273000E-03
					 4.65479000E-05	-2.51787000E-02	 1.15911000E-05
					-6.84303000E-04	-2.53789000E-02	 7.91062000E-03
					 8.50232000E-06	-1.71284000E-02	 2.62235000E-05
					-4.49515000E-04	-2.42965000E-02	 3.98180000E-03
					-6.08445000E-04	-1.73127000E-02	 6.96127000E-03
					 2.73640000E-05	-2.47896000E-02	 1.31661000E-05
					-9.25104000E-04	-2.49982000E-02	 7.85535000E-03
					 4.45022000E-05	-1.75371000E-02	-3.52556000E-05
					-3.37507000E-04	-2.52512000E-02	 3.94848000E-03
					-2.45506000E-04	-1.77958000E-02	 6.93214000E-03
					 9.78674000E-04	-2.43984000E-02	-7.97263000E-03
					 7.69897000E-04	-2.52622000E-02	-7.88903000E-03
					 6.12881000E-04	-1.71942000E-02	-7.01686000E-03
					 5.13805000E-04	-2.43290000E-02	-4.00872000E-03
					 8.64905000E-04	-2.48674000E-02	-7.91187000E-03
					 2.70266000E-04	-1.76268000E-02	-7.04362000E-03
					 4.04467000E-04	-2.51840000E-02	-3.94757000E-03
					 5.93405000E-05	-2.58009000E-02	-1.30304000E-05
					-4.15996000E-04	-2.59106000E-02	 7.90457000E-03
					 4.89457000E-05	-2.55008000E-02	-1.83393000E-05
					-5.39767000E-04	-2.57011000E-02	 7.95888000E-03
					 5.91564000E-05	-1.76481000E-02	-7.76821000E-06
					-1.84789000E-04	-2.58007000E-02	 3.87700000E-03
					 7.18601000E-05	-1.78920000E-02	 6.96653000E-03
					 6.79802000E-04	-2.59737000E-02	-7.97668000E-03
					 7.20413000E-04	-2.55514000E-02	-8.00613000E-03
					 1.37920000E-05	-1.77292000E-02	-7.05822000E-03
					 3.04102000E-04	-2.58504000E-02	-3.91134000E-03
					 1.09308000E-04	-4.25622000E-02	-1.70252000E-04
					-3.65131000E-04	-4.26759000E-02	 9.23969000E-03
					 7.31320000E-05	-4.30242000E-02	-1.81798000E-04
					-3.34220000E-04	-4.31767000E-02	 9.26415000E-03
					 5.72754000E-05	-3.29565000E-02	-7.88301000E-05
					-1.62942000E-04	-4.25974000E-02	 4.38399000E-03
					-8.87955000E-04	-3.30231000E-02	 8.68531000E-03
					 1.07325000E-04	-4.28100000E-02	-1.77692000E-04
					-3.54290000E-04	-4.29678000E-02	 9.34237000E-03
					 7.23414000E-05	-3.36986000E-02	-6.68941000E-05
					-1.09854000E-04	-4.30763000E-02	 4.47868000E-03
					-5.76457000E-04	-3.38823000E-02	 8.69519000E-03
					 6.55254000E-04	-4.24416000E-02	-9.53770000E-03
					 4.71701000E-04	-4.29858000E-02	-9.63855000E-03
					 9.75094000E-04	-3.29325000E-02	-8.83991000E-03
					 3.40244000E-04	-4.25000000E-02	-4.72523000E-03
					 5.52067000E-04	-4.27823000E-02	-9.67518000E-03
					 7.16165000E-04	-3.37432000E-02	-8.82003000E-03
					 2.61457000E-04	-4.29864000E-02	-4.85696000E-03
					 8.62102000E-05	-4.32780000E-02	-1.74340000E-04
					-2.76027000E-04	-4.35762000E-02	 9.21284000E-03
					 6.94942000E-05	-4.31970000E-02	-1.73454000E-04
					-2.88521000E-04	-4.33303000E-02	 9.17138000E-03
					 9.20507000E-05	-3.42356000E-02	-9.73028000E-05
					-4.15252000E-05	-4.34144000E-02	 4.52708000E-03
					-4.13069000E-04	-3.44504000E-02	 8.68584000E-03
					 2.48217000E-04	-4.32559000E-02	-9.58171000E-03
					 3.57673000E-04	-4.31669000E-02	-9.51580000E-03
					 5.40909000E-04	-3.43507000E-02	-8.86229000E-03
					 1.58108000E-04	-4.32539000E-02	-4.91400000E-03
					 7.52774000E-05	-6.35150000E-02	-4.71314000E-04
					 8.70466000E-04	-6.36617000E-02	 9.00144000E-03
					 1.02475000E-04	-6.28605000E-02	-4.32692000E-04
					 6.86125000E-04	-6.28918000E-02	 9.05046000E-03
					 5.73961000E-05	-5.30650000E-02	-3.03703000E-04
					 4.40467000E-04	-6.36014000E-02	 4.17740000E-03
					 2.54804000E-04	-5.32033000E-02	 9.29516000E-03
					 6.61377000E-05	-6.31433000E-02	-4.46830000E-04
					 7.86384000E-04	-6.31603000E-02	 9.09331000E-03
					 6.98702000E-05	-5.29517000E-02	-2.96251000E-04
					 3.84225000E-04	-6.28742000E-02	 4.28933000E-03
					 1.66266000E-04	-5.30378000E-02	 9.36647000E-03
					-6.68953000E-04	-6.34474000E-02	-9.90623000E-03
					-5.06873000E-04	-6.27498000E-02	-9.86400000E-03
					-7.12468000E-05	-5.30223000E-02	-9.90939000E-03
					-2.32862000E-04	-6.34635000E-02	-5.07874000E-03
					-5.63981000E-04	-6.30159000E-02	-9.93137000E-03
					-4.64976000E-05	-5.28470000E-02	-9.96036000E-03
					-1.99480000E-04	-6.28345000E-02	-5.12758000E-03
					 1.41317000E-04	-6.23467000E-02	-3.61935000E-04
					 5.51961000E-04	-6.24135000E-02	 9.12347000E-03
					 1.32087000E-04	-6.25709000E-02	-3.90328000E-04
					 5.98355000E-04	-6.26183000E-02	 9.04519000E-03
					 8.16154000E-05	-5.28272000E-02	-2.73328000E-04
					 3.58231000E-04	-6.23957000E-02	 4.37499000E-03
					 1.25161000E-04	-5.29823000E-02	 9.35732000E-03
					-4.81378000E-04	-6.21201000E-02	-9.75360000E-03
					-5.03749000E-04	-6.24116000E-02	-9.75355000E-03
					-6.70971000E-05	-5.27721000E-02	-9.89274000E-03
					-1.46343000E-04	-6.22271000E-02	-5.06729000E-03
					 5.79962000E-05	-8.19831000E-02	-5.76270000E-04
					 1.14117000E-03	-8.20821000E-02	 8.22159000E-03
					 9.51916000E-05	-8.09522000E-02	-4.64188000E-04
					 1.13508000E-03	-8.09753000E-02	 8.29923000E-03
					 1.02727000E-04	-7.30035000E-02	-5.26559000E-04
					 6.06744000E-04	-8.20453000E-02	 3.86349000E-03
					 1.10941000E-03	-7.31140000E-02	 8.57386000E-03
					 6.81020000E-05	-8.14797000E-02	-5.28602000E-04
					 1.13578000E-03	-8.15546000E-02	 8.25273000E-03
					 1.12215000E-04	-7.20796000E-02	-4.56971000E-04
					 6.08305000E-04	-8.09654000E-02	 3.91087000E-03
					 9.80609000E-04	-7.21774000E-02	 8.62354000E-03
					-8.71336000E-04	-8.18739000E-02	-9.37076000E-03
					-9.11636000E-04	-8.08619000E-02	-9.33208000E-03
					-9.07151000E-04	-7.28692000E-02	-9.64214000E-03
					-4.28069000E-04	-8.19394000E-02	-5.00081000E-03
					-8.96771000E-04	-8.13938000E-02	-9.36021000E-03
					-7.48934000E-04	-7.19547000E-02	-9.55090000E-03
					-3.93864000E-04	-8.09156000E-02	-4.92625000E-03
					 1.60574000E-04	-7.99778000E-02	-4.60582000E-04
					 1.05880000E-03	-8.00241000E-02	 8.32379000E-03
					 1.48388000E-04	-8.04394000E-02	-4.77972000E-04
					 1.09572000E-03	-8.04618000E-02	 8.28471000E-03
					 1.09926000E-04	-7.13171000E-02	-3.98684000E-04
					 6.15762000E-04	-8.00139000E-02	 4.01324000E-03
					 8.24958000E-04	-7.13966000E-02	 8.70480000E-03
					-8.52171000E-04	-7.98430000E-02	-9.24210000E-03
					-8.80859000E-04	-8.03544000E-02	-9.29091000E-03
					-6.03125000E-04	-7.11303000E-02	-9.51461000E-03
					-3.76086000E-04	-7.99147000E-02	-4.88680000E-03
					 9.76603000E-05	-9.98866000E-02	-7.85086000E-04
					 1.70598000E-03	-9.99896000E-02	 7.94143000E-03
					 1.50865000E-04	-9.83180000E-02	-7.41194000E-04
					 1.63224000E-03	-9.84038000E-02	 8.08747000E-03
					 1.39901000E-04	-9.08571000E-02	-6.81702000E-04
					 8.96826000E-04	-9.99452000E-02	 3.53924000E-03
					 1.31595000E-03	-9.08881000E-02	 8.06413000E-03
					 1.27944000E-04	-9.90857000E-02	-7.52624000E-04
					 1.69174000E-03	-9.92031000E-02	 8.11356000E-03
					 1.09079000E-04	-8.96289000E-02	-5.94779000E-04
					 8.91622000E-04	-9.83544000E-02	 3.68042000E-03
					 1.35422000E-03	-8.96701000E-02	 8.16574000E-03
					-1.22220000E-03	-9.97187000E-02	-9.59531000E-03
					-1.40550000E-03	-9.83054000E-02	-9.47161000E-03
					-1.06181000E-03	-9.07113000E-02	-9.41454000E-03
					-6.23753000E-04	-9.98160000E-02	-5.15776000E-03
					-1.30927000E-03	-9.90064000E-02	-9.56779000E-03
					-1.10961000E-03	-8.96094000E-02	-9.34959000E-03
					-6.48806000E-04	-9.83088000E-02	-5.10711000E-03
					 1.40520000E-04	-9.68410000E-02	-7.03077000E-04
					 1.60155000E-03	-9.68172000E-02	 8.08671000E-03
					 1.39421000E-04	-9.75743000E-02	-6.88070000E-04
					 1.60699000E-03	-9.76565000E-02	 8.06858000E-03
					 9.04981000E-05	-8.84139000E-02	-5.83741000E-04
					 8.83550000E-04	-9.68357000E-02	 3.70598000E-03
					 1.34013000E-03	-8.84410000E-02	 8.14502000E-03
					-1.62369000E-03	-9.66640000E-02	-9.42083000E-03
					-1.52115000E-03	-9.75175000E-02	-9.33916000E-03
					-1.09657000E-03	-8.82905000E-02	-9.32983000E-03
					-6.39350000E-04	-9.67592000E-02	-5.15219000E-03
					-4.50615000E-04	-1.18146000E-01	-4.61483000E-04
					 2.04753000E-03	-1.18624000E-01	 8.70106000E-03
					 8.29704000E-05	-1.15943000E-01	-1.02773000E-03
					 2.04022000E-03	-1.15748000E-01	 7.65679000E-03
					 1.50842000E-04	-1.08980000E-01	-7.12985000E-04
					 6.93002000E-04	-1.18350000E-01	 3.98208000E-03
					 2.15123000E-03	-1.09201000E-01	 8.23661000E-03
					-2.04084000E-04	-1.17051000E-01	-8.14888000E-04
					 2.06164000E-03	-1.17114000E-01	 8.08167000E-03
					 1.54107000E-04	-1.07144000E-01	-8.53612000E-04
					 9.92009000E-04	-1.15820000E-01	 3.39285000E-03
					 2.04845000E-03	-1.07192000E-01	 7.92523000E-03
					-1.89357000E-03	-1.18296000E-01	-1.00525000E-02
					-1.74559000E-03	-1.16149000E-01	-9.81198000E-03
					-1.59690000E-03	-1.08713000E-01	-9.74725000E-03
					-1.15107000E-03	-1.18180000E-01	-5.12604000E-03
					-1.83206000E-03	-1.17327000E-01	-1.00108000E-02
					-1.70299000E-03	-1.07092000E-01	-9.73461000E-03
					-7.80650000E-04	-1.16072000E-01	-5.35380000E-03
					 8.46517000E-04	-1.13893000E-01	-1.81033000E-04
					 2.18280000E-03	-1.13609000E-01	 7.82003000E-03
					 4.73089000E-04	-1.14938000E-01	-7.59410000E-04
					 2.09780000E-03	-1.14545000E-01	 7.63035000E-03
					 1.11057000E-04	-1.05290000E-01	-5.53548000E-04
					 1.56574000E-03	-1.13767000E-01	 3.91014000E-03
					 1.82745000E-03	-1.05556000E-01	 7.97278000E-03
					-1.47110000E-03	-1.14072000E-01	-9.59851000E-03
					-1.60317000E-03	-1.15154000E-01	-9.72864000E-03
					-1.80279000E-03	-1.05033000E-01	-9.45931000E-03
					-3.41368000E-04	-1.13974000E-01	-4.85986000E-03
					 0.00000000E+00	 0.00000000E+00	 0.00000000E+00
					 0.00000000E+00	 0.00000000E+00	 0.00000000E+00
					-2.60537000E-05	-8.84391000E-03	-1.55661000E-05
					-2.30650000E-03	-9.02473000E-03	 7.80168000E-03
					 0.00000000E+00	 0.00000000E+00	 0.00000000E+00
					 0.00000000E+00	 0.00000000E+00	 0.00000000E+00
					 7.43556000E-05	-1.06540000E-02	-1.29327000E-04
					-1.58235000E-03	-1.11418000E-02	 7.83692000E-03
					 0.00000000E+00	 0.00000000E+00	 0.00000000E+00
					 3.66558000E-05	-1.96759000E-03	 2.33581000E-05
					-1.10874000E-03	-8.74424000E-03	 3.82828000E-03
					-1.92038000E-03	-2.68749000E-03	 4.32599000E-03
					 0.00000000E+00	 0.00000000E+00	 0.00000000E+00
					 0.00000000E+00	 0.00000000E+00	 0.00000000E+00
					 3.83650000E-05	-9.87418000E-03	-9.84569000E-05
					-1.95014000E-03	-1.02349000E-02	 7.69887000E-03
					 0.00000000E+00	 0.00000000E+00	 0.00000000E+00
					 4.05208000E-05	-3.27522000E-03	-4.81448000E-05
					-7.18269000E-04	-1.07306000E-02	 3.69265000E-03
					-7.56713000E-04	-3.94679000E-03	 4.13859000E-03
					 0.00000000E+00	 0.00000000E+00	 0.00000000E+00
					 2.07711000E-03	-9.22677000E-03	-7.87780000E-03
					 0.00000000E+00	 0.00000000E+00	 0.00000000E+00
					 1.46689000E-03	-1.10306000E-02	-8.17773000E-03
					 0.00000000E+00	 0.00000000E+00	 0.00000000E+00
					 2.06723000E-03	-2.58012000E-03	-4.30077000E-03
					 1.02867000E-03	-8.88304000E-03	-3.89358000E-03
					 0.00000000E+00	 0.00000000E+00	 0.00000000E+00
					 1.74761000E-03	-1.02410000E-02	-7.93061000E-03
					 0.00000000E+00	 0.00000000E+00	 0.00000000E+00
					 8.68423000E-04	-3.95558000E-03	-4.30259000E-03
					 7.51271000E-04	-1.06564000E-02	-3.95187000E-03
					 0.00000000E+00	 0.00000000E+00	 0.00000000E+00
					 0.00000000E+00	 0.00000000E+00	 0.00000000E+00
					-1.96075000E-05	-1.18267000E-02	-2.34140000E-04
					-5.93746000E-04	-1.20192000E-02	 7.65144000E-03
					 0.00000000E+00	 0.00000000E+00	 0.00000000E+00
					 0.00000000E+00	 0.00000000E+00	 0.00000000E+00
					 1.85500000E-05	-1.13483000E-02	-1.96071000E-04
					-1.10599000E-03	-1.17395000E-02	 7.92289000E-03
					 0.00000000E+00	 0.00000000E+00	 0.00000000E+00
					 4.94179000E-05	-3.59237000E-03	-4.00222000E-05
					-3.21922000E-04	-1.17516000E-02	 3.35674000E-03
					 4.74903000E-04	-4.15549000E-03	 4.20274000E-03
					 0.00000000E+00	 0.00000000E+00	 0.00000000E+00
					 9.01632000E-04	-1.22373000E-02	-7.93531000E-03
					 0.00000000E+00	 0.00000000E+00	 0.00000000E+00
					 1.19288000E-03	-1.16101000E-02	-8.21957000E-03
					 0.00000000E+00	 0.00000000E+00	 0.00000000E+00
					-2.88108000E-04	-4.29357000E-03	-4.36461000E-03
					 3.25478000E-04	-1.18707000E-02	-3.74796000E-03
					-1.86011000E-05	-2.96609000E-02	-3.38452000E-04
					-2.87951000E-03	-2.99935000E-02	 1.17816000E-02
					 1.20943000E-04	-3.22072000E-02	-4.50208000E-04
					-2.36752000E-03	-3.24812000E-02	 1.17035000E-02
					-5.49156000E-06	-1.81848000E-02	-1.89794000E-04
					-1.48105000E-03	-2.97965000E-02	 5.62100000E-03
					-2.57587000E-03	-1.85961000E-02	 1.00884000E-02
					 4.07127000E-05	-3.09875000E-02	-3.79435000E-04
					-2.60920000E-03	-3.12994000E-02	 1.17903000E-02
					-2.40492000E-05	-2.04373000E-02	-2.69858000E-04
					-1.13030000E-03	-3.22896000E-02	 5.59484000E-03
					-1.89646000E-03	-2.08639000E-02	 1.00467000E-02
					 3.10236000E-03	-2.94821000E-02	-1.24283000E-02
					 2.37948000E-03	-3.24267000E-02	-1.25019000E-02
					 2.64465000E-03	-1.83632000E-02	-1.04868000E-02
					 1.45278000E-03	-2.95391000E-02	-6.34033000E-03
					 2.72271000E-03	-3.10890000E-02	-1.24601000E-02
					 1.97081000E-03	-2.07004000E-02	-1.05757000E-02
					 1.28344000E-03	-3.22937000E-02	-6.39503000E-03
					 1.92635000E-04	-3.44126000E-02	-4.21094000E-04
					-1.99441000E-03	-3.48493000E-02	 1.15421000E-02
					 1.74093000E-04	-3.33543000E-02	-4.29545000E-04
					-2.17041000E-03	-3.37041000E-02	 1.16809000E-02
					 2.25528000E-05	-2.20386000E-02	-3.22453000E-04
					-9.02452000E-04	-3.45844000E-02	 5.48724000E-03
					-1.28381000E-03	-2.25377000E-02	 9.96375000E-03
					 1.87871000E-03	-3.41980000E-02	-1.26296000E-02
					 2.12061000E-03	-3.34068000E-02	-1.26422000E-02
					 1.45593000E-03	-2.24324000E-02	-1.05684000E-02
					 1.07700000E-03	-3.42414000E-02	-6.42364000E-03
					 1.07635000E-04	-5.74250000E-02	-6.96108000E-04
					-2.72245000E-03	-5.76793000E-02	 1.31244000E-02
					 1.42388000E-04	-6.01356000E-02	-6.66477000E-04
					-2.55978000E-03	-6.04440000E-02	 1.33383000E-02
					 5.13767000E-05	-4.29836000E-02	-4.89666000E-04
					-1.29318000E-03	-5.75338000E-02	 6.11830000E-03
					-2.76097000E-03	-4.33466000E-02	 1.28522000E-02
					 1.30482000E-04	-5.88130000E-02	-6.71054000E-04
					-2.67403000E-03	-5.90489000E-02	 1.31649000E-02
					 7.41282000E-05	-4.56995000E-02	-5.72372000E-04
					-1.24438000E-03	-6.02980000E-02	 6.15391000E-03
					-2.48062000E-03	-4.60245000E-02	 1.28539000E-02
					 2.48693000E-03	-5.74052000E-02	-1.46456000E-02
					 2.80290000E-03	-5.99309000E-02	-1.46786000E-02
					 2.82295000E-03	-4.30198000E-02	-1.38875000E-02
					 1.47638000E-03	-5.74099000E-02	-7.52575000E-03
					 2.66192000E-03	-5.85143000E-02	-1.46427000E-02
					 2.65259000E-03	-4.56338000E-02	-1.39588000E-02
					 1.42734000E-03	-6.00094000E-02	-7.56643000E-03
					 2.03136000E-04	-6.28057000E-02	-7.23102000E-04
					-2.48431000E-03	-6.31126000E-02	 1.31913000E-02
					 1.59242000E-04	-6.15388000E-02	-6.89224000E-04
					-2.52663000E-03	-6.17084000E-02	 1.32978000E-02
					 1.02154000E-04	-4.80806000E-02	-5.61800000E-04
					-1.10385000E-03	-6.29551000E-02	 5.99987000E-03
					-2.19501000E-03	-4.84651000E-02	 1.27784000E-02
					 2.81971000E-03	-6.27392000E-02	-1.46440000E-02
					 2.82697000E-03	-6.13356000E-02	-1.47213000E-02
					 2.34768000E-03	-4.79958000E-02	-1.39606000E-02
					 1.50566000E-03	-6.28323000E-02	-7.47802000E-03
					 3.82132000E-04	-8.35070000E-02	-1.13939000E-03
					-3.56302000E-03	-8.36552000E-02	 1.08901000E-02