# vtk DataFile Version 3.0

ASCII
DATASET UNSTRUCTURED_GRID

POINTS 522 double
	 1.00000000E+00	 1.00000000E+00	-5.96046000E-08
	 1.00000000E+00	 5.00000000E-01	-5.96046000E-08
	 1.00000000E+00	 5.00000000E-01	 1.00000000E+00
	 1.00000000E+00	 1.00000000E+00	 1.00000000E+00
	 5.00000000E-01	 1.00000000E+00	-5.96046000E-08
	 5.00000000E-01	 5.00000000E-01	-5.96046000E-08
	 5.00000000E-01	 5.00000000E-01	 1.00000000E+00
	 5.00000000E-01	 1.00000000E+00	 1.00000000E+00
	 1.00000000E+00	 7.50000000E-01	-5.96046000E-08
	 1.00000000E+00	 5.00000000E-01	 5.00000000E-01
	 1.00000000E+00	 7.50000000E-01	 1.00000000E+00
	 1.00000000E+00	 1.00000000E+00	 5.00000000E-01
	 7.50000000E-01	 1.00000000E+00	-5.96046000E-08
	 7.50000000E-01	 5.00000000E-01	-5.96046000E-08
	 7.50000000E-01	 5.00000000E-01	 1.00000000E+00
	 7.50000000E-01	 1.00000000E+00	 1.00000000E+00
	 5.00000000E-01	 7.50000000E-01	-5.96046000E-08
	 5.00000000E-01	 5.00000000E-01	 5.00000000E-01
	 5.00000000E-01	 7.50000000E-01	 1.00000000E+00
	 5.00000000E-01	 1.00000000E+00	 5.00000000E-01
	 1.00000000E+00	-1.49012000E-08	-5.96046000E-08
	 1.00000000E+00	-1.49012000E-08	 1.00000000E+00
	 5.00000000E-01	-1.49012000E-08	-5.96046000E-08
	 5.00000000E-01	-1.49012000E-08	 1.00000000E+00
	 1.00000000E+00	 2.50000000E-01	-5.96046000E-08
	 1.00000000E+00	-1.49012000E-08	 5.00000000E-01
	 1.00000000E+00	 2.50000000E-01	 1.00000000E+00
	 7.50000000E-01	-1.49012000E-08	-5.96046000E-08
	 7.50000000E-01	-1.49012000E-08	 1.00000000E+00
	 5.00000000E-01	 2.50000000E-01	-5.96046000E-08
	 5.00000000E-01	-1.49012000E-08	 5.00000000E-01
	 5.00000000E-01	 2.50000000E-01	 1.00000000E+00
	-7.45058000E-09	 1.00000000E+00	-5.96046000E-08
	-7.45058000E-09	 5.00000000E-01	-5.96046000E-08
	-7.45058000E-09	 5.00000000E-01	 1.00000000E+00
	-7.45058000E-09	 1.00000000E+00	 1.00000000E+00
	 2.50000000E-01	 1.00000000E+00	-5.96046000E-08
	 2.50000000E-01	 5.00000000E-01	-5.96046000E-08
	 2.50000000E-01	 5.00000000E-01	 1.00000000E+00
	 2.50000000E-01	 1.00000000E+00	 1.00000000E+00
	-7.45058000E-09	 7.50000000E-01	-5.96046000E-08
	-7.45058000E-09	 5.00000000E-01	 5.00000000E-01
	-7.45058000E-09	 7.50000000E-01	 1.00000000E+00
	-7.45058000E-09	 1.00000000E+00	 5.00000000E-01
	-7.45058000E-09	-1.49012000E-08	-5.96046000E-08
	-7.45058000E-09	-1.49012000E-08	 1.00000000E+00
	 2.50000000E-01	-1.49012000E-08	-5.96046000E-08
	 2.50000000E-01	-1.49012000E-08	 1.00000000E+00
	-7.45058000E-09	 2.50000000E-01	-5.96046000E-08
	-7.45058000E-09	-1.49012000E-08	 5.00000000E-01
	-7.45058000E-09	 2.50000000E-01	 1.00000000E+00
	 1.00000000E+00	 5.00000000E-01	 2.00000000E+00
	 1.00000000E+00	 1.00000000E+00	 2.00000000E+00
	 5.00000000E-01	 5.00000000E-01	 2.00000000E+00
	 5.00000000E-01	 1.00000000E+00	 2.00000000E+00
	 1.00000000E+00	 5.00000000E-01	 1.50000000E+00
	 1.00000000E+00	 7.50000000E-01	 2.00000000E+00
	 1.00000000E+00	 1.00000000E+00	 1.50000000E+00
	 7.50000000E-01	 5.00000000E-01	 2.00000000E+00
	 7.50000000E-01	 1.00000000E+00	 2.00000000E+00
	 5.00000000E-01	 5.00000000E-01	 1.50000000E+00
	 5.00000000E-01	 7.50000000E-01	 2.00000000E+00
	 5.00000000E-01	 1.00000000E+00	 1.50000000E+00
	 1.00000000E+00	-1.49012000E-08	 2.00000000E+00
	 5.00000000E-01	-1.49012000E-08	 2.00000000E+00
	 1.00000000E+00	-1.49012000E-08	 1.50000000E+00
	 1.00000000E+00	 2.50000000E-01	 2.00000000E+00
	 7.50000000E-01	-1.49012000E-08	 2.00000000E+00
	 5.00000000E-01	-1.49012000E-08	 1.50000000E+00
	 5.00000000E-01	 2.50000000E-01	 2.00000000E+00
	-7.45058000E-09	 5.00000000E-01	 2.00000000E+00
	-7.45058000E-09	 1.00000000E+00	 2.00000000E+00
	 2.50000000E-01	 5.00000000E-01	 2.00000000E+00
	 2.50000000E-01	 1.00000000E+00	 2.00000000E+00
	-7.45058000E-09	 5.00000000E-01	 1.50000000E+00
	-7.45058000E-09	 7.50000000E-01	 2.00000000E+00
	-7.45058000E-09	 1.00000000E+00	 1.50000000E+00
	-7.45058000E-09	-1.49012000E-08	 2.00000000E+00
	 2.50000000E-01	-1.49012000E-08	 2.00000000E+00
	-7.45058000E-09	-1.49012000E-08	 1.50000000E+00
	-7.45058000E-09	 2.50000000E-01	 2.00000000E+00
	 1.00000000E+00	 5.00000000E-01	 3.00000000E+00
	 1.00000000E+00	 1.00000000E+00	 3.00000000E+00
	 5.00000000E-01	 5.00000000E-01	 3.00000000E+00
	 5.00000000E-01	 1.00000000E+00	 3.00000000E+00
	 1.00000000E+00	 5.00000000E-01	 2.50000000E+00
	 1.00000000E+00	 7.50000000E-01	 3.00000000E+00
	 1.00000000E+00	 1.00000000E+00	 2.50000000E+00
	 7.50000000E-01	 5.00000000E-01	 3.00000000E+00
	 7.50000000E-01	 1.00000000E+00	 3.00000000E+00
	 5.00000000E-01	 5.00000000E-01	 2.50000000E+00
	 5.00000000E-01	 7.50000000E-01	 3.00000000E+00
	 5.00000000E-01	 1.00000000E+00	 2.50000000E+00
	 1.00000000E+00	-1.49012000E-08	 3.00000000E+00
	 5.00000000E-01	-1.49012000E-08	 3.00000000E+00
	 1.00000000E+00	-1.49012000E-08	 2.50000000E+00
	 1.00000000E+00	 2.50000000E-01	 3.00000000E+00
	 7.50000000E-01	-1.49012000E-08	 3.00000000E+00
	 5.00000000E-01	-1.49012000E-08	 2.50000000E+00
	 5.00000000E-01	 2.50000000E-01	 3.00000000E+00
	-7.45058000E-09	 5.00000000E-01	 3.00000000E+00
	-7.45058000E-09	 1.00000000E+00	 3.00000000E+00
	 2.50000000E-01	 5.00000000E-01	 3.00000000E+00
	 2.50000000E-01	 1.00000000E+00	 3.00000000E+00
	-7.45058000E-09	 5.00000000E-01	 2.50000000E+00
	-7.45058000E-09	 7.50000000E-01	 3.00000000E+00
	-7.45058000E-09	 1.00000000E+00	 2.50000000E+00
	-7.45058000E-09	-1.49012000E-08	 3.00000000E+00
	 2.50000000E-01	-1.49012000E-08	 3.00000000E+00
	-7.45058000E-09	-1.49012000E-08	 2.50000000E+00
	-7.45058000E-09	 2.50000000E-01	 3.00000000E+00
	 1.00000000E+00	 5.00000000E-01	 4.00000000E+00
	 1.00000000E+00	 1.00000000E+00	 4.00000000E+00
	 5.00000000E-01	 5.00000000E-01	 4.00000000E+00
	 5.00000000E-01	 1.00000000E+00	 4.00000000E+00
	 1.00000000E+00	 5.00000000E-01	 3.50000000E+00
	 1.00000000E+00	 7.50000000E-01	 4.00000000E+00
	 1.00000000E+00	 1.00000000E+00	 3.50000000E+00
	 7.50000000E-01	 5.00000000E-01	 4.00000000E+00
	 7.50000000E-01	 1.00000000E+00	 4.00000000E+00
	 5.00000000E-01	 5.00000000E-01	 3.50000000E+00
	 5.00000000E-01	 7.50000000E-01	 4.00000000E+00
	 5.00000000E-01	 1.00000000E+00	 3.50000000E+00
	 1.00000000E+00	-1.49012000E-08	 4.00000000E+00
	 5.00000000E-01	-1.49012000E-08	 4.00000000E+00
	 1.00000000E+00	-1.49012000E-08	 3.50000000E+00
	 1.00000000E+00	 2.50000000E-01	 4.00000000E+00
	 7.50000000E-01	-1.49012000E-08	 4.00000000E+00
	 5.00000000E-01	-1.49012000E-08	 3.50000000E+00
	 5.00000000E-01	 2.50000000E-01	 4.00000000E+00
	-7.45058000E-09	 5.00000000E-01	 4.00000000E+00
	-7.45058000E-09	 1.00000000E+00	 4.00000000E+00
	 2.50000000E-01	 5.00000000E-01	 4.00000000E+00
	 2.50000000E-01	 1.00000000E+00	 4.00000000E+00
	-7.45058000E-09	 5.00000000E-01	 3.50000000E+00
	-7.45058000E-09	 7.50000000E-01	 4.00000000E+00
	-7.45058000E-09	 1.00000000E+00	 3.50000000E+00
	-7.45058000E-09	-1.49012000E-08	 4.00000000E+00
	 2.50000000E-01	-1.49012000E-08	 4.00000000E+00
	-7.45058000E-09	-1.49012000E-08	 3.50000000E+00
	-7.45058000E-09	 2.50000000E-01	 4.00000000E+00
	 1.00000000E+00	 5.00000000E-01	 5.00000000E+00
	 1.00000000E+00	 1.00000000E+00	 5.00000000E+00
	 5.00000000E-01	 5.00000000E-01	 5.00000000E+00
	 5.00000000E-01	 1.00000000E+00	 5.00000000E+00
	 1.00000000E+00	 5.00000000E-01	 4.50000000E+00
	 1.00000000E+00	 7.50000000E-01	 5.00000000E+00
	 1.00000000E+00	 1.00000000E+00	 4.50000000E+00
	 7.50000000E-01	 5.00000000E-01	 5.00000000E+00
	 7.50000000E-01	 1.00000000E+00	 5.00000000E+00
	 5.00000000E-01	 5.00000000E-01	 4.50000000E+00
	 5.00000000E-01	 7.50000000E-01	 5.00000000E+00
	 5.00000000E-01	 1.00000000E+00	 4.50000000E+00
	 1.00000000E+00	-1.49012000E-08	 5.00000000E+00
	 5.00000000E-01	-1.49012000E-08	 5.00000000E+00
	 1.00000000E+00	-1.49012000E-08	 4.50000000E+00
	 1.00000000E+00	 2.50000000E-01	 5.00000000E+00
	 7.50000000E-01	-1.49012000E-08	 5.00000000E+00
	 5.00000000E-01	-1.49012000E-08	 4.50000000E+00
	 5.00000000E-01	 2.50000000E-01	 5.00000000E+00
	-7.45058000E-09	 5.00000000E-01	 5.00000000E+00
	-7.45058000E-09	 1.00000000E+00	 5.00000000E+00
	 2.50000000E-01	 5.00000000E-01	 5.00000000E+00
	 2.50000000E-01	 1.00000000E+00	 5.00000000E+00
	-7.45058000E-09	 5.00000000E-01	 4.50000000E+00
	-7.45058000E-09	 7.50000000E-01	 5.00000000E+00
	-7.45058000E-09	 1.00000000E+00	 4.50000000E+00
	-7.45058000E-09	-1.49012000E-08	 5.00000000E+00
	 2.50000000E-01	-1.49012000E-08	 5.00000000E+00
	-7.45058000E-09	-1.49012000E-08	 4.50000000E+00
	-7.45058000E-09	 2.50000000E-01	 5.00000000E+00
	 1.00000000E+00	 5.00000000E-01	 6.00000000E+00
	 1.00000000E+00	 1.00000000E+00	 6.00000000E+00
	 5.00000000E-01	 5.00000000E-01	 6.00000000E+00
	 5.00000000E-01	 1.00000000E+00	 6.00000000E+00
	 1.00000000E+00	 5.00000000E-01	 5.50000000E+00
	 1.00000000E+00	 7.50000000E-01	 6.00000000E+00
	 1.00000000E+00	 1.00000000E+00	 5.50000000E+00
	 7.50000000E-01	 5.00000000E-01	 6.00000000E+00
	 7.50000000E-01	 1.00000000E+00	 6.00000000E+00
	 5.00000000E-01	 5.00000000E-01	 5.50000000E+00
	 5.00000000E-01	 7.50000000E-01	 6.00000000E+00
	 5.00000000E-01	 1.00000000E+00	 5.50000000E+00
	 1.00000000E+00	-1.49012000E-08	 6.00000000E+00
	 5.00000000E-01	-1.49012000E-08	 6.00000000E+00
	 1.00000000E+00	-1.49012000E-08	 5.50000000E+00
	 1.00000000E+00	 2.50000000E-01	 6.00000000E+00
	 7.50000000E-01	-1.49012000E-08	 6.00000000E+00
	 5.00000000E-01	-1.49012000E-08	 5.50000000E+00
	 5.00000000E-01	 2.50000000E-01	 6.00000000E+00
	-7.45058000E-09	 5.00000000E-01	 6.00000000E+00
	-7.45058000E-09	 1.00000000E+00	 6.00000000E+00
	 2.50000000E-01	 5.00000000E-01	 6.00000000E+00
	 2.50000000E-01	 1.00000000E+00	 6.00000000E+00
	-7.45058000E-09	 5.00000000E-01	 5.50000000E+00
	-7.45058000E-09	 7.50000000E-01	 6.00000000E+00
	-7.45058000E-09	 1.00000000E+00	 5.50000000E+00
	-7.45058000E-09	-1.49012000E-08	 6.00000000E+00
	 2.50000000E-01	-1.49012000E-08	 6.00000000E+00
	-7.45058000E-09	-1.49012000E-08	 5.50000000E+00
	-7.45058000E-09	 2.50000000E-01	 6.00000000E+00
	 1.00000000E+00	 5.00000000E-01	 7.00000000E+00
[...]
POINT_DATA 522
FIELD U 1
	U 3 522 double
		 0.00000000E+00	 0.00000000E+00	 0.00000000E+00
		 0.00000000E+00	 0.00000000E+00	 0.00000000E+00
		-1.37127000E-05	-1.21942000E-03	-7.34794000E-06
		 6.32064000E-04	-1.43266000E-03	 1.75758000E-03
		 0.00000000E+00	 0.00000000E+00	 0.00000000E+00
		 0.00000000E+00	 0.00000000E+00	 0.00000000E+00
		-1.69567000E-05	-3.36938000E-04	-1.59817000E-05
		 1.07073000E-03	-5.64374000E-04	 1.72922000E-03
		 0.00000000E+00	 0.00000000E+00	 0.00000000E+00
		-3.57409000E-06	-1.46100000E-04	 1.02007000E-06
		 3.09485000E-04	-1.26403000E-03	 8.85972000E-04
		 3.32065000E-04	-2.92358000E-04	 6.01712000E-04
		 0.00000000E+00	 0.00000000E+00	 0.00000000E+00
		 0.00000000E+00	 0.00000000E+00	 0.00000000E+00
		-1.54488000E-05	-8.37924000E-04	-1.21540000E-05
		 8.52753000E-04	-1.05922000E-03	 1.79814000E-03
		 0.00000000E+00	 0.00000000E+00	 0.00000000E+00
		-4.69328000E-06	 3.34950000E-04	-4.96884000E-06
		 5.26699000E-04	-3.87428000E-04	 9.27477000E-04
		 6.05674000E-04	 1.79976000E-04	 5.46379000E-04
		 0.00000000E+00	 0.00000000E+00	 0.00000000E+00
		-6.63180000E-04	-1.43403000E-03	-1.77447000E-03
		 0.00000000E+00	 0.00000000E+00	 0.00000000E+00
		-1.10855000E-03	-5.61706000E-04	-1.76207000E-03
		 0.00000000E+00	 0.00000000E+00	 0.00000000E+00
		-3.38424000E-04	-2.91711000E-04	-6.00688000E-04
		-3.38295000E-04	-1.26495000E-03	-9.00430000E-04
		 0.00000000E+00	 0.00000000E+00	 0.00000000E+00
		-8.87031000E-04	-1.05827000E-03	-1.82532000E-03
		 0.00000000E+00	 0.00000000E+00	 0.00000000E+00
		-6.15282000E-04	 1.78099000E-04	-5.56902000E-04
		-5.61900000E-04	-3.85791000E-04	-9.59731000E-04
		 0.00000000E+00	 0.00000000E+00	 0.00000000E+00
		 0.00000000E+00	 0.00000000E+00	 0.00000000E+00
		-1.90050000E-05	 9.60977000E-04	-2.46921000E-05
		 1.50950000E-03	 7.40548000E-04	 1.74209000E-03
		 0.00000000E+00	 0.00000000E+00	 0.00000000E+00
		 0.00000000E+00	 0.00000000E+00	 0.00000000E+00
		-1.79156000E-05	 2.51853000E-04	-1.95561000E-05
		 1.28804000E-03	 2.92394000E-05	 1.63477000E-03
		 0.00000000E+00	 0.00000000E+00	 0.00000000E+00
		-7.15264000E-06	 1.07517000E-03	-1.22906000E-05
		 7.46620000E-04	 9.11527000E-04	 1.02689000E-03
		 8.45938000E-04	 8.98212000E-04	 5.88428000E-04
		 0.00000000E+00	 0.00000000E+00	 0.00000000E+00
		-1.55030000E-03	 7.49998000E-04	-1.79102000E-03
		 0.00000000E+00	 0.00000000E+00	 0.00000000E+00
		-1.32804000E-03	 3.46256000E-05	-1.67253000E-03
		 0.00000000E+00	 0.00000000E+00	 0.00000000E+00
		-8.59925000E-04	 8.94968000E-04	-6.13635000E-04
		-7.85124000E-04	 9.17810000E-04	-1.07724000E-03
		-4.03821000E-05	-8.40355000E-03	-7.85694000E-05
		 1.02204000E-03	-8.65920000E-03	 5.05163000E-03
		-4.46199000E-05	-7.09285000E-03	-6.93290000E-05
		 1.50015000E-03	-7.35689000E-03	 5.07500000E-03
		-2.85498000E-05	-3.87115000E-03	-3.46130000E-05
		 4.94265000E-04	-8.46923000E-03	 2.43010000E-03
		 8.53270000E-04	-4.11403000E-03	 3.38859000E-03
		-4.31006000E-05	-7.80968000E-03	-7.52062000E-05
		 1.26051000E-03	-8.07090000E-03	 5.08320000E-03
		-3.34346000E-05	-2.73424000E-03	-3.67368000E-05
		 7.29505000E-04	-7.16203000E-03	 2.46495000E-03
		 1.34853000E-03	-2.97811000E-03	 3.38423000E-03
		-1.10953000E-03	-8.61377000E-03	-5.21270000E-03
		-1.59517000E-03	-7.30094000E-03	-5.21884000E-03
		-9.17922000E-04	-4.10196000E-03	-3.45958000E-03
		-5.76907000E-04	-8.44710000E-03	-2.58855000E-03
		-1.35253000E-03	-8.01952000E-03	-5.23743000E-03
		-1.42211000E-03	-2.95555000E-03	-3.45878000E-03
		-8.20230000E-04	-7.13398000E-03	-2.60476000E-03
		-4.44124000E-05	-5.30885000E-03	-5.41914000E-05
		 1.99333000E-03	-5.56517000E-03	 5.07718000E-03
		-4.51306000E-05	-6.26049000E-03	-6.21571000E-05
		 1.74711000E-03	-6.52698000E-03	 5.08024000E-03
		-3.50505000E-05	-1.09968000E-03	-3.58166000E-05
		 9.69155000E-04	-5.37440000E-03	 2.47238000E-03
		 1.87683000E-03	-1.32459000E-03	 3.38986000E-03
		-2.08682000E-03	-5.49792000E-03	-5.19138000E-03
		-1.84313000E-03	-6.46557000E-03	-5.21115000E-03
		-1.95314000E-03	-1.28906000E-03	-3.46152000E-03
		-1.05879000E-03	-5.34014000E-03	-2.58131000E-03
		-4.82640000E-05	-2.22682000E-02	-2.04750000E-04
		 1.49897000E-03	-2.24711000E-02	 7.44138000E-03
		-4.82983000E-05	-2.05801000E-02	-1.81110000E-04
		 1.78782000E-03	-2.07834000E-02	 7.48120000E-03
		-4.43646000E-05	-1.46982000E-02	-1.35397000E-04
		 7.24736000E-04	-2.23346000E-02	 3.55499000E-03
		 1.24540000E-03	-1.49268000E-02	 6.39824000E-03
		-4.86092000E-05	-2.14582000E-02	-1.93549000E-04
		 1.64290000E-03	-2.16620000E-02	 7.49782000E-03
		-4.64005000E-05	-1.32162000E-02	-1.17294000E-04
		 8.69598000E-04	-2.06479000E-02	 3.62315000E-03
		 1.62635000E-03	-1.34509000E-02	 6.43936000E-03
		-1.59692000E-03	-2.23540000E-02	-7.85626000E-03
		-1.88486000E-03	-2.06636000E-02	-7.84786000E-03
		-1.33599000E-03	-1.48427000E-02	-6.67486000E-03
		-8.21945000E-04	-2.22778000E-02	-3.96550000E-03
		-1.74083000E-03	-2.15424000E-02	-7.89056000E-03
		-1.72043000E-03	-1.33629000E-02	-6.68159000E-03
		-9.66351000E-04	-2.05894000E-02	-3.98653000E-03
		-4.59746000E-05	-1.85977000E-02	-1.52163000E-04
		 2.07320000E-03	-1.88094000E-02	 7.49708000E-03
		-4.74286000E-05	-1.96252000E-02	-1.67433000E-04
		 1.92987000E-03	-1.98285000E-02	 7.46707000E-03
		-4.55559000E-05	-1.13527000E-02	-9.30203000E-05
		 1.01720000E-03	-1.86695000E-02	 3.66867000E-03
		 2.00222000E-03	-1.15937000E-02	 6.44130000E-03
		-2.16518000E-03	-1.86882000E-02	-7.80512000E-03
		-2.02494000E-03	-1.97085000E-02	-7.80522000E-03
		-2.09356000E-03	-1.15028000E-02	-6.63669000E-03
		-1.10920000E-03	-1.86103000E-02	-3.97434000E-03
		-4.54844000E-05	-3.99672000E-02	-3.87050000E-04
		 2.02570000E-03	-4.01669000E-02	 8.90657000E-03
		-4.30113000E-05	-3.77773000E-02	-3.38894000E-04
		 2.25713000E-03	-3.79856000E-02	 8.95801000E-03
		-5.06468000E-05	-3.07344000E-02	-2.89061000E-04
		 9.91416000E-04	-4.00375000E-02	 4.22180000E-03
		 1.75725000E-03	-3.09343000E-02	 8.22741000E-03
		-4.42850000E-05	-3.89003000E-02	-3.62675000E-04
		 2.14122000E-03	-3.91054000E-02	 8.96762000E-03
		-4.94496000E-05	-2.88041000E-02	-2.55628000E-04
		 1.10828000E-03	-3.78535000E-02	 4.30735000E-03
		 2.00411000E-03	-2.90077000E-02	 8.26909000E-03
		-2.12920000E-03	-3.99966000E-02	-9.68311000E-03
		-2.35293000E-03	-3.77985000E-02	-9.63747000E-03
		-1.86556000E-03	-3.07921000E-02	-8.80949000E-03
		-1.08579000E-03	-3.99548000E-02	-4.99577000E-03
		-2.24194000E-03	-3.89241000E-02	-9.69607000E-03
		-2.10841000E-03	-2.88554000E-02	-8.78186000E-03
		-1.19745000E-03	-3.77590000E-02	-4.98538000E-03
		-3.85871000E-05	-3.53598000E-02	-2.88327000E-04
		 2.49058000E-03	-3.55742000E-02	 9.00545000E-03
		-4.12522000E-05	-3.65970000E-02	-3.14597000E-04
		 2.37332000E-03	-3.68078000E-02	 8.94500000E-03
		-4.57803000E-05	-2.66256000E-02	-2.17946000E-04
		 1.22679000E-03	-3.54400000E-02	 4.39211000E-03
		 2.25051000E-03	-2.68377000E-02	 8.30181000E-03
		-2.57298000E-03	-3.53771000E-02	-9.58307000E-03
		-2.46312000E-03	-3.66167000E-02	-9.57509000E-03
		-2.34562000E-03	-2.66783000E-02	-8.73702000E-03
		-1.30531000E-03	-3.53387000E-02	-4.96877000E-03
		-2.16053000E-05	-6.06729000E-02	-6.18798000E-04
		 2.55873000E-03	-6.08878000E-02	 1.01417000E-02
		-1.98538000E-05	-5.79827000E-02	-5.48329000E-04
		 2.76368000E-03	-5.82104000E-02	 1.02189000E-02
		-3.38348000E-05	-4.99327000E-02	-4.96159000E-04
		 1.27146000E-03	-6.07526000E-02	 4.70381000E-03
		 2.28406000E-03	-5.01389000E-02	 9.55520000E-03
		-1.94044000E-05	-5.93527000E-02	-5.84058000E-04
		 2.66150000E-03	-5.95775000E-02	 1.02215000E-02
		-3.18836000E-05	-4.74955000E-02	-4.34843000E-04
		 1.37266000E-03	-5.80708000E-02	 4.81815000E-03
		 2.50855000E-03	-4.77136000E-02	 9.61876000E-03
		-2.61891000E-03	-6.06519000E-02	-1.13799000E-02
		-2.81288000E-03	-5.79549000E-02	-1.13172000E-02
		-2.36842000E-03	-4.99383000E-02	-1.05495000E-02
		-1.31940000E-03	-6.06381000E-02	-5.94161000E-03
		-2.71563000E-03	-5.93272000E-02	-1.13904000E-02
		-2.58308000E-03	-4.74927000E-02	-1.04909000E-02
		-1.41578000E-03	-5.79418000E-02	-5.91516000E-03
		-1.83992000E-05	-5.50993000E-02	-4.75550000E-04
		 2.96828000E-03	-5.53268000E-02	 1.02832000E-02
		-2.02724000E-05	-5.65667000E-02	-5.12065000E-04
		 2.86520000E-03	-5.67945000E-02	 1.02179000E-02
		-2.90003000E-05	-4.48428000E-02	-3.72693000E-04
		 1.47454000E-03	-5.51884000E-02	 4.92026000E-03
		 2.73492000E-03	-4.50632000E-02	 9.67761000E-03
		-3.00479000E-03	-5.50687000E-02	-1.12369000E-02
		-2.90938000E-03	-5.65376000E-02	-1.12447000E-02
		-2.79574000E-03	-4.48355000E-02	-1.04258000E-02
		-1.51149000E-03	-5.50569000E-02	-5.87174000E-03
		-1.19129000E-05	-8.42279000E-02	-8.94835000E-04
		 3.25604000E-03	-8.44250000E-02	 1.08374000E-02
		-3.02924000E-06	-8.09166000E-02	-8.13080000E-04
		 3.35086000E-03	-8.11132000E-02	 1.09287000E-02
		-1.41170000E-05	-7.21853000E-02	-7.53366000E-04
		 1.62131000E-03	-8.43154000E-02	 4.90271000E-03
		 2.89672000E-03	-7.23934000E-02	 1.05824000E-02
		-6.80869000E-06	-8.25835000E-02	-8.54807000E-04
		 3.30422000E-03	-8.27807000E-02	 1.09314000E-02
		-1.02020000E-05	-6.91943000E-02	-6.76564000E-04
		 1.67368000E-03	-8.10054000E-02	 5.03702000E-03
		 3.05222000E-03	-6.94109000E-02	 1.06702000E-02
		-3.28431000E-03	-8.41238000E-02	-1.26376000E-02
		-3.36001000E-03	-8.08068000E-02	-1.25660000E-02
		-2.93609000E-03	-7.21188000E-02	-1.20912000E-02
		-1.64712000E-03	-8.41664000E-02	-6.69649000E-03
		-3.32165000E-03	-8.24743000E-02	-1.26505000E-02
		-3.07888000E-03	-6.91232000E-02	-1.20268000E-02
		-1.68109000E-03	-8.08513000E-02	-6.66656000E-03
		 5.26240000E-06	-7.75152000E-02	-7.21953000E-04
		 3.44863000E-03	-7.77122000E-02	 1.10079000E-02
		 6.46040000E-07	-7.92260000E-02	-7.68596000E-04
		 3.39913000E-03	-7.94219000E-02	 1.09315000E-02
		-6.97510000E-06	-6.60569000E-02	-5.93879000E-04
		 1.72710000E-03	-7.76048000E-02	 5.15907000E-03
		 3.20523000E-03	-6.62740000E-02	 1.07380000E-02
		-3.43888000E-03	-7.74053000E-02	-1.24638000E-02
		-3.40000000E-03	-7.91172000E-02	-1.24801000E-02
		-3.21892000E-03	-6.59856000E-02	-1.19307000E-02
		-1.71660000E-03	-7.74483000E-02	-6.60711000E-03
		-1.35060000E-05	-1.08739000E-01	-1.20254000E-03
		 3.75141000E-03	-1.08913000E-01	 1.08883000E-02
		 6.83293000E-06	-1.04957000E-01	-1.10713000E-03
		 3.80552000E-03	-1.05129000E-01	 1.09968000E-02
		-1.23083000E-05	-9.64584000E-02	-1.04244000E-03
		 1.86637000E-03	-1.08820000E-01	 4.81394000E-03
		 3.54645000E-03	-9.66466000E-02	 1.09046000E-02
		-4.76731000E-06	-1.06855000E-01	-1.15530000E-03
		 3.77592000E-03	-1.07026000E-01	 1.09633000E-02
		 3.41010000E-06	-9.28765000E-02	-9.56306000E-04
		 1.90454000E-03	-1.05036000E-01	 4.94101000E-03
		 3.60823000E-03	-9.30581000E-02	 1.09973000E-02
		-3.78195000E-03	-1.08616000E-01	-1.32937000E-02
		-3.79539000E-03	-1.04826000E-01	-1.32092000E-02
		-3.56998000E-03	-9.63423000E-02	-1.30040000E-02
		-1.89431000E-03	-1.08678000E-01	-7.21652000E-03
		-3.79004000E-03	-1.06725000E-01	-1.32750000E-02
		-3.60325000E-03	-9.27546000E-02	-1.29242000E-02
		-1.89228000E-03	-1.04890000E-01	-7.15345000E-03
		 2.80877000E-05	-1.01133000E-01	-1.01040000E-03
		 3.87112000E-03	-1.01303000E-01	 1.11017000E-02
		 1.87058000E-05	-1.03047000E-01	-1.05916000E-03
		 3.83975000E-03	-1.03219000E-01	 1.10273000E-02
		 1.90395000E-05	-8.92396000E-02	-8.60106000E-04
		 1.94821000E-03	-1.01211000E-01	 5.06724000E-03
		 3.67874000E-03	-8.94214000E-02	 1.10903000E-02
		-3.81785000E-03	-1.00997000E-01	-1.31184000E-02
		-3.80481000E-03	-1.02916000E-01	-1.31429000E-02
		-3.64461000E-03	-8.91143000E-02	-1.28249000E-02
		-1.89323000E-03	-1.01062000E-01	-7.08472000E-03
		 3.31146000E-05	-1.33399000E-01	-1.53887000E-03
		 4.02758000E-03	-1.33580000E-01	 1.06911000E-02
		 2.73145000E-05	-1.29436000E-01	-1.40873000E-03
		 4.02723000E-03	-1.29638000E-01	 1.08656000E-02
		-2.84040000E-06	-1.21090000E-01	-1.37500000E-03
		 2.04206000E-03	-1.33488000E-01	 4.55458000E-03
		 3.90362000E-03	-1.21247000E-01	 1.08167000E-02
		 3.29616000E-05	-1.31411000E-01	-1.46901000E-03
		 4.02657000E-03	-1.31610000E-01	 1.07869000E-02
		 1.33272000E-05	-1.17166000E-01	-1.26001000E-03
		 2.03655000E-03	-1.29540000E-01	 4.71576000E-03
		 3.94561000E-03	-1.17339000E-01	 1.09632000E-02
		-4.00382000E-03	-1.33239000E-01	-1.37230000E-02
		-3.98763000E-03	-1.29250000E-01	-1.36369000E-02
		-3.93506000E-03	-1.20948000E-01	-1.35381000E-02
		-1.98743000E-03	-1.33318000E-01	-7.61779000E-03
		-3.99403000E-03	-1.31237000E-01	-1.36815000E-02
		-3.92939000E-03	-1.17012000E-01	-1.34508000E-02
		-1.98708000E-03	-1.29339000E-01	-7.52041000E-03
		 1.88467000E-05	-1.25456000E-01	-1.31499000E-03
		 4.05306000E-03	-1.25653000E-01	 1.09900000E-02
		 2.10642000E-05	-1.27455000E-01	-1.35846000E-03
		 4.04062000E-03	-1.27657000E-01	 1.09330000E-02
		 2.86465000E-05	-1.13215000E-01	-1.16595000E-03
		 2.03699000E-03	-1.25557000E-01	 4.82991000E-03
		 4.00516000E-03	-1.13387000E-01	 1.10806000E-02
		-3.99880000E-03	-1.25272000E-01	-1.35712000E-02
		-3.99507000E-03	-1.27265000E-01	-1.36022000E-02
		-3.93918000E-03	-1.13062000E-01	-1.33757000E-02
		-1.99535000E-03	-1.25360000E-01	-7.44587000E-03
		 0.00000000E+00	 0.00000000E+00	 0.00000000E+00
		 0.00000000E+00	 0.00000000E+00	 0.00000000E+00
		 6.91686000E-05	-8.66598000E-03	 3.11068000E-05
		-1.91947000E-03	-9.08367000E-03	 7.73091000E-03
		 0.00000000E+00	 0.00000000E+00	 0.00000000E+00
		 0.00000000E+00	 0.00000000E+00	 0.00000000E+00
		 9.07772000E-05	-1.02490000E-02	 6.24015000E-05
		-1.09009000E-03	-1.07066000E-02	 7.88607000E-03
		 0.00000000E+00	 0.00000000E+00	 0.00000000E+00
		 1.92317000E-05	-1.99037000E-03	 2.35279000E-05
		-9.25747000E-04	-8.71671000E-03	 3.77726000E-03
		-1.79386000E-03	-2.68609000E-03	 4.21052000E-03
		 0.00000000E+00	 0.00000000E+00	 0.00000000E+00
		 0.00000000E+00	 0.00000000E+00	 0.00000000E+00
		 7.95855000E-05	-9.60708000E-03	 4.64977000E-05
		-1.49818000E-03	-1.00436000E-02	 7.74504000E-03
		 0.00000000E+00	 0.00000000E+00	 0.00000000E+00
		 3.15279000E-05	-3.15128000E-03	 3.76151000E-05
		-4.99488000E-04	-1.03123000E-02	 3.79586000E-03
		-6.23439000E-04	-3.85031000E-03	 4.14233000E-03
		 0.00000000E+00	 0.00000000E+00	 0.00000000E+00
		 2.04722000E-03	-8.91474000E-03	-7.68887000E-03
		 0.00000000E+00	 0.00000000E+00	 0.00000000E+00
		 1.26849000E-03	-1.05231000E-02	-7.78481000E-03
		 0.00000000E+00	 0.00000000E+00	 0.00000000E+00
		 1.82437000E-03	-2.60051000E-03	-4.17093000E-03
		 1.06183000E-03	-8.63391000E-03	-3.72166000E-03
		 0.00000000E+00	 0.00000000E+00	 0.00000000E+00
		 1.65137000E-03	-9.86627000E-03	-7.67409000E-03
		 0.00000000E+00	 0.00000000E+00	 0.00000000E+00
		 6.82930000E-04	-3.75643000E-03	-4.06986000E-03
		 6.79636000E-04	-1.02239000E-02	-3.67986000E-03
		 0.00000000E+00	 0.00000000E+00	 0.00000000E+00
		 0.00000000E+00	 0.00000000E+00	 0.00000000E+00
		 1.13987000E-04	-1.10263000E-02	 1.08638000E-04
		-2.58909000E-04	-1.14527000E-02	 7.80829000E-03
		 0.00000000E+00	 0.00000000E+00	 0.00000000E+00
		 0.00000000E+00	 0.00000000E+00	 0.00000000E+00
		 1.01738000E-04	-1.07875000E-02	 7.98860000E-05
		-6.81993000E-04	-1.12250000E-02	 7.95302000E-03
		 0.00000000E+00	 0.00000000E+00	 0.00000000E+00
		 5.05718000E-05	-3.29719000E-03	 7.14664000E-05
		-6.96448000E-05	-1.10794000E-02	 3.67871000E-03
		 5.87248000E-04	-3.97048000E-03	 4.26094000E-03
		 0.00000000E+00	 0.00000000E+00	 0.00000000E+00
		 4.85431000E-04	-1.12656000E-02	-7.61130000E-03
		 0.00000000E+00	 0.00000000E+00	 0.00000000E+00
		 8.81440000E-04	-1.10414000E-02	-7.81590000E-03
		 0.00000000E+00	 0.00000000E+00	 0.00000000E+00
		-4.88904000E-04	-3.86120000E-03	-4.12062000E-03
		 2.98903000E-04	-1.09924000E-02	-3.46822000E-03
		 2.22131000E-04	-2.94854000E-02	-6.52276000E-05
		-2.03450000E-03	-2.98715000E-02	 1.17873000E-02
		 2.46932000E-04	-3.15185000E-02	-2.34730000E-05
		-1.56547000E-03	-3.19039000E-02	 1.18540000E-02
		 1.41716000E-04	-1.81071000E-02	 2.01113000E-06
		-9.09859000E-04	-2.96374000E-02	 5.83081000E-03
		-2.01955000E-03	-1.85776000E-02	 1.01112000E-02
		 2.34160000E-04	-3.05448000E-02	-4.73464000E-05
		-1.79968000E-03	-3.09262000E-02	 1.18058000E-02
		 1.62524000E-04	-1.99620000E-02	 3.89063000E-05
		-6.53966000E-04	-3.16710000E-02	 5.87497000E-03
		-1.38224000E-03	-2.04353000E-02	 1.01949000E-02
		 2.47974000E-03	-2.95342000E-02	-1.19321000E-02
		 2.05234000E-03	-3.15708000E-02	-1.19151000E-02
		 2.29258000E-03	-1.83255000E-02	-1.01276000E-02
		 1.35367000E-03	-2.94699000E-02	-5.96590000E-03
		 2.26717000E-03	-3.05964000E-02	-1.19112000E-02
		 1.70251000E-03	-2.01751000E-02	-1.01379000E-02
		 1.15042000E-03	-3.15065000E-02	-5.92263000E-03
		 2.67762000E-04	-3.31061000E-02	 2.90016000E-05
		-1.07813000E-03	-3.34770000E-02	 1.18762000E-02
		 2.57311000E-04	-3.23529000E-02	 3.77910000E-06
		-1.32137000E-03	-3.27607000E-02	 1.19008000E-02
		 1.85657000E-04	-2.11971000E-02	 8.84610000E-05
		-4.08010000E-04	-3.32468000E-02	 5.87704000E-03
		-7.59746000E-04	-2.16887000E-02	 1.01951000E-02
		 1.63490000E-03	-3.31582000E-02	-1.18351000E-02
		 1.84373000E-03	-3.24050000E-02	-1.19120000E-02
		 1.14140000E-03	-2.14327000E-02	-1.00377000E-02
		 9.49002000E-04	-3.30903000E-02	-5.81892000E-03
		 4.37857000E-04	-5.60204000E-02	-3.06445000E-04
		-2.26391000E-03	-5.63152000E-02	 1.38793000E-02
		 4.63311000E-04	-5.85674000E-02	-2.46227000E-04
		-1.98338000E-03	-5.89724000E-02	 1.39672000E-02
		 3.22300000E-04	-4.21794000E-02	-1.65564000E-04
		-9.07692000E-04	-5.61323000E-02	 6.76952000E-03
		-2.11381000E-03	-4.25537000E-02	 1.30296000E-02
		 4.51575000E-04	-5.73310000E-02	-2.73559000E-04
		-2.12605000E-03	-5.76928000E-02	 1.38697000E-02
		 3.46208000E-04	-4.44382000E-02	-1.18170000E-04
		-7.83599000E-04	-5.87366000E-02	 6.77768000E-03
		-1.73922000E-03	-4.48156000E-02	 1.31016000E-02
		 3.10003000E-03	-5.59152000E-02	-1.44853000E-02
		 2.90679000E-03	-5.84745000E-02	-1.44858000E-02
		 2.75309000E-03	-4.21592000E-02	-1.33728000E-02
		 1.77016000E-03	-5.59357000E-02	-7.37274000E-03
		 3.00105000E-03	-5.72249000E-02	-1.44388000E-02
		 2.43402000E-03	-4.44068000E-02	-1.33514000E-02
		 1.68625000E-03	-5.84935000E-02	-7.29156000E-03
		 4.84347000E-04	-6.08997000E-02	-1.82872000E-04
		-1.79276000E-03	-6.14133000E-02	 1.39981000E-02
		 4.73990000E-04	-5.97780000E-02	-2.17601000E-04
		-1.89051000E-03	-6.01133000E-02	 1.40747000E-02
		 3.76957000E-04	-4.63502000E-02	-6.22816000E-05
		-6.26534000E-04	-6.11266000E-02	 6.72894000E-03
		-1.37878000E-03	-4.67448000E-02	 1.31328000E-02
		 2.71653000E-03	-6.08236000E-02	-1.44149000E-02
		 2.81125000E-03	-5.96768000E-02	-1.45364000E-02
		 2.09383000E-03	-4.63071000E-02	-1.32739000E-02
		 1.59612000E-03	-6.08448000E-02	-7.13971000E-03
		 7.97869000E-04	-8.53328000E-02	-6.66029000E-04
		-2.49535000E-03	-8.53966000E-02	 1.38212000E-02
		 8.19298000E-04	-8.87428000E-02	-5.50890000E-04
		-2.72235000E-03	-8.92696000E-02	 1.39605000E-02
		 5.62212000E-04	-7.06152000E-02	-4.80100000E-04
		-8.48514000E-04	-8.53820000E-02	 6.56617000E-03
		-2.41098000E-03	-7.08924000E-02	 1.41146000E-02
		 8.09584000E-04	-8.69862000E-02	-6.05979000E-04
		-2.60043000E-03	-8.72261000E-02	 1.38596000E-02
		 5.81113000E-04	-7.36042000E-02	-4.40804000E-04
		-8.27742000E-04	-8.90105000E-02	 6.65392000E-03
		-2.40036000E-03	-7.38321000E-02	 1.42713000E-02
		 3.90986000E-03	-8.50587000E-02	-1.51478000E-02
		 4.05456000E-03	-8.82993000E-02	-1.50519000E-02
		 3.50093000E-03	-7.04158000E-02	-1.50738000E-02
		 2.35591000E-03	-8.52215000E-02	-7.89496000E-03
		 3.98516000E-03	-8.66561000E-02	-1.50661000E-02
		 3.48679000E-03	-7.33548000E-02	-1.50465000E-02
		 2.42625000E-03	-8.85196000E-02	-7.75456000E-03
		 7.04631000E-04	-9.23019000E-02	-4.44030000E-04
		-2.80891000E-03	-9.31955000E-02	 1.40482000E-02
		 7.63107000E-04	-9.04664000E-02	-4.98755000E-04
		-2.76472000E-03	-9.16998000E-02	 1.40644000E-02
		 5.77876000E-04	-7.65554000E-02	-4.28440000E-04
		-1.16871000E-03	-9.27357000E-02	 6.69007000E-03
		-2.22045000E-03	-7.66680000E-02	 1.43067000E-02
		 4.21578000E-03	-9.16984000E-02	-1.49200000E-02