# vtk DataFile Version 3.0

ASCII
DATASET UNSTRUCTURED_GRID

POINTS 522 double
	 1.00000000E+00	 1.00000000E+00	-5.96046000E-08
	 1.00000000E+00	 5.00000000E-01	-5.96046000E-08
	 1.00000000E+00	 5.00000000E-01	 1.00000000E+00
	 1.00000000E+00	 1.00000000E+00	 1.00000000E+00
	 5.00000000E-01	 1.00000000E+00	-5.96046000E-08
	 5.00000000E-01	 5.00000000E-01	-5.96046000E-08
	 5.00000000E-01	 5.00000000E-01	 1.00000000E+00
	 5.00000000E-01	 1.00000000E+00	 1.00000000E+00
	 1.00000000E+00	 7.50000000E-01	-5.96046000E-08
	 1.00000000E+00	 5.00000000E-01	 5.00000000E-01
	 1.00000000E+00	 7.50000000E-01	 1.00000000E+00
	 1.00000000E+00	 1.00000000E+00	 5.00000000E-01
	 7.50000000E-01	 1.00000000E+00	-5.96046000E-08
	 7.50000000E-01	 5.00000000E-01	-5.96046000E-08
	 7.50000000E-01	 5.00000000E-01	 1.00000000E+00
	 7.50000000E-01	 1.00000000E+00	 1.00000000E+00
	 5.00000000E-01	 7.50000000E-01	-5.96046000E-08
	 5.00000000E-01	 5.00000000E-01	 5.00000000E-01
	 5.00000000E-01	 7.50000000E-01	 1.00000000E+00
	 5.00000000E-01	 1.00000000E+00	 5.00000000E-01
	 1.00000000E+00	-1.49012000E-08	-5.96046000E-08
	 1.00000000E+00	-1.49012000E-08	 1.00000000E+00
	 5.00000000E-01	-1.49012000E-08	-5.96046000E-08
	 5.00000000E-01	-1.49012000E-08	 1.00000000E+00
	 1.00000000E+00	 2.50000000E-01	-5.96046000E-08
	 1.00000000E+00	-1.49012000E-08	 5.00000000E-01
	 1.00000000E+00	 2.50000000E-01	 1.00000000E+00
	 7.50000000E-01	-1.49012000E-08	-5.96046000E-08
	 7.50000000E-01	-1.49012000E-08	 1.00000000E+00
	 5.00000000E-01	 2.50000000E-01	-5.96046000E-08
	 5.00000000E-01	-1.49012000E-08	 5.00000000E-01
	 5.00000000E-01	 2.50000000E-01	 1.00000000E+00
	-7.45058000E-09	 1.00000000E+00	-5.96046000E-08
	-7.45058000E-09	 5.00000000E-01	-5.96046000E-08
	-7.45058000E-09	 5.00000000E-01	 1.00000000E+00
	-7.45058000E-09	 1.00000000E+00	 1.00000000E+00
	 2.50000000E-01	 1.00000000E+00	-5.96046000E-08
	 2.50000000E-01	 5.00000000E-01	-5.96046000E-08
	 2.50000000E-01	 5.00000000E-01	 1.00000000E+00
	 2.50000000E-01	 1.00000000E+00	 1.00000000E+00
	-7.45058000E-09	 7.50000000E-01	-5.96046000E-08
	-7.45058000E-09	 5.00000000E-01	 5.00000000E-01
	-7.45058000E-09	 7.50000000E-01	 1.00000000E+00
	-7.45058000E-09	 1.00000000E+00	 5.00000000E-01
	-7.45058000E-09	-1.49012000E-08	-5.96046000E-08
	-7.45058000E-09	-1.49012000E-08	 1.00000000E+00
	 2.50000000E-01	-1.49012000E-08	-5.96046000E-08
	 2.50000000E-01	-1.49012000E-08	 1.00000000E+00
	-7.45058000E-09	 2.50000000E-01	-5.96046000E-08
	-7.45058000E-09	-1.49012000E-08	 5.00000000E-01
	-7.45058000E-09	 2.50000000E-01	 1.00000000E+00
	 1.00000000E+00	 5.00000000E-01	 2.00000000E+00
	 1.00000000E+00	 1.00000000E+00	 2.00000000E+00
	 5.00000000E-01	 5.00000000E-01	 2.00000000E+00
	 5.00000000E-01	 1.00000000E+00	 2.00000000E+00
	 1.00000000E+00	 5.00000000E-01	 1.50000000E+00
	 1.00000000E+00	 7.50000000E-01	 2.00000000E+00
	 1.00000000E+00	 1.00000000E+00	 1.50000000E+00
	 7.50000000E-01	 5.00000000E-01	 2.00000000E+00
	 7.50000000E-01	 1.00000000E+00	 2.00000000E+00
	 5.00000000E-01	 5.00000000E-01	 1.50000000E+00
	 5.00000000E-01	 7.50000000E-01	 2.00000000E+00
	 5.00000000E-01	 1.00000000E+00	 1.50000000E+00
	 1.00000000E+00	-1.49012000E-08	 2.00000000E+00
	 5.00000000E-01	-1.49012000E-08	 2.00000000E+00
	 1.00000000E+00	-1.49012000E-08	 1.50000000E+00
	 1.00000000E+00	 2.50000000E-01	 2.00000000E+00
	 7.50000000E-01	-1.49012000E-08	 2.00000000E+00
	 5.00000000E-01	-1.49012000E-08	 1.50000000E+00
	 5.00000000E-01	 2.50000000E-01	 2.00000000E+00
	-7.45058000E-09	 5.00000000E-01	 2.00000000E+00
	-7.45058000E-09	 1.00000000E+00	 2.00000000E+00
	 2.50000000E-01	 5.00000000E-01	 2.00000000E+00
	 2.50000000E-01	 1.00000000E+00	 2.00000000E+00
	-7.45058000E-09	 5.00000000E-01	 1.50000000E+00
	-7.45058000E-09	 7.50000000E-01	 2.00000000E+00
	-7.45058000E-09	 1.00000000E+00	 1.50000000E+00
	-7.45058000E-09	-1.49012000E-08	 2.00000000E+00
	 2.50000000E-01	-1.49012000E-08	 2.00000000E+00
	-7.45058000E-09	-1.49012000E-08	 1.50000000E+00
	-7.45058000E-09	 2.50000000E-01	 2.00000000E+00
	 1.00000000E+00	 5.00000000E-01	 3.00000000E+00
	 1.00000000E+00	 1.00000000E+00	 3.00000000E+00
	 5.00000000E-01	 5.00000000E-01	 3.00000000E+00
	 5.00000000E-01	 1.00000000E+00	 3.00000000E+00
	 1.00000000E+00	 5.00000000E-01	 2.50000000E+00
	 1.00000000E+00	 7.50000000E-01	 3.00000000E+00
	 1.00000000E+00	 1.00000000E+00	 2.50000000E+00
	 7.50000000E-01	 5.00000000E-01	 3.00000000E+00
	 7.50000000E-01	 1.00000000E+00	 3.00000000E+00
	 5.00000000E-01	 5.00000000E-01	 2.50000000E+00
	 5.00000000E-01	 7.50000000E-01	 3.00000000E+00
	 5.00000000E-01	 1.00000000E+00	 2.50000000E+00
	 1.00000000E+00	-1.49012000E-08	 3.00000000E+00
	 5.00000000E-01	-1.49012000E-08	 3.00000000E+00
	 1.00000000E+00	-1.49012000E-08	 2.50000000E+00
	 1.00000000E+00	 2.50000000E-01	 3.00000000E+00
	 7.50000000E-01	-1.49012000E-08	 3.00000000E+00
	 5.00000000E-01	-1.49012000E-08	 2.50000000E+00
	 5.00000000E-01	 2.50000000E-01	 3.00000000E+00
	-7.45058000E-09	 5.00000000E-01	 3.00000000E+00
	-7.45058000E-09	 1.00000000E+00	 3.00000000E+00
	 2.50000000E-01	 5.00000000E-01	 3.00000000E+00
	 2.50000000E-01	 1.00000000E+00	 3.00000000E+00
	-7.45058000E-09	 5.00000000E-01	 2.50000000E+00
	-7.45058000E-09	 7.50000000E-01	 3.00000000E+00
	-7.45058000E-09	 1.00000000E+00	 2.50000000E+00
	-7.45058000E-09	-1.49012000E-08	 3.00000000E+00
	 2.50000000E-01	-1.49012000E-08	 3.00000000E+00
	-7.45058000E-09	-1.49012000E-08	 2.50000000E+00
	-7.45058000E-09	 2.50000000E-01	 3.00000000E+00
	 1.00000000E+00	 5.00000000E-01	 4.00000000E+00
	 1.00000000E+00	 1.00000000E+00	 4.00000000E+00
	 5.00000000E-01	 5.00000000E-01	 4.00000000E+00
	 5.00000000E-01	 1.00000000E+00	 4.00000000E+00
	 1.00000000E+00	 5.00000000E-01	 3.50000000E+00
	 1.00000000E+00	 7.50000000E-01	 4.00000000E+00
	 1.00000000E+00	 1.00000000E+00	 3.50000000E+00
	 7.50000000E-01	 5.00000000E-01	 4.00000000E+00
	 7.50000000E-01	 1.00000000E+00	 4.00000000E+00
	 5.00000000E-01	 5.00000000E-01	 3.50000000E+00
	 5.00000000E-01	 7.50000000E-01	 4.00000000E+00
	 5.00000000E-01	 1.00000000E+00	 3.50000000E+00
	 1.00000000E+00	-1.49012000E-08	 4.00000000E+00
	 5.00000000E-01	-1.49012000E-08	 4.00000000E+00
	 1.00000000E+00	-1.49012000E-08	 3.50000000E+00
	 1.00000000E+00	 2.50000000E-01	 4.00000000E+00
	 7.50000000E-01	-1.49012000E-08	 4.00000000E+00
	 5.00000000E-01	-1.49012000E-08	 3.50000000E+00
	 5.00000000E-01	 2.50000000E-01	 4.00000000E+00
	-7.45058000E-09	 5.00000000E-01	 4.00000000E+00
	-7.45058000E-09	 1.00000000E+00	 4.00000000E+00
	 2.50000000E-01	 5.00000000E-01	 4.00000000E+00
	 2.50000000E-01	 1.00000000E+00	 4.00000000E+00
	-7.45058000E-09	 5.00000000E-01	 3.50000000E+00
	-7.45058000E-09	 7.50000000E-01	 4.00000000E+00
	-7.45058000E-09	 1.00000000E+00	 3.50000000E+00
	-7.45058000E-09	-1.49012000E-08	 4.00000000E+00
	 2.50000000E-01	-1.49012000E-08	 4.00000000E+00
	-7.45058000E-09	-1.49012000E-08	 3.50000000E+00
	-7.45058000E-09	 2.50000000E-01	 4.00000000E+00
	 1.00000000E+00	 5.00000000E-01	 5.00000000E+00
	 1.00000000E+00	 1.00000000E+00	 5.00000000E+00
	 5.00000000E-01	 5.00000000E-01	 5.00000000E+00
	 5.00000000E-01	 1.00000000E+00	 5.00000000E+00
	 1.00000000E+00	 5.00000000E-01	 4.50000000E+00
	 1.00000000E+00	 7.50000000E-01	 5.00000000E+00
	 1.00000000E+00	 1.00000000E+00	 4.50000000E+00
	 7.50000000E-01	 5.00000000E-01	 5.00000000E+00
	 7.50000000E-01	 1.00000000E+00	 5.00000000E+00
	 5.00000000E-01	 5.00000000E-01	 4.50000000E+00
	 5.00000000E-01	 7.50000000E-01	 5.00000000E+00
	 5.00000000E-01	 1.00000000E+00	 4.50000000E+00
	 1.00000000E+00	-1.49012000E-08	 5.00000000E+00
	 5.00000000E-01	-1.49012000E-08	 5.00000000E+00
	 1.00000000E+00	-1.49012000E-08	 4.50000000E+00
	 1.00000000E+00	 2.50000000E-01	 5.00000000E+00
	 7.50000000E-01	-1.49012000E-08	 5.00000000E+00
	 5.00000000E-01	-1.49012000E-08	 4.50000000E+00
	 5.00000000E-01	 2.50000000E-01	 5.00000000E+00
	-7.45058000E-09	 5.00000000E-01	 5.00000000E+00
	-7.45058000E-09	 1.00000000E+00	 5.00000000E+00
	 2.50000000E-01	 5.00000000E-01	 5.00000000E+00
	 2.50000000E-01	 1.00000000E+00	 5.00000000E+00
	-7.45058000E-09	 5.00000000E-01	 4.50000000E+00
	-7.45058000E-09	 7.50000000E-01	 5.00000000E+00
	-7.45058000E-09	 1.00000000E+00	 4.50000000E+00
	-7.45058000E-09	-1.49012000E-08	 5.00000000E+00
	 2.50000000E-01	-1.49012000E-08	 5.00000000E+00
	-7.45058000E-09	-1.49012000E-08	 4.50000000E+00
	-7.45058000E-09	 2.50000000E-01	 5.00000000E+00
	 1.00000000E+00	 5.00000000E-01	 6.00000000E+00
	 1.00000000E+00	 1.00000000E+00	 6.00000000E+00
	 5.00000000E-01	 5.00000000E-01	 6.00000000E+00
	 5.00000000E-01	 1.00000000E+00	 6.00000000E+00
	 1.00000000E+00	 5.00000000E-01	 5.50000000E+00
	 1.00000000E+00	 7.50000000E-01	 6.00000000E+00
	 1.00000000E+00	 1.00000000E+00	 5.50000000E+00
	 7.50000000E-01	 5.00000000E-01	 6.00000000E+00
	 7.50000000E-01	 1.00000000E+00	 6.00000000E+00
	 5.00000000E-01	 5.00000000E-01	 5.50000000E+00
	 5.00000000E-01	 7.50000000E-01	 6.00000000E+00
	 5.00000000E-01	 1.00000000E+00	 5.50000000E+00
	 1.00000000E+00	-1.49012000E-08	 6.00000000E+00
	 5.00000000E-01	-1.49012000E-08	 6.00000000E+00
	 1.00000000E+00	-1.49012000E-08	 5.50000000E+00
	 1.00000000E+00	 2.50000000E-01	 6.00000000E+00
	 7.50000000E-01	-1.49012000E-08	 6.00000000E+00
	 5.00000000E-01	-1.49012000E-08	 5.50000000E+00
	 5.00000000E-01	 2.50000000E-01	 6.00000000E+00
	-7.45058000E-09	 5.00000000E-01	 6.00000000E+00
	-7.45058000E-09	 1.00000000E+00	 6.00000000E+00
	 2.50000000E-01	 5.00000000E-01	 6.00000000E+00
	 2.50000000E-01	 1.00000000E+00	 6.00000000E+00
	-7.45058000E-09	 5.00000000E-01	 5.50000000E+00
	-7.45058000E-09	 7.50000000E-01	 6.00000000E+00
	-7.45058000E-09	 1.00000000E+00	 5.50000000E+00
	-7.45058000E-09	-1.49012000E-08	 6.00000000E+00
	 2.50000000E-01	-1.49012000E-08	 6.00000000E+00
	-7.45058000E-09	-1.49012000E-08	 5.50000000E+00
	-7.45058000E-09	 2.50000000E-01	 6.00000000E+00
	 1.00000000E+00	 5.00000000E-01	 7.00000000E+00
[...]
POINT_DATA 522
FIELD U 1
	U 3 522 double
		 0.00000000E+00	 0.00000000E+00	 0.00000000E+00
		 0.00000000E+00	 0.00000000E+00	 0.00000000E+00
		-5.69092000E-06	 3.36351000E-03	 1.66368000E-05
		 9.27781000E-04	 3.55450000E-03	-3.65055000E-03
		 0.00000000E+00	 0.00000000E+00	 0.00000000E+00
		 0.00000000E+00	 0.00000000E+00	 0.00000000E+00
		-2.47363000E-06	 4.04793000E-03	 1.07213000E-05
		 4.47895000E-04	 4.25802000E-03	-3.70004000E-03
		 0.00000000E+00	 0.00000000E+00	 0.00000000E+00
		-3.42679000E-06	 5.58539000E-04	 1.09051000E-05
		 4.61657000E-04	 3.37340000E-03	-1.80884000E-03
		 7.80705000E-04	 8.63227000E-04	-1.83467000E-03
		 0.00000000E+00	 0.00000000E+00	 0.00000000E+00
		 0.00000000E+00	 0.00000000E+00	 0.00000000E+00
		-3.94975000E-06	 3.78700000E-03	 1.30077000E-05
		 6.84935000E-04	 3.98726000E-03	-3.64030000E-03
		 0.00000000E+00	 0.00000000E+00	 0.00000000E+00
		-7.95053000E-07	 1.04272000E-03	 7.13230000E-06
		 2.22441000E-04	 4.06394000E-03	-1.79841000E-03
		 2.37536000E-04	 1.34512000E-03	-1.78570000E-03
		 0.00000000E+00	 0.00000000E+00	 0.00000000E+00
		-9.40834000E-04	 3.59337000E-03	 3.67822000E-03
		 0.00000000E+00	 0.00000000E+00	 0.00000000E+00
		-4.52271000E-04	 4.29732000E-03	 3.71560000E-03
		 0.00000000E+00	 0.00000000E+00	 0.00000000E+00
		-7.88372000E-04	 8.82949000E-04	 1.85610000E-03
		-4.73598000E-04	 3.39336000E-03	 1.84016000E-03
		 0.00000000E+00	 0.00000000E+00	 0.00000000E+00
		-6.93036000E-04	 4.02647000E-03	 3.66075000E-03
		 0.00000000E+00	 0.00000000E+00	 0.00000000E+00
		-2.38354000E-04	 1.36313000E-03	 1.80048000E-03
		-2.27235000E-04	 4.08372000E-03	 1.81781000E-03
		 0.00000000E+00	 0.00000000E+00	 0.00000000E+00
		 0.00000000E+00	 0.00000000E+00	 0.00000000E+00
		 4.04334000E-07	 4.26363000E-03	 8.24061000E-06
		-3.21539000E-05	 4.45574000E-03	-3.65849000E-03
		 0.00000000E+00	 0.00000000E+00	 0.00000000E+00
		 0.00000000E+00	 0.00000000E+00	 0.00000000E+00
		-1.03959000E-06	 4.23664000E-03	 8.94097000E-06
		 2.10684000E-04	 4.43815000E-03	-3.71849000E-03
		 0.00000000E+00	 0.00000000E+00	 0.00000000E+00
		 1.17666000E-06	 1.03441000E-03	 6.78307000E-06
		-1.58534000E-05	 4.27438000E-03	-1.74282000E-03
		-3.21883000E-04	 1.32500000E-03	-1.83849000E-03
		 0.00000000E+00	 0.00000000E+00	 0.00000000E+00
		 3.54810000E-05	 4.49296000E-03	 3.67024000E-03
		 0.00000000E+00	 0.00000000E+00	 0.00000000E+00
		-2.11533000E-04	 4.47736000E-03	 3.73079000E-03
		 0.00000000E+00	 0.00000000E+00	 0.00000000E+00
		 3.26468000E-04	 1.34183000E-03	 1.85226000E-03
		 1.75221000E-05	 4.29245000E-03	 1.75789000E-03
		-1.92042000E-06	 1.41690000E-02	-2.07924000E-05
		 9.55318000E-04	 1.42550000E-02	-6.41251000E-03
		 1.88035000E-06	 1.49689000E-02	-2.86218000E-05
		 6.58158000E-04	 1.50661000E-02	-6.44548000E-03
		-4.91264000E-06	 7.99698000E-03	 6.15825000E-06
		 4.74477000E-04	 1.41808000E-02	-3.14948000E-03
		 1.00708000E-03	 8.16206000E-03	-5.19690000E-03
		 1.66387000E-07	 1.46003000E-02	-2.49498000E-05
		 8.07832000E-04	 1.46949000E-02	-6.44531000E-03
		-1.85240000E-06	 8.79743000E-03	-9.51501000E-07
		 3.30815000E-04	 1.49874000E-02	-3.18400000E-03
		 5.97102000E-04	 8.97173000E-03	-5.22940000E-03
		-9.58759000E-04	 1.43475000E-02	 6.36608000E-03
		-6.53490000E-04	 1.51577000E-02	 6.38282000E-03
		-1.01850000E-03	 8.22651000E-03	 5.20286000E-03
		-4.78270000E-04	 1.42253000E-02	 3.10688000E-03
		-8.06844000E-04	 1.47874000E-02	 6.39031000E-03
		-6.00325000E-04	 9.03658000E-03	 5.22073000E-03
		-3.26825000E-04	 1.50317000E-02	 3.12563000E-03
		 4.87375000E-06	 1.54806000E-02	-3.25944000E-05
		 3.73169000E-04	 1.55813000E-02	-6.42473000E-03
		 3.39950000E-06	 1.52578000E-02	-3.13880000E-05
		 5.15724000E-04	 1.53547000E-02	-6.45024000E-03
		 7.21736000E-07	 9.19433000E-03	-3.89002000E-06
		 1.87793000E-04	 1.55007000E-02	-3.16308000E-03
		 2.02638000E-04	 9.37625000E-03	-5.20712000E-03
		-3.62027000E-04	 1.56702000E-02	 6.35381000E-03
		-5.07775000E-04	 1.54455000E-02	 6.38187000E-03
		-1.98876000E-04	 9.43919000E-03	 5.19255000E-03
		-1.77664000E-04	 1.55433000E-02	 3.09673000E-03
		 6.57246000E-07	 2.93392000E-02	-1.09653000E-04
		 5.40236000E-04	 2.93027000E-02	-7.62628000E-03
		 4.07717000E-06	 2.98540000E-02	-1.18897000E-04
		 4.93112000E-04	 2.98190000E-02	-7.66009000E-03
		 1.33140000E-06	 2.14339000E-02	-6.01270000E-05
		 2.70808000E-04	 2.93156000E-02	-3.78429000E-03
		 7.92531000E-04	 2.14592000E-02	-7.20332000E-03
		 2.49908000E-06	 2.96032000E-02	-1.14681000E-04
		 5.16935000E-04	 2.95668000E-02	-7.68149000E-03
		 4.97354000E-06	 2.21348000E-02	-6.93081000E-05
		 2.48801000E-04	 2.98308000E-02	-3.84113000E-03
		 6.20769000E-04	 2.21648000E-02	-7.24004000E-03
		-5.38318000E-04	 2.94234000E-02	 7.40581000E-03
		-4.84344000E-04	 2.99394000E-02	 7.42132000E-03
		-7.89010000E-04	 2.15705000E-02	 7.07960000E-03
		-2.69359000E-04	 2.93733000E-02	 3.56472000E-03
		-5.11321000E-04	 2.96885000E-02	 7.45093000E-03
		-6.09799000E-04	 2.22749000E-02	 7.09785000E-03
		-2.40506000E-04	 2.98894000E-02	 3.60301000E-03
		 6.89253000E-06	 3.03164000E-02	-1.27261000E-04
		 4.51998000E-04	 3.02877000E-02	-7.64380000E-03
		 5.53318000E-06	 3.00924000E-02	-1.22882000E-04
		 4.72762000E-04	 3.00590000E-02	-7.64003000E-03
		 7.80437000E-06	 2.26643000E-02	-7.60146000E-05
		 2.27821000E-04	 3.02963000E-02	-3.85147000E-03
		 4.59458000E-04	 2.27029000E-02	-7.21936000E-03
		-4.37403000E-04	 3.04058000E-02	 7.38839000E-03
		-4.60979000E-04	 3.01779000E-02	 7.39349000E-03
		-4.42428000E-04	 2.28098000E-02	 7.06361000E-03
		-2.13876000E-04	 3.03542000E-02	 3.59651000E-03
		-4.91659000E-06	 4.52254000E-02	-2.16636000E-04
		-3.99533000E-05	 4.51157000E-02	-7.41847000E-03
		-2.24104000E-06	 4.52559000E-02	-2.17664000E-04
		 8.47694000E-05	 4.51414000E-02	-7.43042000E-03
		-2.44676000E-06	 3.74006000E-02	-1.64206000E-04
		-2.09889000E-05	 4.51880000E-02	-3.75944000E-03
		 2.49084000E-04	 3.73241000E-02	-7.65576000E-03
		-3.61283000E-06	 4.52250000E-02	-2.17135000E-04
		 2.24113000E-05	 4.51110000E-02	-7.46228000E-03
		 5.23368000E-07	 3.76785000E-02	-1.70289000E-04
		 4.12097000E-05	 4.52161000E-02	-3.80308000E-03
		 3.00534000E-04	 3.75997000E-02	-7.68084000E-03
		 2.93254000E-05	 4.52246000E-02	 6.98689000E-03
		-8.98151000E-05	 4.52520000E-02	 6.99725000E-03
		-2.54171000E-04	 3.74421000E-02	 7.32804000E-03
		 1.09533000E-05	 4.52409000E-02	 3.32661000E-03
		-3.03798000E-05	 4.52219000E-02	 7.02983000E-03
		-2.99531000E-04	 3.77188000E-02	 7.34116000E-03
		-4.58435000E-05	 4.52708000E-02	 3.36823000E-03
		 1.13097000E-06	 4.53998000E-02	-2.20292000E-04
		 2.08875000E-04	 4.52876000E-02	-7.42169000E-03
		-6.33518000E-07	 4.53120000E-02	-2.18511000E-04
		 1.46520000E-04	 4.51984000E-02	-7.39845000E-03
		 3.63189000E-06	 3.80005000E-02	-1.76943000E-04
		 1.04173000E-04	 4.53603000E-02	-3.82793000E-03
		 3.55227000E-04	 3.79269000E-02	-7.66836000E-03
		-2.07029000E-04	 4.53990000E-02	 6.98346000E-03
		-1.48299000E-04	 4.53087000E-02	 6.96382000E-03
		-3.47929000E-04	 3.80454000E-02	 7.31543000E-03
		-1.02054000E-04	 4.54161000E-02	 3.38781000E-03
		-3.39810000E-06	 5.91958000E-02	-3.02637000E-04
		-4.32914000E-04	 5.90786000E-02	-6.50280000E-03
		-1.53340000E-06	 5.88558000E-02	-2.89609000E-04
		-2.62523000E-04	 5.87320000E-02	-6.49079000E-03
		-5.75162000E-06	 5.25206000E-02	-2.62400000E-04
		-2.16364000E-04	 5.91594000E-02	-3.38410000E-03
		-2.69286000E-04	 5.24072000E-02	-6.99990000E-03
		-2.85838000E-06	 5.90050000E-02	-2.96514000E-04
		-3.47930000E-04	 5.88828000E-02	-6.51429000E-03
		-3.50875000E-06	 5.23394000E-02	-2.57582000E-04
		-1.31837000E-04	 5.88158000E-02	-3.38852000E-03
		-1.11944000E-04	 5.22182000E-02	-6.99947000E-03
		 4.23269000E-04	 5.91575000E-02	 5.89914000E-03
		 2.56601000E-04	 5.88162000E-02	 5.91352000E-03
		 2.56119000E-04	 5.25020000E-02	 6.47629000E-03
		 2.08713000E-04	 5.91983000E-02	 2.77896000E-03
		 3.39568000E-04	 5.89647000E-02	 5.92326000E-03
		 1.03287000E-04	 5.23160000E-02	 6.48656000E-03
		 1.28093000E-04	 5.88580000E-02	 2.80969000E-03
		 2.60202000E-06	 5.86770000E-02	-2.78384000E-04
		-9.22445000E-05	 5.85517000E-02	-6.47852000E-03
		 2.13338000E-07	 5.87450000E-02	-2.83149000E-04
		-1.77983000E-04	 5.86206000E-02	-6.46782000E-03
		 9.97438000E-08	 5.23053000E-02	-2.54613000E-04
		-4.48491000E-05	 5.86355000E-02	-3.39309000E-03
		 3.98505000E-05	 5.21819000E-02	-6.99115000E-03
		 9.51963000E-05	 5.86412000E-02	 5.92415000E-03
		 1.75826000E-04	 5.87071000E-02	 5.90366000E-03
		-4.08526000E-05	 5.22823000E-02	 6.48499000E-03
		 4.98068000E-05	 5.86811000E-02	 2.83676000E-03
		 3.58818000E-05	 7.06205000E-02	-3.67854000E-04
		-5.78685000E-04	 7.05283000E-02	-5.53148000E-03
		 3.81855000E-05	 7.00718000E-02	-3.31869000E-04
		-4.50000000E-04	 6.99782000E-02	-5.48581000E-03
		 9.05774000E-06	 6.52080000E-02	-3.39573000E-04
		-2.70879000E-04	 7.05900000E-02	-2.95469000E-03
		-5.23136000E-04	 6.51032000E-02	-5.99054000E-03
		 3.68354000E-05	 7.03291000E-02	-3.48883000E-04
		-5.14712000E-04	 7.02362000E-02	-5.52182000E-03
		 1.08772000E-05	 6.47588000E-02	-3.14083000E-04
		-2.05831000E-04	 7.00417000E-02	-2.92930000E-03
		-3.63070000E-04	 6.46489000E-02	-5.96221000E-03
		 6.49197000E-04	 7.05866000E-02	 4.79686000E-03
		 5.25885000E-04	 7.00389000E-02	 4.82274000E-03
		 5.37837000E-04	 6.51683000E-02	 5.31478000E-03
		 3.43263000E-04	 7.06202000E-02	 2.22037000E-03
		 5.87124000E-04	 7.02969000E-02	 4.82390000E-03
		 3.82744000E-04	 6.47200000E-02	 5.33574000E-03
		 2.82156000E-04	 7.00725000E-02	 2.26579000E-03
		 4.30301000E-05	 6.96459000E-02	-2.98055000E-04
		-3.16471000E-04	 6.95555000E-02	-5.46232000E-03
		 4.01919000E-05	 6.98435000E-02	-3.15446000E-04
		-3.83405000E-04	 6.97498000E-02	-5.44876000E-03
		 1.55860000E-05	 6.44630000E-02	-2.90686000E-04
		-1.38724000E-04	 6.96178000E-02	-2.92457000E-03
		-2.00084000E-04	 6.43540000E-02	-5.94393000E-03
		 4.00175000E-04	 6.96193000E-02	 4.86644000E-03
		 4.62575000E-04	 6.98114000E-02	 4.81880000E-03
		 2.28616000E-04	 6.44306000E-02	 5.36280000E-03
		 2.23382000E-04	 6.96494000E-02	 2.32873000E-03
		 1.08139000E-04	 8.04245000E-02	-4.12414000E-04
		-8.17105000E-04	 8.03988000E-02	-5.11618000E-03
		 1.10881000E-04	 7.95006000E-02	-3.60852000E-04
		-8.08456000E-04	 7.94723000E-02	-5.06818000E-03
		 7.15123000E-05	 7.55990000E-02	-3.86343000E-04
		-3.56487000E-04	 8.04150000E-02	-2.75206000E-03
		-6.61060000E-04	 7.55368000E-02	-5.23880000E-03
		 1.09279000E-04	 7.99635000E-02	-3.87316000E-04
		-8.12185000E-04	 7.99382000E-02	-5.12313000E-03
		 7.35641000E-05	 7.48966000E-02	-3.46150000E-04
		-3.46834000E-04	 7.94859000E-02	-2.73410000E-03
		-5.97713000E-04	 7.48370000E-02	-5.18119000E-03
		 1.03261000E-03	 8.04392000E-02	 4.30605000E-03
		 1.02507000E-03	 7.95215000E-02	 4.34739000E-03
		 8.00968000E-04	 7.55842000E-02	 4.46027000E-03
		 5.70417000E-04	 8.04316000E-02	 1.93059000E-03
		 1.02863000E-03	 7.99805000E-02	 4.36032000E-03
		 7.40680000E-04	 7.48893000E-02	 4.48886000E-03
		 5.67675000E-04	 7.95114000E-02	 2.01262000E-03
		 1.12131000E-04	 7.85870000E-02	-3.12331000E-04
		-8.05936000E-04	 7.85503000E-02	-5.03843000E-03
		 1.12066000E-04	 7.90418000E-02	-3.35782000E-04
		-8.06734000E-04	 7.90107000E-02	-5.00955000E-03
		 7.57872000E-05	 7.42611000E-02	-3.06366000E-04
		-3.43281000E-04	 7.85653000E-02	-2.74024000E-03
		-5.22238000E-04	 7.42041000E-02	-5.15315000E-03
		 1.02493000E-03	 7.86091000E-02	 4.40773000E-03
		 1.02450000E-03	 7.90653000E-02	 4.33336000E-03
		 6.73596000E-04	 7.42602000E-02	 4.54411000E-03
		 5.67666000E-04	 7.86010000E-02	 2.11172000E-03
		 1.67421000E-04	 9.00543000E-02	-4.31388000E-04
		-1.01087000E-03	 9.00852000E-02	-5.20497000E-03
		 1.67087000E-04	 8.89221000E-02	-3.99939000E-04
		-9.73588000E-04	 8.89237000E-02	-5.19747000E-03
		 1.43651000E-04	 8.52584000E-02	-4.27104000E-04
		-4.24919000E-04	 9.00557000E-02	-2.79414000E-03
		-9.48864000E-04	 8.52156000E-02	-5.13508000E-03
		 1.66131000E-04	 8.94797000E-02	-4.17959000E-04
		-9.89071000E-04	 8.94931000E-02	-5.19802000E-03
		 1.42904000E-04	 8.41617000E-02	-3.76327000E-04
		-4.21185000E-04	 8.89218000E-02	-2.78653000E-03
		-9.41814000E-04	 8.41359000E-02	-5.12128000E-03
		 1.39033000E-03	 9.01144000E-02	 4.30852000E-03
		 1.38421000E-03	 8.89379000E-02	 4.37430000E-03
		 1.26826000E-03	 8.52998000E-02	 4.29625000E-03
		 7.79877000E-04	 9.00879000E-02	 1.92365000E-03
		 1.38514000E-03	 8.95195000E-02	 4.34524000E-03
		 1.27056000E-03	 8.41825000E-02	 4.35471000E-03
		 7.81475000E-04	 8.89262000E-02	 1.98147000E-03
		 1.92706000E-04	 8.77866000E-02	-3.54539000E-04
		-9.78676000E-04	 8.78758000E-02	-5.22752000E-03
		 1.75285000E-04	 8.83665000E-02	-3.77133000E-04
		-9.77862000E-04	 8.84176000E-02	-5.22910000E-03
		 1.54172000E-04	 8.30498000E-02	-3.18845000E-04
		-4.03257000E-04	 8.78368000E-02	-2.76180000E-03
		-9.78453000E-04	 8.30302000E-02	-5.11370000E-03
		 1.42150000E-03	 8.77466000E-02	 4.44058000E-03
		 1.40569000E-03	 8.83528000E-02	 4.40745000E-03
		 1.30000000E-03	 8.30531000E-02	 4.42033000E-03
		 8.05083000E-04	 8.77521000E-02	 2.04095000E-03
		 0.00000000E+00	 0.00000000E+00	 0.00000000E+00
		 0.00000000E+00	 0.00000000E+00	 0.00000000E+00
		-2.23237000E-05	-1.30427000E-02	-2.23662000E-04
		-3.13111000E-03	-1.40183000E-02	 1.32752000E-02
		 0.00000000E+00	 0.00000000E+00	 0.00000000E+00
		 0.00000000E+00	 0.00000000E+00	 0.00000000E+00
		-4.39703000E-05	-1.52454000E-02	-3.42252000E-04
		-1.38480000E-03	-1.62741000E-02	 1.33140000E-02
		 0.00000000E+00	 0.00000000E+00	 0.00000000E+00
		 2.92958000E-05	-2.48527000E-03	-7.28571000E-05
		-1.58047000E-03	-1.32216000E-02	 6.48453000E-03
		-2.66352000E-03	-3.70790000E-03	 6.78013000E-03
		 0.00000000E+00	 0.00000000E+00	 0.00000000E+00
		 0.00000000E+00	 0.00000000E+00	 0.00000000E+00
		-2.95936000E-05	-1.44420000E-02	-2.89941000E-04
		-2.24039000E-03	-1.54421000E-02	 1.31730000E-02
		 0.00000000E+00	 0.00000000E+00	 0.00000000E+00
		-6.93438000E-06	-4.05900000E-03	-1.21228000E-04
		-7.16446000E-04	-1.54368000E-02	 6.31929000E-03
		-6.67779000E-04	-5.25799000E-03	 6.54676000E-03
		 0.00000000E+00	 0.00000000E+00	 0.00000000E+00
		 3.06647000E-03	-1.36115000E-02	-1.37849000E-02
		 0.00000000E+00	 0.00000000E+00	 0.00000000E+00
		 1.31057000E-03	-1.58813000E-02	-1.40657000E-02
		 0.00000000E+00	 0.00000000E+00	 0.00000000E+00
		 2.71285000E-03	-3.58265000E-03	-6.95333000E-03
		 1.52668000E-03	-1.30142000E-02	-6.95205000E-03
		 0.00000000E+00	 0.00000000E+00	 0.00000000E+00
		 2.18226000E-03	-1.50391000E-02	-1.38151000E-02
		 0.00000000E+00	 0.00000000E+00	 0.00000000E+00
		 6.66540000E-04	-5.16278000E-03	-6.80841000E-03
		 6.29972000E-04	-1.52394000E-02	-7.02526000E-03
		 0.00000000E+00	 0.00000000E+00	 0.00000000E+00
		 0.00000000E+00	 0.00000000E+00	 0.00000000E+00
		-8.01688000E-05	-1.57328000E-02	-4.02736000E-04
		 3.57806000E-04	-1.66727000E-02	 1.31028000E-02
		 0.00000000E+00	 0.00000000E+00	 0.00000000E+00
		 0.00000000E+00	 0.00000000E+00	 0.00000000E+00
		-6.03791000E-05	-1.57849000E-02	-3.81138000E-04
		-5.25006000E-04	-1.67719000E-02	 1.33255000E-02
		 0.00000000E+00	 0.00000000E+00	 0.00000000E+00
		-5.79404000E-05	-3.81739000E-03	-1.46419000E-04
		 1.35811000E-04	-1.58876000E-02	 6.06621000E-03
		 1.36140000E-03	-4.96534000E-03	 6.70816000E-03
		 0.00000000E+00	 0.00000000E+00	 0.00000000E+00
		-4.74891000E-04	-1.63160000E-02	-1.39618000E-02
		 0.00000000E+00	 0.00000000E+00	 0.00000000E+00
		 4.27356000E-04	-1.63907000E-02	-1.41518000E-02
		 0.00000000E+00	 0.00000000E+00	 0.00000000E+00
		-1.44687000E-03	-4.88988000E-03	-7.02671000E-03
		-2.81230000E-04	-1.57168000E-02	-6.88467000E-03
		-1.73836000E-04	-5.19973000E-02	-1.06169000E-03
		-3.98039000E-03	-5.31480000E-02	 2.26559000E-02
		-1.76473000E-04	-5.51857000E-02	-1.29385000E-03
		-2.77870000E-03	-5.63400000E-02	 2.24934000E-02
		-8.53986000E-05	-2.98508000E-02	-5.41649000E-04
		-2.07675000E-03	-5.24389000E-02	 1.07005000E-02
		-3.62765000E-03	-3.10101000E-02	 1.85892000E-02
		-1.73810000E-04	-5.37217000E-02	-1.18845000E-03
		-3.37889000E-03	-5.48742000E-02	 2.25317000E-02
		-1.04386000E-04	-3.26147000E-02	-7.20745000E-04
		-1.47434000E-03	-5.56295000E-02	 1.04674000E-02
		-2.10561000E-03	-3.37716000E-02	 1.84875000E-02
		 3.63749000E-03	-5.19775000E-02	-2.48488000E-02
		 2.43269000E-03	-5.51951000E-02	-2.51511000E-02
		 3.44367000E-03	-3.02448000E-02	-1.97547000E-02
		 1.72823000E-03	-5.18627000E-02	-1.28399000E-02
		 3.03973000E-03	-5.37237000E-02	-2.49754000E-02
		 1.90937000E-03	-3.30229000E-02	-2.00114000E-02
		 1.12754000E-03	-5.50699000E-02	-1.30684000E-02
		-1.96794000E-04	-5.71957000E-02	-1.46043000E-03
		-1.57971000E-03	-5.83103000E-02	 2.22581000E-02
		-1.85399000E-04	-5.63199000E-02	-1.38352000E-03
		-2.17655000E-03	-5.74917000E-02	 2.24857000E-02
		-1.38205000E-04	-3.38595000E-02	-8.33189000E-04
		-8.96253000E-04	-5.76096000E-02	 1.01545000E-02
		-6.07800000E-04	-3.49976000E-02	 1.83009000E-02
		 1.23094000E-03	-5.72146000E-02	-2.52473000E-02
		 1.83187000E-03	-5.63308000E-02	-2.53246000E-02
		 3.79572000E-04	-3.42975000E-02	-2.00453000E-02
		 5.15958000E-04	-5.70857000E-02	-1.30869000E-02
		-3.20464000E-04	-1.07263000E-01	-2.64697000E-03
		-4.47718000E-03	-1.08361000E-01	 2.67821000E-02
		-3.10729000E-04	-1.11110000E-01	-2.92681000E-03
		-3.91174000E-03	-1.12316000E-01	 2.65671000E-02
		-2.51623000E-04	-7.81815000E-02	-1.77206000E-03
		-2.39517000E-03	-1.07735000E-01	 1.19656000E-02
		-4.25474000E-03	-7.93526000E-02	 2.53183000E-02
		-3.13775000E-04	-1.09259000E-01	-2.78835000E-03
		-4.19646000E-03	-1.10423000E-01	 2.66355000E-02
		-2.49644000E-04	-8.17366000E-02	-2.03869000E-03
		-2.13607000E-03	-1.11639000E-01	 1.16691000E-02
		-3.38125000E-03	-8.29147000E-02	 2.51305000E-02
		 3.80077000E-03	-1.06648000E-01	-3.20947000E-02
		 3.29354000E-03	-1.10510000E-01	-3.24747000E-02
		 3.74707000E-03	-7.78612000E-02	-2.89196000E-02
		 1.74234000E-03	-1.06894000E-01	-1.72575000E-02
		 3.54632000E-03	-1.08645000E-01	-3.22597000E-02
		 2.89203000E-03	-8.14169000E-02	-2.92637000E-02
		 1.49266000E-03	-1.10754000E-01	-1.75513000E-02
		-3.12346000E-04	-1.14435000E-01	-3.17467000E-03
		-3.45821000E-03	-1.15754000E-01	 2.62480000E-02
		-3.10382000E-04	-1.12855000E-01	-3.05656000E-03
		-3.68725000E-03	-1.13993000E-01	 2.65176000E-02
		-2.50862000E-04	-8.44321000E-02	-2.25321000E-03
		-1.85369000E-03	-1.15020000E-01	 1.12743000E-02
		-2.55481000E-03	-8.56300000E-02	 2.48421000E-02
		 2.79619000E-03	-1.13875000E-01	-3.26792000E-02
		 3.04582000E-03	-1.12248000E-01	-3.26877000E-02
		 2.02720000E-03	-8.41285000E-02	-2.94058000E-02
		 1.23149000E-03	-1.14113000E-01	-1.76755000E-02
		-3.50302000E-04	-1.69361000E-01	-4.63841000E-03
		-4.70309000E-03	-1.70204000E-01	 2.62141000E-02
		-3.41559000E-04	-1.73789000E-01	-4.90988000E-03
		-4.86468000E-03	-1.75083000E-01	 2.59833000E-02
		-3.83614000E-04	-1.38019000E-01	-3.62363000E-03
		-2.52918000E-03	-1.69788000E-01	 1.07274000E-02
		-4.63508000E-03	-1.39102000E-01	 2.69434000E-02
		-3.44604000E-04	-1.71532000E-01	-4.77118000E-03
		-4.77433000E-03	-1.72545000E-01	 2.60946000E-02
		-3.78037000E-04	-1.42196000E-01	-3.94532000E-03
		-2.48030000E-03	-1.74428000E-01	 1.04600000E-02
		-4.47253000E-03	-1.43226000E-01	 2.67662000E-02
		 3.83784000E-03	-1.68394000E-01	-3.54871000E-02
		 3.88817000E-03	-1.72663000E-01	-3.57907000E-02
		 3.84291000E-03	-1.37198000E-01	-3.42034000E-02
		 1.74457000E-03	-1.68898000E-01	-2.00007000E-02
		 3.86671000E-03	-1.70514000E-01	-3.56321000E-02
		 3.64823000E-03	-1.41331000E-01	-3.45653000E-02
		 1.76088000E-03	-1.73220000E-01	-2.02802000E-02
		-4.74433000E-04	-1.78282000E-01	-5.18801000E-03
		-4.89655000E-03	-1.79938000E-01	 2.56747000E-02
		-4.05783000E-04	-1.75989000E-01	-5.05164000E-03
		-4.87848000E-03	-1.77987000E-01	 2.58733000E-02
		-4.01342000E-04	-1.46162000E-01	-4.28076000E-03
		-2.80100000E-03	-1.79084000E-01	 1.01183000E-02
		-4.14971000E-03	-1.47078000E-01	 2.64341000E-02
		 3.95180000E-03	-1.77010000E-01	-3.60277000E-02