# vtk DataFile Version 3.0

ASCII
DATASET UNSTRUCTURED_GRID

POINTS 522 double
	 1.00000000E+00	 1.00000000E+00	-5.96046000E-08
	 1.00000000E+00	 5.00000000E-01	-5.96046000E-08
	 1.00000000E+00	 5.00000000E-01	 1.00000000E+00
	 1.00000000E+00	 1.00000000E+00	 1.00000000E+00
	 5.00000000E-01	 1.00000000E+00	-5.96046000E-08
	 5.00000000E-01	 5.00000000E-01	-5.96046000E-08
	 5.00000000E-01	 5.00000000E-01	 1.00000000E+00
	 5.00000000E-01	 1.00000000E+00	 1.00000000E+00
	 1.00000000E+00	 7.50000000E-01	-5.96046000E-08
	 1.00000000E+00	 5.00000000E-01	 5.00000000E-01
	 1.00000000E+00	 7.50000000E-01	 1.00000000E+00
	 1.00000000E+00	 1.00000000E+00	 5.00000000E-01
	 7.50000000E-01	 1.00000000E+00	-5.96046000E-08
	 7.50000000E-01	 5.00000000E-01	-5.96046000E-08
	 7.50000000E-01	 5.00000000E-01	 1.00000000E+00
	 7.50000000E-01	 1.00000000E+00	 1.00000000E+00
	 5.00000000E-01	 7.50000000E-01	-5.96046000E-08
	 5.00000000E-01	 5.00000000E-01	 5.00000000E-01
	 5.00000000E-01	 7.50000000E-01	 1.00000000E+00
	 5.00000000E-01	 1.00000000E+00	 5.00000000E-01
	 1.00000000E+00	-1.49012000E-08	-5.96046000E-08
	 1.00000000E+00	-1.49012000E-08	 1.00000000E+00
	 5.00000000E-01	-1.49012000E-08	-5.96046000E-08
	 5.00000000E-01	-1.49012000E-08	 1.00000000E+00
	 1.00000000E+00	 2.50000000E-01	-5.96046000E-08
	 1.00000000E+00	-1.49012000E-08	 5.00000000E-01
	 1.00000000E+00	 2.50000000E-01	 1.00000000E+00
	 7.50000000E-01	-1.49012000E-08	-5.96046000E-08
	 7.50000000E-01	-1.49012000E-08	 1.00000000E+00
	 5.00000000E-01	 2.50000000E-01	-5.96046000E-08
	 5.00000000E-01	-1.49012000E-08	 5.00000000E-01
	 5.00000000E-01	 2.50000000E-01	 1.00000000E+00
	-7.45058000E-09	 1.00000000E+00	-5.96046000E-08
	-7.45058000E-09	 5.00000000E-01	-5.96046000E-08
	-7.45058000E-09	 5.00000000E-01	 1.00000000E+00
	-7.45058000E-09	 1.00000000E+00	 1.00000000E+00
	 2.50000000E-01	 1.00000000E+00	-5.96046000E-08
	 2.50000000E-01	 5.00000000E-01	-5.96046000E-08
	 2.50000000E-01	 5.00000000E-01	 1.00000000E+00
	 2.50000000E-01	 1.00000000E+00	 1.00000000E+00
	-7.45058000E-09	 7.50000000E-01	-5.96046000E-08
	-7.45058000E-09	 5.00000000E-01	 5.00000000E-01
	-7.45058000E-09	 7.50000000E-01	 1.00000000E+00
	-7.45058000E-09	 1.00000000E+00	 5.00000000E-01
	-7.45058000E-09	-1.49012000E-08	-5.96046000E-08
	-7.45058000E-09	-1.49012000E-08	 1.00000000E+00
	 2.50000000E-01	-1.49012000E-08	-5.96046000E-08
	 2.50000000E-01	-1.49012000E-08	 1.00000000E+00
	-7.45058000E-09	 2.50000000E-01	-5.96046000E-08
	-7.45058000E-09	-1.49012000E-08	 5.00000000E-01
	-7.45058000E-09	 2.50000000E-01	 1.00000000E+00
	 1.00000000E+00	 5.00000000E-01	 2.00000000E+00
	 1.00000000E+00	 1.00000000E+00	 2.00000000E+00
	 5.00000000E-01	 5.00000000E-01	 2.00000000E+00
	 5.00000000E-01	 1.00000000E+00	 2.00000000E+00
	 1.00000000E+00	 5.00000000E-01	 1.50000000E+00
	 1.00000000E+00	 7.50000000E-01	 2.00000000E+00
	 1.00000000E+00	 1.00000000E+00	 1.50000000E+00
	 7.50000000E-01	 5.00000000E-01	 2.00000000E+00
	 7.50000000E-01	 1.00000000E+00	 2.00000000E+00
	 5.00000000E-01	 5.00000000E-01	 1.50000000E+00
	 5.00000000E-01	 7.50000000E-01	 2.00000000E+00
	 5.00000000E-01	 1.00000000E+00	 1.50000000E+00
	 1.00000000E+00	-1.49012000E-08	 2.00000000E+00
	 5.00000000E-01	-1.49012000E-08	 2.00000000E+00
	 1.00000000E+00	-1.49012000E-08	 1.50000000E+00
	 1.00000000E+00	 2.50000000E-01	 2.00000000E+00
	 7.50000000E-01	-1.49012000E-08	 2.00000000E+00
	 5.00000000E-01	-1.49012000E-08	 1.50000000E+00
	 5.00000000E-01	 2.50000000E-01	 2.00000000E+00
	-7.45058000E-09	 5.00000000E-01	 2.00000000E+00
	-7.45058000E-09	 1.00000000E+00	 2.00000000E+00
	 2.50000000E-01	 5.00000000E-01	 2.00000000E+00
	 2.50000000E-01	 1.00000000E+00	 2.00000000E+00
	-7.45058000E-09	 5.00000000E-01	 1.50000000E+00
	-7.45058000E-09	 7.50000000E-01	 2.00000000E+00
	-7.45058000E-09	 1.00000000E+00	 1.50000000E+00
	-7.45058000E-09	-1.49012000E-08	 2.00000000E+00
	 2.50000000E-01	-1.49012000E-08	 2.00000000E+00
	-7.45058000E-09	-1.49012000E-08	 1.50000000E+00
	-7.45058000E-09	 2.50000000E-01	 2.00000000E+00
	 1.00000000E+00	 5.00000000E-01	 3.00000000E+00
	 1.00000000E+00	 1.00000000E+00	 3.00000000E+00
	 5.00000000E-01	 5.00000000E-01	 3.00000000E+00
	 5.00000000E-01	 1.00000000E+00	 3.00000000E+00
	 1.00000000E+00	 5.00000000E-01	 2.50000000E+00
	 1.00000000E+00	 7.50000000E-01	 3.00000000E+00
	 1.00000000E+00	 1.00000000E+00	 2.50000000E+00
	 7.50000000E-01	 5.00000000E-01	 3.00000000E+00
	 7.50000000E-01	 1.00000000E+00	 3.00000000E+00
	 5.00000000E-01	 5.00000000E-01	 2.50000000E+00
	 5.00000000E-01	 7.50000000E-01	 3.00000000E+00
	 5.00000000E-01	 1.00000000E+00	 2.50000000E+00
	 1.00000000E+00	-1.49012000E-08	 3.00000000E+00
	 5.00000000E-01	-1.49012000E-08	 3.00000000E+00
	 1.00000000E+00	-1.49012000E-08	 2.50000000E+00
	 1.00000000E+00	 2.50000000E-01	 3.00000000E+00
	 7.50000000E-01	-1.49012000E-08	 3.00000000E+00
	 5.00000000E-01	-1.49012000E-08	 2.50000000E+00
	 5.00000000E-01	 2.50000000E-01	 3.00000000E+00
	-7.45058000E-09	 5.00000000E-01	 3.00000000E+00
	-7.45058000E-09	 1.00000000E+00	 3.00000000E+00
	 2.50000000E-01	 5.00000000E-01	 3.00000000E+00
	 2.50000000E-01	 1.00000000E+00	 3.00000000E+00
	-7.45058000E-09	 5.00000000E-01	 2.50000000E+00
	-7.45058000E-09	 7.50000000E-01	 3.00000000E+00
	-7.45058000E-09	 1.00000000E+00	 2.50000000E+00
	-7.45058000E-09	-1.49012000E-08	 3.00000000E+00
	 2.50000000E-01	-1.49012000E-08	 3.00000000E+00
	-7.45058000E-09	-1.49012000E-08	 2.50000000E+00
	-7.45058000E-09	 2.50000000E-01	 3.00000000E+00
	 1.00000000E+00	 5.00000000E-01	 4.00000000E+00
	 1.00000000E+00	 1.00000000E+00	 4.00000000E+00
	 5.00000000E-01	 5.00000000E-01	 4.00000000E+00
	 5.00000000E-01	 1.00000000E+00	 4.00000000E+00
	 1.00000000E+00	 5.00000000E-01	 3.50000000E+00
	 1.00000000E+00	 7.50000000E-01	 4.00000000E+00
	 1.00000000E+00	 1.00000000E+00	 3.50000000E+00
	 7.50000000E-01	 5.00000000E-01	 4.00000000E+00
	 7.50000000E-01	 1.00000000E+00	 4.00000000E+00
	 5.00000000E-01	 5.00000000E-01	 3.50000000E+00
	 5.00000000E-01	 7.50000000E-01	 4.00000000E+00
	 5.00000000E-01	 1.00000000E+00	 3.50000000E+00
	 1.00000000E+00	-1.49012000E-08	 4.00000000E+00
	 5.00000000E-01	-1.49012000E-08	 4.00000000E+00
	 1.00000000E+00	-1.49012000E-08	 3.50000000E+00
	 1.00000000E+00	 2.50000000E-01	 4.00000000E+00
	 7.50000000E-01	-1.49012000E-08	 4.00000000E+00
	 5.00000000E-01	-1.49012000E-08	 3.50000000E+00
	 5.00000000E-01	 2.50000000E-01	 4.00000000E+00
	-7.45058000E-09	 5.00000000E-01	 4.00000000E+00
	-7.45058000E-09	 1.00000000E+00	 4.00000000E+00
	 2.50000000E-01	 5.00000000E-01	 4.00000000E+00
	 2.50000000E-01	 1.00000000E+00	 4.00000000E+00
	-7.45058000E-09	 5.00000000E-01	 3.50000000E+00
	-7.45058000E-09	 7.50000000E-01	 4.00000000E+00
	-7.45058000E-09	 1.00000000E+00	 3.50000000E+00
	-7.45058000E-09	-1.49012000E-08	 4.00000000E+00
	 2.50000000E-01	-1.49012000E-08	 4.00000000E+00
	-7.45058000E-09	-1.49012000E-08	 3.50000000E+00
	-7.45058000E-09	 2.50000000E-01	 4.00000000E+00
	 1.00000000E+00	 5.00000000E-01	 5.00000000E+00
	 1.00000000E+00	 1.00000000E+00	 5.00000000E+00
	 5.00000000E-01	 5.00000000E-01	 5.00000000E+00
	 5.00000000E-01	 1.00000000E+00	 5.00000000E+00
	 1.00000000E+00	 5.00000000E-01	 4.50000000E+00
	 1.00000000E+00	 7.50000000E-01	 5.00000000E+00
	 1.00000000E+00	 1.00000000E+00	 4.50000000E+00
	 7.50000000E-01	 5.00000000E-01	 5.00000000E+00
	 7.50000000E-01	 1.00000000E+00	 5.00000000E+00
	 5.00000000E-01	 5.00000000E-01	 4.50000000E+00
	 5.00000000E-01	 7.50000000E-01	 5.00000000E+00
	 5.00000000E-01	 1.00000000E+00	 4.50000000E+00
	 1.00000000E+00	-1.49012000E-08	 5.00000000E+00
	 5.00000000E-01	-1.49012000E-08	 5.00000000E+00
	 1.00000000E+00	-1.49012000E-08	 4.50000000E+00
	 1.00000000E+00	 2.50000000E-01	 5.00000000E+00
	 7.50000000E-01	-1.49012000E-08	 5.00000000E+00
	 5.00000000E-01	-1.49012000E-08	 4.50000000E+00
	 5.00000000E-01	 2.50000000E-01	 5.00000000E+00
	-7.45058000E-09	 5.00000000E-01	 5.00000000E+00
	-7.45058000E-09	 1.00000000E+00	 5.00000000E+00
	 2.50000000E-01	 5.00000000E-01	 5.00000000E+00
	 2.50000000E-01	 1.00000000E+00	 5.00000000E+00
	-7.45058000E-09	 5.00000000E-01	 4.50000000E+00
	-7.45058000E-09	 7.50000000E-01	 5.00000000E+00
	-7.45058000E-09	 1.00000000E+00	 4.50000000E+00
	-7.45058000E-09	-1.49012000E-08	 5.00000000E+00
	 2.50000000E-01	-1.49012000E-08	 5.00000000E+00
	-7.45058000E-09	-1.49012000E-08	 4.50000000E+00
	-7.45058000E-09	 2.50000000E-01	 5.00000000E+00
	 1.00000000E+00	 5.00000000E-01	 6.00000000E+00
	 1.00000000E+00	 1.00000000E+00	 6.00000000E+00
	 5.00000000E-01	 5.00000000E-01	 6.00000000E+00
	 5.00000000E-01	 1.00000000E+00	 6.00000000E+00
	 1.00000000E+00	 5.00000000E-01	 5.50000000E+00
	 1.00000000E+00	 7.50000000E-01	 6.00000000E+00
	 1.00000000E+00	 1.00000000E+00	 5.50000000E+00
	 7.50000000E-01	 5.00000000E-01	 6.00000000E+00
	 7.50000000E-01	 1.00000000E+00	 6.00000000E+00
	 5.00000000E-01	 5.00000000E-01	 5.50000000E+00
	 5.00000000E-01	 7.50000000E-01	 6.00000000E+00
	 5.00000000E-01	 1.00000000E+00	 5.50000000E+00
	 1.00000000E+00	-1.49012000E-08	 6.00000000E+00
	 5.00000000E-01	-1.49012000E-08	 6.00000000E+00
	 1.00000000E+00	-1.49012000E-08	 5.50000000E+00
	 1.00000000E+00	 2.50000000E-01	 6.00000000E+00
	 7.50000000E-01	-1.49012000E-08	 6.00000000E+00
	 5.00000000E-01	-1.49012000E-08	 5.50000000E+00
	 5.00000000E-01	 2.50000000E-01	 6.00000000E+00
	-7.45058000E-09	 5.00000000E-01	 6.00000000E+00
	-7.45058000E-09	 1.00000000E+00	 6.00000000E+00
	 2.50000000E-01	 5.00000000E-01	 6.00000000E+00
	 2.50000000E-01	 1.00000000E+00	 6.00000000E+00
	-7.45058000E-09	 5.00000000E-01	 5.50000000E+00
	-7.45058000E-09	 7.50000000E-01	 6.00000000E+00
	-7.45058000E-09	 1.00000000E+00	 5.50000000E+00
	-7.45058000E-09	-1.49012000E-08	 6.00000000E+00
	 2.50000000E-01	-1.49012000E-08	 6.00000000E+00
	-7.45058000E-09	-1.49012000E-08	 5.50000000E+00
	-7.45058000E-09	 2.50000000E-01	 6.00000000E+00
	 1.00000000E+00	 5.00000000E-01	 7.00000000E+00
[...]
POINT_DATA 522
FIELD U 1
	U 3 522 double
		 0.00000000E+00	 0.00000000E+00	 0.00000000E+00
		 0.00000000E+00	 0.00000000E+00	 0.00000000E+00
		-1.02117000E-05	-5.86697000E-03	-9.52763000E-06
		 2.09406000E-04	-6.11145000E-03	 4.32736000E-03
		 0.00000000E+00	 0.00000000E+00	 0.00000000E+00
		 0.00000000E+00	 0.00000000E+00	 0.00000000E+00
		-1.30325000E-05	-5.39661000E-03	-1.11703000E-05
		 7.23739000E-04	-5.65496000E-03	 4.38594000E-03
		 0.00000000E+00	 0.00000000E+00	 0.00000000E+00
		-2.58371000E-06	-1.63203000E-03	-1.54454000E-06
		 9.91965000E-05	-5.89674000E-03	 2.00375000E-03
		-3.38722000E-04	-1.99670000E-03	 2.28935000E-03
		 0.00000000E+00	 0.00000000E+00	 0.00000000E+00
		 0.00000000E+00	 0.00000000E+00	 0.00000000E+00
		-1.33923000E-05	-5.72029000E-03	-1.18828000E-05
		 4.69378000E-04	-5.97456000E-03	 4.43429000E-03
		 0.00000000E+00	 0.00000000E+00	 0.00000000E+00
		-5.33149000E-06	-1.59204000E-03	-1.83726000E-06
		 3.52784000E-04	-5.42737000E-03	 2.10688000E-03
		 3.33152000E-04	-1.96790000E-03	 2.23201000E-03
		 0.00000000E+00	 0.00000000E+00	 0.00000000E+00
		-2.06977000E-04	-6.03602000E-03	-4.35572000E-03
		 0.00000000E+00	 0.00000000E+00	 0.00000000E+00
		-7.28598000E-04	-5.60536000E-03	-4.41584000E-03
		 0.00000000E+00	 0.00000000E+00	 0.00000000E+00
		 3.53127000E-04	-1.95569000E-03	-2.28772000E-03
		-1.13727000E-04	-5.85448000E-03	-2.02500000E-03
		 0.00000000E+00	 0.00000000E+00	 0.00000000E+00
		-4.69579000E-04	-5.91414000E-03	-4.46855000E-03
		 0.00000000E+00	 0.00000000E+00	 0.00000000E+00
		-3.26072000E-04	-1.94989000E-03	-2.23592000E-03
		-3.70848000E-04	-5.40412000E-03	-2.13198000E-03
		 0.00000000E+00	 0.00000000E+00	 0.00000000E+00
		 0.00000000E+00	 0.00000000E+00	 0.00000000E+00
		-8.13191000E-06	-4.41473000E-03	-2.49033000E-06
		 1.22906000E-03	-4.65319000E-03	 4.33827000E-03
		 0.00000000E+00	 0.00000000E+00	 0.00000000E+00
		 0.00000000E+00	 0.00000000E+00	 0.00000000E+00
		-1.14344000E-05	-4.99661000E-03	-6.81392000E-06
		 9.71225000E-04	-5.24208000E-03	 4.29697000E-03
		 0.00000000E+00	 0.00000000E+00	 0.00000000E+00
		-1.66708000E-06	-9.71667000E-04	 3.97952000E-06
		 6.11251000E-04	-4.43882000E-03	 2.15808000E-03
		 9.77828000E-04	-1.35219000E-03	 2.28991000E-03
		 0.00000000E+00	 0.00000000E+00	 0.00000000E+00
		-1.23010000E-03	-4.61917000E-03	-4.34794000E-03
		 0.00000000E+00	 0.00000000E+00	 0.00000000E+00
		-9.77234000E-04	-5.20022000E-03	-4.31564000E-03
		 0.00000000E+00	 0.00000000E+00	 0.00000000E+00
		-9.70102000E-04	-1.34254000E-03	-2.28873000E-03
		-6.22434000E-04	-4.42515000E-03	-2.16503000E-03
		-1.08959000E-05	-1.92678000E-02	-9.67046000E-05
		 1.33098000E-03	-1.94857000E-02	 7.08631000E-03
		-2.90707000E-06	-1.77544000E-02	-7.33023000E-05
		 1.68103000E-03	-1.79778000E-02	 7.12600000E-03
		-1.28944000E-05	-1.18739000E-02	-4.21257000E-05
		 6.59023000E-04	-1.93410000E-02	 3.38838000E-03
		 7.51846000E-04	-1.21458000E-02	 5.87679000E-03
		-6.77202000E-06	-1.85481000E-02	-8.45785000E-05
		 1.50326000E-03	-1.87680000E-02	 7.18640000E-03
		-1.24761000E-05	-1.09034000E-02	-3.59483000E-05
		 8.40787000E-04	-1.78354000E-02	 3.50116000E-03
		 1.18003000E-03	-1.11708000E-02	 5.91010000E-03
		-1.36939000E-03	-1.93880000E-02	-7.28826000E-03
		-1.70123000E-03	-1.78589000E-02	-7.27787000E-03
		-7.76825000E-04	-1.20633000E-02	-5.97913000E-03
		-6.85198000E-04	-1.92990000E-02	-3.58268000E-03
		-1.53406000E-03	-1.86551000E-02	-7.36534000E-03
		-1.20134000E-03	-1.10883000E-02	-5.99092000E-03
		-8.51472000E-04	-1.77764000E-02	-3.64871000E-03
		 4.16604000E-06	-1.58852000E-02	-4.14413000E-05
		 2.03928000E-03	-1.61138000E-02	 7.14655000E-03
		 8.42536000E-07	-1.68555000E-02	-5.96877000E-05
		 1.86312000E-03	-1.70809000E-02	 7.07020000E-03
		-8.31074000E-06	-9.49278000E-03	-1.75881000E-05
		 1.02359000E-03	-1.59681000E-02	 3.59223000E-03
		 1.60984000E-03	-9.76600000E-03	 5.91197000E-03
		-2.04055000E-03	-1.59796000E-02	-7.23094000E-03
		-1.87318000E-03	-1.69561000E-02	-7.18971000E-03
		-1.62131000E-03	-9.68437000E-03	-5.94664000E-03
		-1.01808000E-03	-1.58978000E-02	-3.67599000E-03
		 2.70354000E-07	-3.67661000E-02	-2.44343000E-04
		 2.21596000E-03	-3.70002000E-02	 8.92900000E-03
		 8.57398000E-06	-3.44159000E-02	-1.89323000E-04
		 2.48461000E-03	-3.46493000E-02	 8.99192000E-03
		-6.06989000E-06	-2.76197000E-02	-1.62461000E-04
		 1.10742000E-03	-3.68447000E-02	 4.29542000E-03
		 1.84869000E-03	-2.78498000E-02	 8.06440000E-03
		 3.69259000E-06	-3.56281000E-02	-2.17640000E-04
		 2.35215000E-03	-3.58601000E-02	 8.99907000E-03
		 2.61372000E-06	-2.56192000E-02	-1.22264000E-04
		 1.24846000E-03	-3.44936000E-02	 4.39416000E-03
		 2.14701000E-03	-2.58467000E-02	 8.11562000E-03
		-2.22303000E-03	-3.68255000E-02	-9.41822000E-03
		-2.48004000E-03	-3.44628000E-02	-9.37232000E-03
		-1.87668000E-03	-2.77164000E-02	-8.39191000E-03
		-1.10931000E-03	-3.67597000E-02	-4.78439000E-03
		-2.35347000E-03	-3.56783000E-02	-9.43384000E-03
		-2.15820000E-03	-2.56943000E-02	-8.36321000E-03
		-1.23558000E-03	-3.44012000E-02	-4.77272000E-03
		 1.91490000E-05	-3.18020000E-02	-1.32768000E-04
		 2.77431000E-03	-3.20343000E-02	 9.04051000E-03
		 1.42689000E-05	-3.31440000E-02	-1.60761000E-04
		 2.62764000E-03	-3.33780000E-02	 8.97969000E-03
		 1.16588000E-05	-2.33149000E-02	-7.90790000E-05
		 1.39648000E-03	-3.18819000E-02	 4.48327000E-03
		 2.46287000E-03	-2.35477000E-02	 8.14884000E-03
		-2.75246000E-03	-3.18257000E-02	-9.30900000E-03
		-2.61626000E-03	-3.31843000E-02	-9.30509000E-03
		-2.45483000E-03	-2.33752000E-02	-8.31085000E-03
		-1.36226000E-03	-3.17738000E-02	-4.74851000E-03
		 2.67379000E-05	-5.73857000E-02	-4.47013000E-04
		 2.50171000E-03	-5.75963000E-02	 1.03035000E-02
		 3.40890000E-05	-5.48346000E-02	-3.77650000E-04
		 2.66224000E-03	-5.50414000E-02	 1.03954000E-02
		 1.24946000E-05	-4.66928000E-02	-3.41223000E-04
		 1.26389000E-03	-5.74701000E-02	 4.88735000E-03
		 2.42429000E-03	-4.69233000E-02	 9.71735000E-03
		 3.08172000E-05	-5.61317000E-02	-4.12930000E-04
		 2.58208000E-03	-5.63393000E-02	 1.03465000E-02
		 1.98707000E-05	-4.41659000E-02	-2.74472000E-04
		 1.34845000E-03	-5.49162000E-02	 4.96321000E-03
		 2.65761000E-03	-4.43932000E-02	 9.79431000E-03
		-2.45130000E-03	-5.73440000E-02	-1.12037000E-02
		-2.59114000E-03	-5.47854000E-02	-1.11591000E-02
		-2.40372000E-03	-4.67041000E-02	-1.04008000E-02
		-1.21120000E-03	-5.73448000E-02	-5.78363000E-03
		-2.52163000E-03	-5.60842000E-02	-1.11786000E-02
		-2.62395000E-03	-4.41661000E-02	-1.03484000E-02
		-1.27893000E-03	-5.47888000E-02	-5.72112000E-03
		 4.40917000E-05	-5.21323000E-02	-2.99880000E-04
		 2.84245000E-03	-5.23223000E-02	 1.04497000E-02
		 3.79136000E-05	-5.35021000E-02	-3.40057000E-04
		 2.75257000E-03	-5.37060000E-02	 1.04497000E-02
		 2.96493000E-05	-4.14120000E-02	-2.03534000E-04
		 1.43907000E-03	-5.22038000E-02	 5.00414000E-03
		 2.91659000E-03	-4.16280000E-02	 9.85239000E-03
		-2.74612000E-03	-5.20736000E-02	-1.10602000E-02
		-2.66952000E-03	-5.34511000E-02	-1.11410000E-02
		-2.86517000E-03	-4.13893000E-02	-1.02676000E-02
		-1.34811000E-03	-5.20835000E-02	-5.60668000E-03
		 4.82523000E-05	-7.97033000E-02	-6.64304000E-04
		 2.34399000E-03	-7.97956000E-02	 1.02724000E-02
		 6.60256000E-05	-7.74714000E-02	-6.07231000E-04
		 2.26093000E-03	-7.75467000E-02	 1.03520000E-02
		 3.96786000E-05	-6.85697000E-02	-5.57447000E-04
		 1.19162000E-03	-7.97638000E-02	 4.80095000E-03
		 2.48240000E-03	-6.87246000E-02	 1.04793000E-02
		 5.55210000E-05	-7.85758000E-02	-6.35520000E-04
		 2.30137000E-03	-7.86545000E-02	 1.02783000E-02
		 5.25253000E-05	-6.61230000E-02	-4.93296000E-04
		 1.16300000E-03	-7.75221000E-02	 4.83342000E-03
		 2.51746000E-03	-6.62665000E-02	 1.05735000E-02
		-2.23221000E-03	-7.95352000E-02	-1.16028000E-02
		-2.12526000E-03	-7.73016000E-02	-1.15675000E-02
		-2.39634000E-03	-6.84587000E-02	-1.16005000E-02
		-1.09145000E-03	-7.96341000E-02	-6.13027000E-03
		-2.17853000E-03	-7.84067000E-02	-1.15504000E-02
		-2.40760000E-03	-6.60073000E-02	-1.15653000E-02
		-1.02999000E-03	-7.74043000E-02	-6.04797000E-03
		 8.17039000E-05	-7.53166000E-02	-5.51987000E-04
		 2.18193000E-03	-7.53961000E-02	 1.03902000E-02
		 7.59461000E-05	-7.63807000E-02	-5.79885000E-04
		 2.22343000E-03	-7.64578000E-02	 1.04305000E-02
		 6.56759000E-05	-6.36424000E-02	-4.21688000E-04
		 1.13353000E-03	-7.53677000E-02	 4.82347000E-03
		 2.56579000E-03	-6.37775000E-02	 1.06181000E-02
		-2.02573000E-03	-7.51475000E-02	-1.14953000E-02
		-2.07543000E-03	-7.62103000E-02	-1.15902000E-02
		-2.43153000E-03	-6.35233000E-02	-1.14677000E-02
		-9.72566000E-04	-7.52490000E-02	-5.92844000E-03
		 6.78777000E-05	-1.00188000E-01	-8.52623000E-04
		 1.75219000E-03	-1.00220000E-01	 9.13628000E-03
		 7.20417000E-05	-9.85823000E-02	-8.12888000E-04
		 1.61145000E-03	-9.86152000E-02	 9.16825000E-03
		 5.71333000E-05	-9.02969000E-02	-7.61572000E-04
		 9.10559000E-04	-1.00222000E-01	 4.21448000E-03
		 2.08313000E-03	-9.03566000E-02	 9.73671000E-03
		 7.10742000E-05	-9.93644000E-02	-8.30743000E-04
		 1.68208000E-03	-9.93960000E-02	 9.09862000E-03
		 7.04330000E-05	-8.83595000E-02	-7.13145000E-04
		 8.43228000E-04	-9.86189000E-02	 4.19560000E-03
		 1.94216000E-03	-8.84077000E-02	 9.79507000E-03
		-1.62621000E-03	-1.00022000E-01	-1.08214000E-02
		-1.47068000E-03	-9.84092000E-02	-1.07748000E-02
		-1.96130000E-03	-9.01273000E-02	-1.12558000E-02
		-7.76520000E-04	-1.00126000E-01	-5.91061000E-03
		-1.54920000E-03	-9.91940000E-02	-1.07433000E-02
		-1.79988000E-03	-8.81861000E-02	-1.12165000E-02
		-7.00281000E-04	-9.85163000E-02	-5.81555000E-03
		 7.27274000E-05	-9.71180000E-02	-7.90814000E-04
		 1.46633000E-03	-9.71549000E-02	 9.19721000E-03
		 7.24669000E-05	-9.78329000E-02	-7.99952000E-04
		 1.53921000E-03	-9.78667000E-02	 9.22589000E-03
		 8.06781000E-05	-8.65605000E-02	-6.76872000E-04
		 7.72119000E-04	-9.71554000E-02	 4.17755000E-03
		 1.80035000E-03	-8.66155000E-02	 9.82750000E-03
		-1.31470000E-03	-9.69550000E-02	-1.07598000E-02
		-1.39115000E-03	-9.76598000E-02	-1.08081000E-02
		-1.64065000E-03	-8.63944000E-02	-1.11748000E-02
		-6.25294000E-04	-9.70578000E-02	-5.75231000E-03
		 8.16211000E-05	-1.18557000E-01	-1.00406000E-03
		 1.10555000E-03	-1.18657000E-01	 8.45125000E-03
		 5.83669000E-05	-1.17539000E-01	-9.79050000E-04
		 1.07820000E-03	-1.17649000E-01	 8.45354000E-03
		 7.96860000E-05	-1.09477000E-01	-9.34876000E-04
		 5.98060000E-04	-1.18615000E-01	 3.77555000E-03
		 1.39016000E-03	-1.09531000E-01	 8.69781000E-03
		 7.32003000E-05	-1.18042000E-01	-9.92462000E-04
		 1.09549000E-03	-1.18151000E-01	 8.42342000E-03
		 6.92492000E-05	-1.08199000E-01	-9.01918000E-04
		 5.71259000E-04	-1.17602000E-01	 3.75681000E-03
		 1.31172000E-03	-1.08269000E-01	 8.71072000E-03
		-9.46753000E-04	-1.18428000E-01	-1.04600000E-02
		-9.45685000E-04	-1.17415000E-01	-1.04150000E-02
		-1.25406000E-03	-1.09335000E-01	-1.05373000E-02
		-4.35211000E-04	-1.18484000E-01	-5.79026000E-03
		-9.44365000E-04	-1.17918000E-01	-1.04050000E-02
		-1.17311000E-03	-1.08051000E-01	-1.04879000E-02
		-4.47916000E-04	-1.17471000E-01	-5.71869000E-03
		 4.26523000E-05	-1.16550000E-01	-9.59788000E-04
		 1.04660000E-03	-1.16648000E-01	 8.46884000E-03
		 4.52595000E-05	-1.17048000E-01	-9.66607000E-04
		 1.05904000E-03	-1.17152000E-01	 8.48235000E-03
		 5.98810000E-05	-1.07007000E-01	-8.87596000E-04
		 5.45125000E-04	-1.16605000E-01	 3.74957000E-03
		 1.22552000E-03	-1.07073000E-01	 8.73527000E-03
		-9.30302000E-04	-1.16443000E-01	-1.03960000E-02
		-9.41964000E-04	-1.16926000E-01	-1.04223000E-02
		-1.08616000E-03	-1.06874000E-01	-1.04884000E-02
		-4.50183000E-04	-1.16495000E-01	-5.67413000E-03
		 4.64206000E-05	-1.37182000E-01	-1.15168000E-03
		 8.46247000E-04	-1.37249000E-01	 8.31259000E-03
		 7.29283000E-05	-1.36340000E-01	-1.15498000E-03
		 8.79716000E-04	-1.36387000E-01	 8.26398000E-03
		 7.30728000E-05	-1.27766000E-01	-1.06943000E-03
		 4.33467000E-04	-1.37213000E-01	 3.59282000E-03
		 9.45193000E-04	-1.27881000E-01	 8.37026000E-03
		 5.79233000E-05	-1.36773000E-01	-1.15996000E-03
		 8.62278000E-04	-1.36820000E-01	 8.28304000E-03
		 5.75778000E-05	-1.26901000E-01	-1.05909000E-03
		 4.64378000E-04	-1.36357000E-01	 3.56120000E-03
		 9.38208000E-04	-1.27000000E-01	 8.34477000E-03
		-6.96732000E-04	-1.37121000E-01	-1.07316000E-02
		-7.09178000E-04	-1.36296000E-01	-1.06710000E-02
		-7.61238000E-04	-1.27644000E-01	-1.05808000E-02
		-3.25334000E-04	-1.37150000E-01	-5.93114000E-03
		-7.03190000E-04	-1.36725000E-01	-1.07122000E-02
		-7.99747000E-04	-1.26796000E-01	-1.05302000E-02
		-3.07258000E-04	-1.36321000E-01	-5.89910000E-03
		 1.02615000E-04	-1.35495000E-01	-1.09642000E-03
		 8.86418000E-04	-1.35546000E-01	 8.27923000E-03
		 8.74005000E-05	-1.35908000E-01	-1.13325000E-03
		 8.82628000E-04	-1.35960000E-01	 8.26773000E-03
		 4.96942000E-05	-1.26039000E-01	-1.01737000E-03
		 4.88022000E-04	-1.35514000E-01	 3.58935000E-03
		 9.19453000E-04	-1.26125000E-01	 8.35784000E-03
		-6.86448000E-04	-1.35442000E-01	-1.05486000E-02
		-6.98863000E-04	-1.35864000E-01	-1.06150000E-02
		-8.06049000E-04	-1.25940000E-01	-1.04527000E-02
		-2.83160000E-04	-1.35472000E-01	-5.80547000E-03
		 0.00000000E+00	 0.00000000E+00	 0.00000000E+00
		 0.00000000E+00	 0.00000000E+00	 0.00000000E+00
		-1.19743000E-05	-1.25983000E-02	-1.55974000E-04
		-2.76470000E-03	-1.35345000E-02	 1.26584000E-02
		 0.00000000E+00	 0.00000000E+00	 0.00000000E+00
		 0.00000000E+00	 0.00000000E+00	 0.00000000E+00
		-2.76884000E-05	-1.45086000E-02	-2.15306000E-04
		-1.12063000E-03	-1.54869000E-02	 1.27517000E-02
		 0.00000000E+00	 0.00000000E+00	 0.00000000E+00
		 1.08836000E-05	-2.49931000E-03	-4.13375000E-05
		-1.39563000E-03	-1.27773000E-02	 6.20625000E-03
		-2.41150000E-03	-3.67658000E-03	 6.47952000E-03
		 0.00000000E+00	 0.00000000E+00	 0.00000000E+00
		 0.00000000E+00	 0.00000000E+00	 0.00000000E+00
		-2.00493000E-05	-1.38358000E-02	-1.93135000E-04
		-1.92659000E-03	-1.47870000E-02	 1.25948000E-02
		 0.00000000E+00	 0.00000000E+00	 0.00000000E+00
		-1.39404000E-05	-3.86602000E-03	-6.72940000E-05
		-5.75601000E-04	-1.46909000E-02	 6.11056000E-03
		-5.10966000E-04	-5.01828000E-03	 6.27798000E-03
		 0.00000000E+00	 0.00000000E+00	 0.00000000E+00
		 2.74217000E-03	-1.31313000E-02	-1.30343000E-02
		 0.00000000E+00	 0.00000000E+00	 0.00000000E+00
		 1.09058000E-03	-1.51059000E-02	-1.32471000E-02
		 0.00000000E+00	 0.00000000E+00	 0.00000000E+00
		 2.44111000E-03	-3.52565000E-03	-6.57779000E-03
		 1.36960000E-03	-1.25653000E-02	-6.53863000E-03
		 0.00000000E+00	 0.00000000E+00	 0.00000000E+00
		 1.90799000E-03	-1.43961000E-02	-1.30453000E-02
		 0.00000000E+00	 0.00000000E+00	 0.00000000E+00
		 5.05766000E-04	-4.90377000E-03	-6.42451000E-03
		 5.28135000E-04	-1.45005000E-02	-6.56281000E-03
		 0.00000000E+00	 0.00000000E+00	 0.00000000E+00
		 0.00000000E+00	 0.00000000E+00	 0.00000000E+00
		-3.93707000E-05	-1.48069000E-02	-2.19905000E-04
		 5.42328000E-04	-1.57009000E-02	 1.26019000E-02
		 0.00000000E+00	 0.00000000E+00	 0.00000000E+00
		 0.00000000E+00	 0.00000000E+00	 0.00000000E+00
		-3.40137000E-05	-1.49372000E-02	-2.23903000E-04
		-3.03119000E-04	-1.58757000E-02	 1.27850000E-02
		 0.00000000E+00	 0.00000000E+00	 0.00000000E+00
		-3.74166000E-05	-3.51536000E-03	-6.53812000E-05
		 2.49563000E-04	-1.49537000E-02	 5.92633000E-03
		 1.43222000E-03	-4.62328000E-03	 6.45226000E-03
		 0.00000000E+00	 0.00000000E+00	 0.00000000E+00
		-5.80409000E-04	-1.53483000E-02	-1.30918000E-02
		 0.00000000E+00	 0.00000000E+00	 0.00000000E+00
		 2.62137000E-04	-1.55037000E-02	-1.32921000E-02
		 0.00000000E+00	 0.00000000E+00	 0.00000000E+00
		-1.47794000E-03	-4.52027000E-03	-6.60474000E-03
		-3.13122000E-04	-1.47872000E-02	-6.38001000E-03
		 1.90227000E-05	-4.92961000E-02	-9.01615000E-04
		-3.65541000E-03	-5.03520000E-02	 2.15960000E-02
		 2.54904000E-05	-5.23801000E-02	-9.99735000E-04
		-2.51827000E-03	-5.34573000E-02	 2.15633000E-02
		-4.26813000E-06	-2.84725000E-02	-4.34501000E-04
		-1.81580000E-03	-4.96962000E-02	 1.02931000E-02
		-3.23676000E-03	-2.95657000E-02	 1.77079000E-02
		 2.26143000E-05	-5.09611000E-02	-9.58412000E-04
		-3.08561000E-03	-5.20259000E-02	 2.15044000E-02
		-1.70022000E-05	-3.09780000E-02	-5.16680000E-04
		-1.24024000E-03	-5.27906000E-02	 1.01565000E-02
		-1.80782000E-03	-3.20685000E-02	 1.77041000E-02
		 3.67476000E-03	-4.93186000E-02	-2.34675000E-02
		 2.55090000E-03	-5.24125000E-02	-2.36276000E-02
		 3.21126000E-03	-2.88717000E-02	-1.86670000E-02
		 1.84711000E-03	-4.91887000E-02	-1.21119000E-02
		 3.11341000E-03	-5.09949000E-02	-2.34865000E-02
		 1.77866000E-03	-3.13741000E-02	-1.88171000E-02
		 1.28922000E-03	-5.22802000E-02	-1.21675000E-02
		 2.08935000E-05	-5.43660000E-02	-1.03841000E-03
		-1.37065000E-03	-5.54182000E-02	 2.14596000E-02
		 2.39498000E-05	-5.34944000E-02	-1.02654000E-03
		-1.94417000E-03	-5.45983000E-02	 2.16502000E-02
		-3.20317000E-05	-3.20601000E-02	-5.35025000E-04
		-6.81095000E-04	-5.47550000E-02	 9.94311000E-03
		-3.71831000E-04	-3.31338000E-02	 1.76184000E-02
		 1.43283000E-03	-5.43851000E-02	-2.35953000E-02
		 1.99303000E-03	-5.35177000E-02	-2.37663000E-02
		 3.43018000E-04	-3.24636000E-02	-1.87530000E-02
		 7.28941000E-04	-5.42608000E-02	-1.20283000E-02
		 1.91632000E-04	-1.01384000E-01	-2.33274000E-03
		-4.16512000E-03	-1.02352000E-01	 2.55130000E-02
		 2.05524000E-04	-1.05463000E-01	-2.42086000E-03
		-3.64547000E-03	-1.06553000E-01	 2.54857000E-02
		 8.48666000E-05	-7.39399000E-02	-1.53980000E-03
		-1.98039000E-03	-1.01801000E-01	 1.14977000E-02
		-3.99263000E-03	-7.49942000E-02	 2.41502000E-02
		 1.98846000E-04	-1.03488000E-01	-2.37746000E-03
		-3.91024000E-03	-1.04530000E-01	 2.54496000E-02
		 9.37857000E-05	-7.75907000E-02	-1.64342000E-03
		-1.74384000E-03	-1.05943000E-01	 1.13779000E-02
		-3.16571000E-03	-7.86725000E-02	 2.41176000E-02
		 4.50169000E-03	-1.00830000E-01	-3.01848000E-02
		 4.04188000E-03	-1.04916000E-01	-3.03707000E-02
		 4.13737000E-03	-7.36685000E-02	-2.72756000E-02
		 2.34843000E-03	-1.01053000E-01	-1.61580000E-02
		 4.27228000E-03	-1.02934000E-01	-3.02391000E-02
		 3.33951000E-03	-7.73099000E-02	-2.74511000E-02
		 2.12740000E-03	-1.05143000E-01	-1.62451000E-02
		 2.17348000E-04	-1.09062000E-01	-2.48588000E-03
		-3.24053000E-03	-1.10292000E-01	 2.53483000E-02
		 2.12209000E-04	-1.07338000E-01	-2.45762000E-03
		-3.44567000E-03	-1.08370000E-01	 2.55420000E-02
		 1.07286000E-04	-8.04401000E-02	-1.70449000E-03
		-1.47575000E-03	-1.09612000E-01	 1.11522000E-02
		-2.38430000E-03	-8.15628000E-02	 2.39837000E-02
		 3.61460000E-03	-1.08546000E-01	-3.03938000E-02
		 3.82621000E-03	-1.06779000E-01	-3.05061000E-02
		 2.54819000E-03	-8.01601000E-02	-2.74426000E-02
		 1.90701000E-03	-1.08770000E-01	-1.61732000E-02
		 6.07691000E-04	-1.59842000E-01	-4.13378000E-03
		-3.88819000E-03	-1.60562000E-01	 2.48287000E-02
		 6.14538000E-04	-1.64416000E-01	-4.13742000E-03
		-4.03624000E-03	-1.65604000E-01	 2.48486000E-02
		 3.35829000E-04	-1.30388000E-01	-3.21813000E-03
		-1.64005000E-03	-1.60209000E-01	 1.02941000E-02
		-4.14067000E-03	-1.31338000E-01	 2.55634000E-02
		 6.11604000E-04	-1.62084000E-01	-4.13376000E-03
		-3.95463000E-03	-1.62986000E-01	 2.48552000E-02
		 3.42435000E-04	-1.34818000E-01	-3.31363000E-03
		-1.58704000E-03	-1.65007000E-01	 1.03098000E-02
		-4.01229000E-03	-1.35731000E-01	 2.56041000E-02
		 4.92458000E-03	-1.58988000E-01	-3.30978000E-02
		 4.96492000E-03	-1.63398000E-01	-3.31191000E-02
		 4.77743000E-03	-1.29648000E-01	-3.20058000E-02
		 2.76777000E-03	-1.59435000E-01	-1.85597000E-02
		 4.94726000E-03	-1.61177000E-01	-3.31243000E-02
		 4.61644000E-03	-1.34030000E-01	-3.21374000E-02
		 2.77883000E-03	-1.63900000E-01	-1.85878000E-02
		 4.92590000E-04	-1.69045000E-01	-4.14159000E-03
		-4.05976000E-03	-1.70616000E-01	 2.48259000E-02
		 5.53246000E-04	-1.66685000E-01	-4.14187000E-03
		-4.04771000E-03	-1.68582000E-01	 2.48424000E-02
		 3.31042000E-04	-1.39068000E-01	-3.42633000E-03
		-1.89488000E-03	-1.69810000E-01	 1.02853000E-02
		-3.73297000E-03	-1.39896000E-01	 2.54954000E-02
		 5.04900000E-03	-1.67888000E-01	-3.30983000E-02