<?xml version="1.0"?>
<VTKFile type="UnstructuredGrid" version="0.1" byte_order="LittleEndian">
	<UnstructuredGrid>
		<Piece NumberOfPoints="522" NumberOfCells="64">
			<Points>
				<DataArray type="Float64" NumberOfComponents="3" format="ascii">
					 1.00000000E+00	 1.00000000E+00	-5.96046000E-08
					 1.00000000E+00	 5.00000000E-01	-5.96046000E-08
					 1.00000000E+00	 5.00000000E-01	 1.00000000E+00
					 1.00000000E+00	 1.00000000E+00	 1.00000000E+00
					 5.00000000E-01	 1.00000000E+00	-5.96046000E-08
					 5.00000000E-01	 5.00000000E-01	-5.96046000E-08
					 5.00000000E-01	 5.00000000E-01	 1.00000000E+00
					 5.00000000E-01	 1.00000000E+00	 1.00000000E+00
					 1.00000000E+00	 7.50000000E-01	-5.96046000E-08
					 1.00000000E+00	 5.00000000E-01	 5.00000000E-01
					 1.00000000E+00	 7.50000000E-01	 1.00000000E+00
					 1.00000000E+00	 1.00000000E+00	 5.00000000E-01
					 7.50000000E-01	 1.00000000E+00	-5.96046000E-08
					 7.50000000E-01	 5.00000000E-01	-5.96046000E-08
					 7.50000000E-01	 5.00000000E-01	 1.00000000E+00
					 7.50000000E-01	 1.00000000E+00	 1.00000000E+00
					 5.00000000E-01	 7.50000000E-01	-5.96046000E-08
					 5.00000000E-01	 5.00000000E-01	 5.00000000E-01
					 5.00000000E-01	 7.50000000E-01	 1.00000000E+00
					 5.00000000E-01	 1.00000000E+00	 5.00000000E-01
					 1.00000000E+00	-1.49012000E-08	-5.96046000E-08
					 1.00000000E+00	-1.49012000E-08	 1.00000000E+00
					 5.00000000E-01	-1.49012000E-08	-5.96046000E-08
					 5.00000000E-01	-1.49012000E-08	 1.00000000E+00
					 1.00000000E+00	 2.50000000E-01	-5.96046000E-08
					 1.00000000E+00	-1.49012000E-08	 5.00000000E-01
					 1.00000000E+00	 2.50000000E-01	 1.00000000E+00
					 7.50000000E-01	-1.49012000E-08	-5.96046000E-08
					 7.50000000E-01	-1.49012000E-08	 1.00000000E+00
					 5.00000000E-01	 2.50000000E-01	-5.96046000E-08
					 5.00000000E-01	-1.49012000E-08	 5.00000000E-01
					 5.00000000E-01	 2.50000000E-01	 1.00000000E+00
					-7.45058000E-09	 1.00000000E+00	-5.96046000E-08
					-7.45058000E-09	 5.00000000E-01	-5.96046000E-08
					-7.45058000E-09	 5.00000000E-01	 1.00000000E+00
					-7.45058000E-09	 1.00000000E+00	 1.00000000E+00
					 2.50000000E-01	 1.00000000E+00	-5.96046000E-08
					 2.50000000E-01	 5.00000000E-01	-5.96046000E-08
					 2.50000000E-01	 5.00000000E-01	 1.00000000E+00
					 2.50000000E-01	 1.00000000E+00	 1.00000000E+00
					-7.45058000E-09	 7.50000000E-01	-5.96046000E-08
					-7.45058000E-09	 5.00000000E-01	 5.00000000E-01
					-7.45058000E-09	 7.50000000E-01	 1.00000000E+00
					-7.45058000E-09	 1.00000000E+00	 5.00000000E-01
					-7.45058000E-09	-1.49012000E-08	-5.96046000E-08
					-7.45058000E-09	-1.49012000E-08	 1.00000000E+00
					 2.50000000E-01	-1.49012000E-08	-5.96046000E-08
					 2.50000000E-01	-1.49012000E-08	 1.00000000E+00
					-7.45058000E-09	 2.50000000E-01	-5.96046000E-08
					-7.45058000E-09	-1.49012000E-08	 5.00000000E-01
					-7.45058000E-09	 2.50000000E-01	 1.00000000E+00
					 1.00000000E+00	 5.00000000E-01	 2.00000000E+00
					 1.00000000E+00	 1.00000000E+00	 2.00000000E+00
					 5.00000000E-01	 5.00000000E-01	 2.00000000E+00
					 5.00000000E-01	 1.00000000E+00	 2.00000000E+00
					 1.00000000E+00	 5.00000000E-01	 1.50000000E+00
					 1.00000000E+00	 7.50000000E-01	 2.00000000E+00
					 1.00000000E+00	 1.00000000E+00	 1.50000000E+00
					 7.50000000E-01	 5.00000000E-01	 2.00000000E+00
					 7.50000000E-01	 1.00000000E+00	 2.00000000E+00
					 5.00000000E-01	 5.00000000E-01	 1.50000000E+00
					 5.00000000E-01	 7.50000000E-01	 2.00000000E+00
					 5.00000000E-01	 1.00000000E+00	 1.50000000E+00
					 1.00000000E+00	-1.49012000E-08	 2.00000000E+00
					 5.00000000E-01	-1.49012000E-08	 2.00000000E+00
					 1.00000000E+00	-1.49012000E-08	 1.50000000E+00
					 1.00000000E+00	 2.50000000E-01	 2.00000000E+00
					 7.50000000E-01	-1.49012000E-08	 2.00000000E+00
					 5.00000000E-01	-1.49012000E-08	 1.50000000E+00
					 5.00000000E-01	 2.50000000E-01	 2.00000000E+00
					-7.45058000E-09	 5.00000000E-01	 2.00000000E+00
					-7.45058000E-09	 1.00000000E+00	 2.00000000E+00
					 2.50000000E-01	 5.00000000E-01	 2.00000000E+00
					 2.50000000E-01	 1.00000000E+00	 2.00000000E+00
					-7.45058000E-09	 5.00000000E-01	 1.50000000E+00
					-7.45058000E-09	 7.50000000E-01	 2.00000000E+00
					-7.45058000E-09	 1.00000000E+00	 1.50000000E+00
					-7.45058000E-09	-1.49012000E-08	 2.00000000E+00
					 2.50000000E-01	-1.49012000E-08	 2.00000000E+00
					-7.45058000E-09	-1.49012000E-08	 1.50000000E+00
					-7.45058000E-09	 2.50000000E-01	 2.00000000E+00
					 1.00000000E+00	 5.00000000E-01	 3.00000000E+00
					 1.00000000E+00	 1.00000000E+00	 3.00000000E+00
					 5.00000000E-01	 5.00000000E-01	 3.00000000E+00
					 5.00000000E-01	 1.00000000E+00	 3.00000000E+00
					 1.00000000E+00	 5.00000000E-01	 2.50000000E+00
					 1.00000000E+00	 7.50000000E-01	 3.00000000E+00
					 1.00000000E+00	 1.00000000E+00	 2.50000000E+00
					 7.50000000E-01	 5.00000000E-01	 3.00000000E+00
					 7.50000000E-01	 1.00000000E+00	 3.00000000E+00
					 5.00000000E-01	 5.00000000E-01	 2.50000000E+00
					 5.00000000E-01	 7.50000000E-01	 3.00000000E+00
					 5.00000000E-01	 1.00000000E+00	 2.50000000E+00
					 1.00000000E+00	-1.49012000E-08	 3.00000000E+00
					 5.00000000E-01	-1.49012000E-08	 3.00000000E+00
					 1.00000000E+00	-1.49012000E-08	 2.50000000E+00
					 1.00000000E+00	 2.50000000E-01	 3.00000000E+00
					 7.50000000E-01	-1.49012000E-08	 3.00000000E+00
					 5.00000000E-01	-1.49012000E-08	 2.50000000E+00
					 5.00000000E-01	 2.50000000E-01	 3.00000000E+00
					-7.45058000E-09	 5.00000000E-01	 3.00000000E+00
					-7.45058000E-09	 1.00000000E+00	 3.00000000E+00
					 2.50000000E-01	 5.00000000E-01	 3.00000000E+00
					 2.50000000E-01	 1.00000000E+00	 3.00000000E+00
					-7.45058000E-09	 5.00000000E-01	 2.50000000E+00
					-7.45058000E-09	 7.50000000E-01	 3.00000000E+00
					-7.45058000E-09	 1.00000000E+00	 2.50000000E+00
					-7.45058000E-09	-1.49012000E-08	 3.00000000E+00
					 2.50000000E-01	-1.49012000E-08	 3.00000000E+00
					-7.45058000E-09	-1.49012000E-08	 2.50000000E+00
					-7.45058000E-09	 2.50000000E-01	 3.00000000E+00
					 1.00000000E+00	 5.00000000E-01	 4.00000000E+00
					 1.00000000E+00	 1.00000000E+00	 4.00000000E+00
					 5.00000000E-01	 5.00000000E-01	 4.00000000E+00
					 5.00000000E-01	 1.00000000E+00	 4.00000000E+00
					 1.00000000E+00	 5.00000000E-01	 3.50000000E+00
					 1.00000000E+00	 7.50000000E-01	 4.00000000E+00
					 1.00000000E+00	 1.00000000E+00	 3.50000000E+00
					 7.50000000E-01	 5.00000000E-01	 4.00000000E+00
					 7.50000000E-01	 1.00000000E+00	 4.00000000E+00
					 5.00000000E-01	 5.00000000E-01	 3.50000000E+00
					 5.00000000E-01	 7.50000000E-01	 4.00000000E+00
					 5.00000000E-01	 1.00000000E+00	 3.50000000E+00
					 1.00000000E+00	-1.49012000E-08	 4.00000000E+00
					 5.00000000E-01	-1.49012000E-08	 4.00000000E+00
					 1.00000000E+00	-1.49012000E-08	 3.50000000E+00
					 1.00000000E+00	 2.50000000E-01	 4.00000000E+00
					 7.50000000E-01	-1.49012000E-08	 4.00000000E+00
					 5.00000000E-01	-1.49012000E-08	 3.50000000E+00
					 5.00000000E-01	 2.50000000E-01	 4.00000000E+00
					-7.45058000E-09	 5.00000000E-01	 4.00000000E+00
					-7.45058000E-09	 1.00000000E+00	 4.00000000E+00
					 2.50000000E-01	 5.00000000E-01	 4.00000000E+00
					 2.50000000E-01	 1.00000000E+00	 4.00000000E+00
					-7.45058000E-09	 5.00000000E-01	 3.50000000E+00
					-7.45058000E-09	 7.50000000E-01	 4.00000000E+00
					-7.45058000E-09	 1.00000000E+00	 3.50000000E+00
					-7.45058000E-09	-1.49012000E-08	 4.00000000E+00
					 2.50000000E-01	-1.49012000E-08	 4.00000000E+00
					-7.45058000E-09	-1.49012000E-08	 3.50000000E+00
					-7.45058000E-09	 2.50000000E-01	 4.00000000E+00
					 1.00000000E+00	 5.00000000E-01	 5.00000000E+00
					 1.00000000E+00	 1.00000000E+00	 5.00000000E+00
					 5.00000000E-01	 5.00000000E-01	 5.00000000E+00
					 5.00000000E-01	 1.00000000E+00	 5.00000000E+00
					 1.00000000E+00	 5.00000000E-01	 4.50000000E+00
					 1.00000000E+00	 7.50000000E-01	 5.00000000E+00
					 1.00000000E+00	 1.00000000E+00	 4.50000000E+00
					 7.50000000E-01	 5.00000000E-01	 5.00000000E+00
					 7.50000000E-01	 1.00000000E+00	 5.00000000E+00
					 5.00000000E-01	 5.00000000E-01	 4.50000000E+00
					 5.00000000E-01	 7.50000000E-01	 5.00000000E+00
					 5.00000000E-01	 1.00000000E+00	 4.50000000E+00
					 1.00000000E+00	-1.49012000E-08	 5.00000000E+00
					 5.00000000E-01	-1.49012000E-08	 5.00000000E+00
					 1.00000000E+00	-1.49012000E-08	 4.50000000E+00
					 1.00000000E+00	 2.50000000E-01	 5.00000000E+00
					 7.50000000E-01	-1.49012000E-08	 5.00000000E+00
					 5.00000000E-01	-1.49012000E-08	 4.50000000E+00
					 5.00000000E-01	 2.50000000E-01	 5.00000000E+00
					-7.45058000E-09	 5.00000000E-01	 5.00000000E+00
					-7.45058000E-09	 1.00000000E+00	 5.00000000E+00
					 2.50000000E-01	 5.00000000E-01	 5.00000000E+00
					 2.50000000E-01	 1.00000000E+00	 5.00000000E+00
					-7.45058000E-09	 5.00000000E-01	 4.50000000E+00
					-7.45058000E-09	 7.50000000E-01	 5.00000000E+00
					-7.45058000E-09	 1.00000000E+00	 4.50000000E+00
					-7.45058000E-09	-1.49012000E-08	 5.00000000E+00
					 2.50000000E-01	-1.49012000E-08	 5.00000000E+00
					-7.45058000E-09	-1.49012000E-08	 4.50000000E+00
					-7.45058000E-09	 2.50000000E-01	 5.00000000E+00
					 1.00000000E+00	 5.00000000E-01	 6.00000000E+00
					 1.00000000E+00	 1.00000000E+00	 6.00000000E+00
					 5.00000000E-01	 5.00000000E-01	 6.00000000E+00
					 5.00000000E-01	 1.00000000E+00	 6.00000000E+00
					 1.00000000E+00	 5.00000000E-01	 5.50000000E+00
					 1.00000000E+00	 7.50000000E-01	 6.00000000E+00
					 1.00000000E+00	 1.00000000E+00	 5.50000000E+00
					 7.50000000E-01	 5.00000000E-01	 6.00000000E+00
					 7.50000000E-01	 1.00000000E+00	 6.00000000E+00
					 5.00000000E-01	 5.00000000E-01	 5.50000000E+00
					 5.00000000E-01	 7.50000000E-01	 6.00000000E+00
					 5.00000000E-01	 1.00000000E+00	 5.50000000E+00
					 1.00000000E+00	-1.49012000E-08	 6.00000000E+00
[...]
			<PointData>
				<DataArray type="Float32" Name="U" NumberOfComponents="3" ComponentName0="D1" ComponentName1="D2" ComponentName2="D3" format="ascii">
					 0.00000000E+00	 0.00000000E+00	 0.00000000E+00
					 0.00000000E+00	 0.00000000E+00	 0.00000000E+00
					 2.16347000E-05	 4.18376000E-03	-6.26751000E-05
					 8.77468000E-04	 4.32957000E-03	-4.12547000E-03
					 0.00000000E+00	 0.00000000E+00	 0.00000000E+00
					 0.00000000E+00	 0.00000000E+00	 0.00000000E+00
					-3.25398000E-05	 4.75687000E-03	-8.08234000E-05
					 2.99916000E-04	 4.95096000E-03	-4.14954000E-03
					 0.00000000E+00	 0.00000000E+00	 0.00000000E+00
					 1.55103000E-05	 8.13032000E-04	-2.94599000E-05
					 3.79263000E-04	 4.17430000E-03	-2.00419000E-03
					 8.96784000E-04	 1.07459000E-03	-2.10914000E-03
					 0.00000000E+00	 0.00000000E+00	 0.00000000E+00
					 0.00000000E+00	 0.00000000E+00	 0.00000000E+00
					-6.39171000E-06	 4.57563000E-03	-1.93268000E-05
					 5.85861000E-04	 4.79438000E-03	-4.15846000E-03
					 0.00000000E+00	 0.00000000E+00	 0.00000000E+00
					 1.26741000E-05	 1.30495000E-03	-1.94850000E-05
					 1.29247000E-04	 4.76921000E-03	-2.05777000E-03
					 2.08475000E-04	 1.65918000E-03	-2.07616000E-03
					 0.00000000E+00	 0.00000000E+00	 0.00000000E+00
					-9.38460000E-04	 4.33461000E-03	 4.07552000E-03
					 0.00000000E+00	 0.00000000E+00	 0.00000000E+00
					-3.34153000E-04	 4.98107000E-03	 4.05747000E-03
					 0.00000000E+00	 0.00000000E+00	 0.00000000E+00
					-8.79381000E-04	 1.06186000E-03	 2.08484000E-03
					-4.00268000E-04	 4.20093000E-03	 1.91421000E-03
					 0.00000000E+00	 0.00000000E+00	 0.00000000E+00
					-6.19925000E-04	 4.82897000E-03	 4.04831000E-03
					 0.00000000E+00	 0.00000000E+00	 0.00000000E+00
					-1.99861000E-04	 1.62416000E-03	 2.01929000E-03
					-1.57300000E-04	 4.77010000E-03	 1.90542000E-03
					 0.00000000E+00	 0.00000000E+00	 0.00000000E+00
					 0.00000000E+00	 0.00000000E+00	 0.00000000E+00
					-6.32064000E-05	 4.91370000E-03	-1.06154000E-04
					-1.34163000E-04	 5.11302000E-03	-4.25468000E-03
					 0.00000000E+00	 0.00000000E+00	 0.00000000E+00
					 0.00000000E+00	 0.00000000E+00	 0.00000000E+00
					-3.29551000E-05	 4.91481000E-03	-8.02537000E-05
					 6.55672000E-05	 5.08934000E-03	-4.17785000E-03
					 0.00000000E+00	 0.00000000E+00	 0.00000000E+00
					-1.56504000E-05	 1.21817000E-03	-6.81100000E-05
					-1.22104000E-04	 4.91391000E-03	-2.05297000E-03
					-3.94705000E-04	 1.56402000E-03	-2.18737000E-03
					 0.00000000E+00	 0.00000000E+00	 0.00000000E+00
					 1.52497000E-04	 5.09463000E-03	 3.96121000E-03
					 0.00000000E+00	 0.00000000E+00	 0.00000000E+00
					-1.07022000E-04	 5.12572000E-03	 4.02166000E-03
					 0.00000000E+00	 0.00000000E+00	 0.00000000E+00
					 4.40217000E-04	 1.56937000E-03	 2.06224000E-03
					 7.47724000E-05	 4.91367000E-03	 1.85369000E-03
					-2.52533000E-05	 1.63988000E-02	-4.72160000E-05
					 8.50889000E-06	 1.65673000E-02	-6.52013000E-03
					-2.44660000E-05	 1.64313000E-02	-7.75580000E-05
					-1.85820000E-04	 1.63937000E-02	-6.58655000E-03
					-3.90022000E-05	 9.66089000E-03	-1.17797000E-05
					 5.65375000E-05	 1.64314000E-02	-3.23141000E-03
					 5.04418000E-04	 9.77207000E-03	-5.53433000E-03
					-4.24669000E-05	 1.64172000E-02	-5.83021000E-05
					-7.75862000E-05	 1.64759000E-02	-6.65500000E-03
					-2.80180000E-05	 9.98984000E-03	-8.10990000E-05
					-1.04624000E-04	 1.63956000E-02	-3.28255000E-03
					 1.17971000E-04	 1.01745000E-02	-5.57686000E-03
					-3.52292000E-05	 1.67189000E-02	 6.41237000E-03
					 1.58478000E-04	 1.66011000E-02	 6.41616000E-03
					-5.48866000E-04	 9.90027000E-03	 5.42985000E-03
					-1.10730000E-04	 1.65362000E-02	 3.11786000E-03
					 7.24726000E-05	 1.65546000E-02	 6.47322000E-03
					-1.76802000E-04	 1.02167000E-02	 5.43022000E-03
					 4.76656000E-05	 1.64844000E-02	 3.14166000E-03
					 1.66409000E-06	 1.60904000E-02	-1.14374000E-04
					-4.56858000E-04	 1.61729000E-02	-6.58082000E-03
					 1.54105000E-05	 1.62936000E-02	-1.06695000E-04
					-3.51531000E-04	 1.63221000E-02	-6.57049000E-03
					-2.74996000E-05	 9.96402000E-03	-1.01282000E-04
					-2.35719000E-04	 1.60618000E-02	-3.38287000E-03
					-2.42785000E-04	 1.01274000E-02	-5.56611000E-03
					 2.89205000E-04	 1.63555000E-02	 6.34524000E-03
					 2.14695000E-04	 1.64327000E-02	 6.35411000E-03
					 1.27421000E-04	 1.02551000E-02	 5.35284000E-03
					 1.80274000E-04	 1.62001000E-02	 3.13564000E-03
					-7.06860000E-05	 3.12792000E-02	-1.93475000E-04
					-1.42080000E-04	 3.14369000E-02	-8.38002000E-03
					-6.61983000E-05	 3.11321000E-02	-2.30092000E-04
					-3.80174000E-04	 3.11510000E-02	-8.38568000E-03
					-2.69490000E-05	 2.35418000E-02	-1.07677000E-04
					-4.88715000E-05	 3.12890000E-02	-4.32268000E-03
					-2.27695000E-04	 2.36934000E-02	-7.46653000E-03
					-5.75046000E-05	 3.12471000E-02	-2.30280000E-04
					-2.58734000E-04	 3.13152000E-02	-8.30746000E-03
					-6.23855000E-05	 2.33176000E-02	-1.22550000E-04
					-1.94800000E-04	 3.11204000E-02	-4.31577000E-03
					-3.50493000E-04	 2.34377000E-02	-7.47429000E-03
					-2.75566000E-05	 3.14285000E-02	 7.92579000E-03
					 2.35331000E-04	 3.12467000E-02	 7.92784000E-03
					 9.77322000E-05	 2.37759000E-02	 7.18542000E-03
					-5.89539000E-05	 3.13042000E-02	 3.91058000E-03
					 7.00668000E-05	 3.13862000E-02	 7.88237000E-03
					 2.56263000E-04	 2.35070000E-02	 7.16899000E-03
					 9.22332000E-05	 3.11536000E-02	 3.87587000E-03
					-7.55956000E-05	 3.06766000E-02	-2.08884000E-04
					-6.61025000E-04	 3.07717000E-02	-8.42721000E-03
					-8.58576000E-05	 3.09247000E-02	-2.22582000E-04
					-4.95605000E-04	 3.10179000E-02	-8.47318000E-03
					-6.18131000E-05	 2.29203000E-02	-1.33456000E-04
					-3.71783000E-04	 3.06891000E-02	-4.28176000E-03
					-5.89886000E-04	 2.29620000E-02	-7.47903000E-03
					 5.48472000E-04	 3.07484000E-02	 7.85372000E-03
					 4.01440000E-04	 3.10744000E-02	 7.93269000E-03
					 4.68411000E-04	 2.30678000E-02	 7.17383000E-03
					 2.07603000E-04	 3.07095000E-02	 3.77475000E-03
					-7.56047000E-05	 4.91162000E-02	-4.13266000E-04
					 3.29010000E-04	 4.89618000E-02	-1.00238000E-02
					-5.65108000E-05	 4.93150000E-02	-4.47725000E-04
					 9.56828000E-05	 4.93217000E-02	-1.01183000E-02
					-6.00317000E-05	 3.97749000E-02	-3.47345000E-04
					 6.04446000E-05	 4.90707000E-02	-5.13629000E-03
					 1.50012000E-04	 3.97968000E-02	-9.25618000E-03
					-6.18053000E-05	 4.92720000E-02	-4.17771000E-04
					 1.95134000E-04	 4.92356000E-02	-1.01101000E-02
					-3.59024000E-05	 3.97964000E-02	-3.64050000E-04
					-2.22831000E-06	 4.92722000E-02	-5.23218000E-03
					-1.26930000E-04	 3.98220000E-02	-9.34023000E-03
					-4.35089000E-04	 4.92342000E-02	 9.20004000E-03
					-2.02590000E-04	 4.95007000E-02	 9.20304000E-03
					-2.56637000E-04	 3.98857000E-02	 8.68245000E-03
					-1.93347000E-04	 4.91828000E-02	 4.31195000E-03
					-3.14780000E-04	 4.94186000E-02	 9.22052000E-03
					 2.19508000E-05	 3.99693000E-02	 8.65786000E-03
					-1.31927000E-04	 4.94160000E-02	 4.32025000E-03
					-1.99141000E-05	 4.93377000E-02	-5.00541000E-04
					-9.17720000E-05	 4.94061000E-02	-1.00697000E-02
					-4.38751000E-05	 4.93818000E-02	-4.70914000E-04
					 1.22300000E-05	 4.93194000E-02	-1.00758000E-02
					-5.55720000E-05	 3.96304000E-02	-3.77927000E-04
					-1.16636000E-04	 4.93816000E-02	-5.24090000E-03
					-2.93312000E-04	 3.97626000E-02	-9.31737000E-03
					 2.73724000E-06	 4.96811000E-02	 9.15865000E-03
					-8.65622000E-05	 4.95398000E-02	 9.21443000E-03
					 2.05687000E-04	 3.98619000E-02	 8.58410000E-03
					 1.25024000E-05	 4.94389000E-02	 4.26954000E-03
					-9.64194000E-05	 7.07008000E-02	-6.14066000E-04
					-1.07224000E-03	 7.05380000E-02	-1.02794000E-02
					-1.49535000E-04	 6.98593000E-02	-5.84587000E-04
					-8.93401000E-04	 6.96687000E-02	-1.02668000E-02
					-1.22601000E-04	 5.98465000E-02	-4.97572000E-04
					-5.87430000E-04	 7.06121000E-02	-5.29576000E-03
					-3.06693000E-04	 5.96934000E-02	-1.03949000E-02
					-1.24139000E-04	 7.02249000E-02	-6.05606000E-04
					-9.80938000E-04	 7.00823000E-02	-1.03569000E-02
					-1.07683000E-04	 5.95937000E-02	-5.12245000E-04
					-5.19777000E-04	 6.98074000E-02	-5.37001000E-03
					-3.70906000E-04	 5.94739000E-02	-1.04423000E-02
					 9.38552000E-04	 7.08121000E-02	 9.06996000E-03
					 6.39580000E-04	 6.98059000E-02	 9.11520000E-03
					 9.51528000E-05	 5.99025000E-02	 9.40025000E-03
					 3.58160000E-04	 7.07598000E-02	 4.04379000E-03
					 7.82787000E-04	 7.02884000E-02	 9.20165000E-03
					 1.75136000E-04	 5.97006000E-02	 9.40953000E-03
					 2.62524000E-04	 6.98546000E-02	 4.20272000E-03
					-1.50153000E-04	 6.91837000E-02	-5.39661000E-04
					-6.90791000E-04	 6.89952000E-02	-1.02023000E-02
					-1.30195000E-04	 6.94539000E-02	-5.90193000E-04
					-8.21934000E-04	 6.93035000E-02	-1.01549000E-02
					-9.16143000E-05	 5.93160000E-02	-5.33054000E-04
					-4.28089000E-04	 6.90627000E-02	-5.46452000E-03
					-3.49235000E-04	 5.92467000E-02	-1.04130000E-02
					 4.35764000E-04	 6.92202000E-02	 9.11675000E-03
					 5.28845000E-04	 6.95084000E-02	 8.98468000E-03
					 1.12216000E-04	 5.95017000E-02	 9.39779000E-03
					 1.53937000E-04	 6.92388000E-02	 4.34624000E-03
					-1.45882000E-04	 9.01227000E-02	-8.16561000E-04
					-2.37294000E-03	 8.99711000E-02	-9.21195000E-03
					-1.29386000E-04	 8.79361000E-02	-8.25581000E-04
					-2.24631000E-03	 8.78368000E-02	-9.15826000E-03
					-9.16247000E-05	 8.08595000E-02	-6.89814000E-04
					-1.29614000E-03	 9.00929000E-02	-4.94415000E-03
					-1.78531000E-03	 8.06351000E-02	-9.73126000E-03
					-1.25009000E-04	 8.89744000E-02	-8.18795000E-04
					-2.30601000E-03	 8.88383000E-02	-9.23747000E-03
					-9.97452000E-05	 7.92689000E-02	-7.06413000E-04
					-1.17264000E-03	 8.79041000E-02	-5.01460000E-03
					-1.60274000E-03	 7.91228000E-02	-9.75973000E-03
					 2.23884000E-03	 9.02157000E-02	 7.47781000E-03
					 2.04989000E-03	 8.78026000E-02	 7.47015000E-03
					 1.60862000E-03	 8.08390000E-02	 8.27417000E-03
					 1.05179000E-03	 9.01801000E-02	 3.28372000E-03
					 2.13307000E-03	 8.89696000E-02	 7.50353000E-03
					 1.38697000E-03	 7.92664000E-02	 8.30769000E-03
					 9.20811000E-04	 8.78884000E-02	 3.36109000E-03
					-1.10939000E-04	 8.59007000E-02	-7.92842000E-04
					-2.10307000E-03	 8.58025000E-02	-9.18575000E-03
					-1.41979000E-04	 8.68881000E-02	-7.99919000E-04
					-2.14290000E-03	 8.67119000E-02	-9.07930000E-03
					-1.11748000E-04	 7.78792000E-02	-6.82211000E-04
					-1.07261000E-03	 8.59192000E-02	-5.07037000E-03
					-1.42302000E-03	 7.77111000E-02	-9.71972000E-03
					 1.76685000E-03	 8.58958000E-02	 7.48902000E-03
					 1.90607000E-03	 8.68051000E-02	 7.42938000E-03
					 1.16805000E-03	 7.78368000E-02	 8.30455000E-03
					 8.39361000E-04	 8.58936000E-02	 3.43698000E-03
					-2.10514000E-04	 1.05446000E-01	-1.17773000E-03
					-2.66348000E-03	 1.05355000E-01	-8.30761000E-03
					-6.61767000E-05	 1.02981000E-01	-1.03012000E-03
					-2.63157000E-03	 1.02814000E-01	-8.14215000E-03
					-9.17292000E-05	 9.82354000E-02	-1.04809000E-03
					-1.37956000E-03	 1.05402000E-01	-4.71595000E-03
					-2.76007000E-03	 9.80937000E-02	-8.70440000E-03
					-1.48884000E-04	 1.04186000E-01	-1.06210000E-03
					-2.64887000E-03	 1.04044000E-01	-8.26010000E-03
					-1.22609000E-04	 9.56646000E-02	-9.35518000E-04
					-1.38747000E-03	 1.02874000E-01	-4.66583000E-03
					-2.52261000E-03	 9.55421000E-02	-8.51184000E-03
					 2.66968000E-03	 1.05732000E-01	 6.01967000E-03
					 2.51913000E-03	 1.02814000E-01	 6.31315000E-03
					 2.53529000E-03	 9.81547000E-02	 6.64942000E-03
					 1.18194000E-03	 1.05611000E-01	 2.51752000E-03
					 2.58597000E-03	 1.04212000E-01	 6.21972000E-03
					 2.29881000E-03	 9.56482000E-02	 6.79215000E-03
					 1.23997000E-03	 1.02925000E-01	 2.60546000E-03
					 7.04149000E-05	 1.00278000E-01	-1.06663000E-03
					-2.69087000E-03	 1.00122000E-01	-7.96897000E-03
					 8.61241000E-06	 1.01629000E-01	-9.61342000E-04
					-2.69135000E-03	 1.01546000E-01	-8.05501000E-03
					-9.58036000E-05	 9.33637000E-02	-9.15555000E-04
					-1.34027000E-03	 1.00230000E-01	-4.56833000E-03
					-2.26855000E-03	 9.32610000E-02	-8.53048000E-03
					 2.58955000E-03	 1.00344000E-01	 6.31111000E-03
					 2.57009000E-03	 1.01604000E-01	 6.22917000E-03
					 2.18410000E-03	 9.32714000E-02	 6.83995000E-03
					 1.28819000E-03	 1.00351000E-01	 2.72550000E-03
					-6.72688000E-04	 1.19336000E-01	-7.98021000E-04
					-1.89922000E-03	 1.19248000E-01	-8.93600000E-03
					-6.64566000E-05	 1.16727000E-01	-8.04018000E-04
					-2.90601000E-03	 1.17209000E-01	-8.46814000E-03
					-1.04368000E-04	 1.12350000E-01	-1.01173000E-03
					-1.37462000E-03	 1.19267000E-01	-4.89380000E-03
					-2.74371000E-03	 1.12239000E-01	-8.29565000E-03
					-3.75752000E-04	 1.18136000E-01	-1.01384000E-03
					-2.42408000E-03	 1.18434000E-01	-8.49849000E-03
					-1.41565000E-04	 1.09792000E-01	-9.08555000E-04
					-1.41804000E-03	 1.17064000E-01	-4.51924000E-03
					-2.73080000E-03	 1.09615000E-01	-8.18739000E-03
					 1.97427000E-03	 1.19705000E-01	 6.56916000E-03
					 2.36665000E-03	 1.15925000E-01	 5.26163000E-03
					 2.66187000E-03	 1.12597000E-01	 6.14826000E-03
					 6.00207000E-04	 1.19460000E-01	 2.79772000E-03
					 2.14486000E-03	 1.17791000E-01	 5.79918000E-03
					 2.57782000E-03	 1.09894000E-01	 5.77649000E-03
					 1.14378000E-03	 1.16345000E-01	 2.41954000E-03
					 6.35766000E-04	 1.13659000E-01	-2.55143000E-04
					-2.79255000E-03	 1.13965000E-01	-7.98890000E-03
					 3.14352000E-04	 1.15178000E-01	-7.98638000E-04
					-2.88247000E-03	 1.15538000E-01	-8.14032000E-03
					-1.88858000E-04	 1.07150000E-01	-7.72080000E-04
					-1.07047000E-03	 1.13702000E-01	-4.09682000E-03
					-2.68288000E-03	 1.06989000E-01	-7.89803000E-03
					 2.27778000E-03	 1.13924000E-01	 5.62489000E-03
					 2.32664000E-03	 1.14863000E-01	 5.62510000E-03
					 2.56754000E-03	 1.07216000E-01	 5.91593000E-03
					 1.47316000E-03	 1.13810000E-01	 2.67038000E-03
					 0.00000000E+00	 0.00000000E+00	 0.00000000E+00
					 0.00000000E+00	 0.00000000E+00	 0.00000000E+00
					 4.78578000E-05	-8.51450000E-03	 1.68749000E-05
					-3.56258000E-03	-9.14843000E-03	 1.06740000E-02
					 0.00000000E+00	 0.00000000E+00	 0.00000000E+00
					 0.00000000E+00	 0.00000000E+00	 0.00000000E+00
					 1.31283000E-04	-1.11499000E-02	-6.10388000E-05
					-1.94642000E-03	-1.20428000E-02	 1.06865000E-02
					 0.00000000E+00	 0.00000000E+00	 0.00000000E+00
					 2.48922000E-05	-1.06831000E-03	 4.47110000E-05
					-1.62683000E-03	-8.61917000E-03	 5.36190000E-03
					-2.64705000E-03	-1.95325000E-03	 5.28996000E-03
					 0.00000000E+00	 0.00000000E+00	 0.00000000E+00
					 0.00000000E+00	 0.00000000E+00	 0.00000000E+00
					 8.98149000E-05	-1.01035000E-02	 3.41404000E-05
					-2.72586000E-03	-1.09645000E-02	 1.04988000E-02
					 0.00000000E+00	 0.00000000E+00	 0.00000000E+00
					 4.15006000E-05	-2.81467000E-03	-9.10720000E-06
					-8.77407000E-04	-1.13289000E-02	 5.19503000E-03
					-9.50675000E-04	-3.73466000E-03	 5.09115000E-03
					 0.00000000E+00	 0.00000000E+00	 0.00000000E+00
					 3.57168000E-03	-8.95284000E-03	-1.05180000E-02
					 0.00000000E+00	 0.00000000E+00	 0.00000000E+00
					 1.95251000E-03	-1.17976000E-02	-1.06644000E-02
					 0.00000000E+00	 0.00000000E+00	 0.00000000E+00
					 2.80491000E-03	-1.74848000E-03	-5.19560000E-03
					 1.66673000E-03	-8.51734000E-03	-5.28116000E-03
					 0.00000000E+00	 0.00000000E+00	 0.00000000E+00
					 2.73557000E-03	-1.07706000E-02	-1.04955000E-02
					 0.00000000E+00	 0.00000000E+00	 0.00000000E+00
					 1.07605000E-03	-3.68702000E-03	-5.05353000E-03
					 1.06396000E-03	-1.12254000E-02	-5.27371000E-03
					 0.00000000E+00	 0.00000000E+00	 0.00000000E+00
					 0.00000000E+00	 0.00000000E+00	 0.00000000E+00
					 1.07305000E-04	-1.25139000E-02	-6.22198000E-05
					-3.66428000E-04	-1.32516000E-02	 1.04454000E-02
					 0.00000000E+00	 0.00000000E+00	 0.00000000E+00
					 0.00000000E+00	 0.00000000E+00	 0.00000000E+00
					 1.41665000E-04	-1.20845000E-02	-6.69730000E-05
					-1.17662000E-03	-1.29122000E-02	 1.07018000E-02
					 0.00000000E+00	 0.00000000E+00	 0.00000000E+00
					 7.18396000E-05	-3.07969000E-03	 1.01677000E-05
					-1.56295000E-04	-1.26372000E-02	 4.94305000E-03
					 7.51166000E-04	-3.96586000E-03	 5.24301000E-03
					 0.00000000E+00	 0.00000000E+00	 0.00000000E+00
					 7.12398000E-04	-1.29536000E-02	-1.07501000E-02
					 0.00000000E+00	 0.00000000E+00	 0.00000000E+00
					 1.31912000E-03	-1.25627000E-02	-1.08121000E-02
					 0.00000000E+00	 0.00000000E+00	 0.00000000E+00
					-5.11793000E-04	-3.93432000E-03	-5.30851000E-03
					 3.39398000E-04	-1.24661000E-02	-5.13705000E-03
					 1.45523000E-04	-3.92787000E-02	-3.05212000E-04
					-3.71216000E-03	-4.04249000E-02	 1.87579000E-02
					 1.38743000E-04	-4.27425000E-02	-4.49698000E-04
					-2.75584000E-03	-4.36312000E-02	 1.86572000E-02
					 8.12006000E-05	-2.16959000E-02	-4.60225000E-05
					-1.86532000E-03	-3.97338000E-02	 9.16766000E-03
					-3.77512000E-03	-2.25484000E-02	 1.51071000E-02
					 1.31203000E-04	-4.11135000E-02	-3.59002000E-04
					-3.22267000E-03	-4.20501000E-02	 1.87031000E-02
					 8.23607000E-05	-2.48393000E-02	-1.78522000E-04
					-1.33975000E-03	-4.30587000E-02	 9.01457000E-03
					-2.37187000E-03	-2.57711000E-02	 1.50728000E-02
					 3.97708000E-03	-3.95411000E-02	-1.93723000E-02
					 2.94044000E-03	-4.26953000E-02	-1.95288000E-02
					 3.94865000E-03	-2.19640000E-02	-1.52555000E-02
					 2.11283000E-03	-3.92581000E-02	-9.79152000E-03
					 3.48478000E-03	-4.11990000E-02	-1.94923000E-02
					 2.58581000E-03	-2.52323000E-02	-1.54022000E-02
					 1.54566000E-03	-4.26303000E-02	-9.89010000E-03
					 6.27285000E-05	-4.50501000E-02	-6.55160000E-04
					-1.77664000E-03	-4.59526000E-02	 1.84006000E-02
					 1.36137000E-04	-4.40257000E-02	-5.57547000E-04
					-2.28513000E-03	-4.48508000E-02	 1.85913000E-02
					 1.26273000E-04	-2.66655000E-02	-2.56816000E-04
					-8.18719000E-04	-4.53940000E-02	 8.78355000E-03
					-1.13753000E-03	-2.75925000E-02	 1.48519000E-02
					 1.89411000E-03	-4.51386000E-02	-1.97085000E-02
					 2.36996000E-03	-4.40302000E-02	-1.97200000E-02
					 1.36262000E-03	-2.71344000E-02	-1.54898000E-02
					 9.41851000E-04	-4.49254000E-02	-1.00263000E-02
					 2.38682000E-05	-8.37821000E-02	-1.10495000E-03
					-4.86995000E-03	-8.47156000E-02	 2.38431000E-02
					 4.99557000E-05	-8.82136000E-02	-1.48278000E-03
					-4.15049000E-03	-8.92763000E-02	 2.35996000E-02
					 6.32878000E-05	-6.02027000E-02	-6.17123000E-04
					-2.46579000E-03	-8.41251000E-02	 1.14671000E-02
					-4.05919000E-03	-6.12946000E-02	 2.16292000E-02
					 6.31591000E-05	-8.60874000E-02	-1.33923000E-03
					-4.55721000E-03	-8.70665000E-02	 2.35583000E-02
					 4.51290000E-05	-6.39182000E-02	-8.80232000E-04
					-2.07824000E-03	-8.86560000E-02	 1.10135000E-02
					-3.27500000E-03	-6.49350000E-02	 2.14388000E-02
					 4.81517000E-03	-8.34598000E-02	-2.62961000E-02
					 4.03635000E-03	-8.78397000E-02	-2.66658000E-02
					 4.22495000E-03	-6.00980000E-02	-2.30405000E-02
					 2.45979000E-03	-8.34910000E-02	-1.37847000E-02
					 4.41373000E-03	-8.57952000E-02	-2.62698000E-02
					 3.42252000E-03	-6.38755000E-02	-2.32620000E-02
					 2.06677000E-03	-8.79369000E-02	-1.39893000E-02
					-5.17286000E-05	-9.18984000E-02	-1.62289000E-03
					-3.41414000E-03	-9.29119000E-02	 2.32901000E-02
					-2.84702000E-05	-9.01540000E-02	-1.56005000E-03
					-3.77033000E-03	-9.11492000E-02	 2.36377000E-02
					 7.55473000E-05	-6.68533000E-02	-1.07372000E-03
					-1.74399000E-03	-9.23309000E-02	 1.05359000E-02
					-2.46263000E-03	-6.78437000E-02	 2.12011000E-02
					 3.23059000E-03	-9.16062000E-02	-2.68537000E-02
					 3.67652000E-03	-8.98770000E-02	-2.69662000E-02
					 2.47615000E-03	-6.67046000E-02	-2.33994000E-02
					 1.62822000E-03	-9.16804000E-02	-1.40004000E-02
					-2.16108000E-06	-1.37256000E-01	-2.57622000E-03
					-6.73745000E-03	-1.38077000E-01	 2.61333000E-02