# vtk DataFile Version 3.0

ASCII
DATASET UNSTRUCTURED_GRID

POINTS 522 double
	 1.00000000E+00	 1.00000000E+00	-5.96046000E-08
	 1.00000000E+00	 5.00000000E-01	-5.96046000E-08
	 1.00000000E+00	 5.00000000E-01	 1.00000000E+00
	 1.00000000E+00	 1.00000000E+00	 1.00000000E+00
	 5.00000000E-01	 1.00000000E+00	-5.96046000E-08
	 5.00000000E-01	 5.00000000E-01	-5.96046000E-08
	 5.00000000E-01	 5.00000000E-01	 1.00000000E+00
	 5.00000000E-01	 1.00000000E+00	 1.00000000E+00
	 1.00000000E+00	 7.50000000E-01	-5.96046000E-08
	 1.00000000E+00	 5.00000000E-01	 5.00000000E-01
	 1.00000000E+00	 7.50000000E-01	 1.00000000E+00
	 1.00000000E+00	 1.00000000E+00	 5.00000000E-01
	 7.50000000E-01	 1.00000000E+00	-5.96046000E-08
	 7.50000000E-01	 5.00000000E-01	-5.96046000E-08
	 7.50000000E-01	 5.00000000E-01	 1.00000000E+00
	 7.50000000E-01	 1.00000000E+00	 1.00000000E+00
	 5.00000000E-01	 7.50000000E-01	-5.96046000E-08
	 5.00000000E-01	 5.00000000E-01	 5.00000000E-01
	 5.00000000E-01	 7.50000000E-01	 1.00000000E+00
	 5.00000000E-01	 1.00000000E+00	 5.00000000E-01
	 1.00000000E+00	-1.49012000E-08	-5.96046000E-08
	 1.00000000E+00	-1.49012000E-08	 1.00000000E+00
	 5.00000000E-01	-1.49012000E-08	-5.96046000E-08
	 5.00000000E-01	-1.49012000E-08	 1.00000000E+00
	 1.00000000E+00	 2.50000000E-01	-5.96046000E-08
	 1.00000000E+00	-1.49012000E-08	 5.00000000E-01
	 1.00000000E+00	 2.50000000E-01	 1.00000000E+00
	 7.50000000E-01	-1.49012000E-08	-5.96046000E-08
	 7.50000000E-01	-1.49012000E-08	 1.00000000E+00
	 5.00000000E-01	 2.50000000E-01	-5.96046000E-08
	 5.00000000E-01	-1.49012000E-08	 5.00000000E-01
	 5.00000000E-01	 2.50000000E-01	 1.00000000E+00
	-7.45058000E-09	 1.00000000E+00	-5.96046000E-08
	-7.45058000E-09	 5.00000000E-01	-5.96046000E-08
	-7.45058000E-09	 5.00000000E-01	 1.00000000E+00
	-7.45058000E-09	 1.00000000E+00	 1.00000000E+00
	 2.50000000E-01	 1.00000000E+00	-5.96046000E-08
	 2.50000000E-01	 5.00000000E-01	-5.96046000E-08
	 2.50000000E-01	 5.00000000E-01	 1.00000000E+00
	 2.50000000E-01	 1.00000000E+00	 1.00000000E+00
	-7.45058000E-09	 7.50000000E-01	-5.96046000E-08
	-7.45058000E-09	 5.00000000E-01	 5.00000000E-01
	-7.45058000E-09	 7.50000000E-01	 1.00000000E+00
	-7.45058000E-09	 1.00000000E+00	 5.00000000E-01
	-7.45058000E-09	-1.49012000E-08	-5.96046000E-08
	-7.45058000E-09	-1.49012000E-08	 1.00000000E+00
	 2.50000000E-01	-1.49012000E-08	-5.96046000E-08
	 2.50000000E-01	-1.49012000E-08	 1.00000000E+00
	-7.45058000E-09	 2.50000000E-01	-5.96046000E-08
	-7.45058000E-09	-1.49012000E-08	 5.00000000E-01
	-7.45058000E-09	 2.50000000E-01	 1.00000000E+00
	 1.00000000E+00	 5.00000000E-01	 2.00000000E+00
	 1.00000000E+00	 1.00000000E+00	 2.00000000E+00
	 5.00000000E-01	 5.00000000E-01	 2.00000000E+00
	 5.00000000E-01	 1.00000000E+00	 2.00000000E+00
	 1.00000000E+00	 5.00000000E-01	 1.50000000E+00
	 1.00000000E+00	 7.50000000E-01	 2.00000000E+00
	 1.00000000E+00	 1.00000000E+00	 1.50000000E+00
	 7.50000000E-01	 5.00000000E-01	 2.00000000E+00
	 7.50000000E-01	 1.00000000E+00	 2.00000000E+00
	 5.00000000E-01	 5.00000000E-01	 1.50000000E+00
	 5.00000000E-01	 7.50000000E-01	 2.00000000E+00
	 5.00000000E-01	 1.00000000E+00	 1.50000000E+00
	 1.00000000E+00	-1.49012000E-08	 2.00000000E+00
	 5.00000000E-01	-1.49012000E-08	 2.00000000E+00
	 1.00000000E+00	-1.49012000E-08	 1.50000000E+00
	 1.00000000E+00	 2.50000000E-01	 2.00000000E+00
	 7.50000000E-01	-1.49012000E-08	 2.00000000E+00
	 5.00000000E-01	-1.49012000E-08	 1.50000000E+00
	 5.00000000E-01	 2.50000000E-01	 2.00000000E+00
	-7.45058000E-09	 5.00000000E-01	 2.00000000E+00
	-7.45058000E-09	 1.00000000E+00	 2.00000000E+00
	 2.50000000E-01	 5.00000000E-01	 2.00000000E+00
	 2.50000000E-01	 1.00000000E+00	 2.00000000E+00
	-7.45058000E-09	 5.00000000E-01	 1.50000000E+00
	-7.45058000E-09	 7.50000000E-01	 2.00000000E+00
	-7.45058000E-09	 1.00000000E+00	 1.50000000E+00
	-7.45058000E-09	-1.49012000E-08	 2.00000000E+00
	 2.50000000E-01	-1.49012000E-08	 2.00000000E+00
	-7.45058000E-09	-1.49012000E-08	 1.50000000E+00
	-7.45058000E-09	 2.50000000E-01	 2.00000000E+00
	 1.00000000E+00	 5.00000000E-01	 3.00000000E+00
	 1.00000000E+00	 1.00000000E+00	 3.00000000E+00
	 5.00000000E-01	 5.00000000E-01	 3.00000000E+00
	 5.00000000E-01	 1.00000000E+00	 3.00000000E+00
	 1.00000000E+00	 5.00000000E-01	 2.50000000E+00
	 1.00000000E+00	 7.50000000E-01	 3.00000000E+00
	 1.00000000E+00	 1.00000000E+00	 2.50000000E+00
	 7.50000000E-01	 5.00000000E-01	 3.00000000E+00
	 7.50000000E-01	 1.00000000E+00	 3.00000000E+00
	 5.00000000E-01	 5.00000000E-01	 2.50000000E+00
	 5.00000000E-01	 7.50000000E-01	 3.00000000E+00
	 5.00000000E-01	 1.00000000E+00	 2.50000000E+00
	 1.00000000E+00	-1.49012000E-08	 3.00000000E+00
	 5.00000000E-01	-1.49012000E-08	 3.00000000E+00
	 1.00000000E+00	-1.49012000E-08	 2.50000000E+00
	 1.00000000E+00	 2.50000000E-01	 3.00000000E+00
	 7.50000000E-01	-1.49012000E-08	 3.00000000E+00
	 5.00000000E-01	-1.49012000E-08	 2.50000000E+00
	 5.00000000E-01	 2.50000000E-01	 3.00000000E+00
	-7.45058000E-09	 5.00000000E-01	 3.00000000E+00
	-7.45058000E-09	 1.00000000E+00	 3.00000000E+00
	 2.50000000E-01	 5.00000000E-01	 3.00000000E+00
	 2.50000000E-01	 1.00000000E+00	 3.00000000E+00
	-7.45058000E-09	 5.00000000E-01	 2.50000000E+00
	-7.45058000E-09	 7.50000000E-01	 3.00000000E+00
	-7.45058000E-09	 1.00000000E+00	 2.50000000E+00
	-7.45058000E-09	-1.49012000E-08	 3.00000000E+00
	 2.50000000E-01	-1.49012000E-08	 3.00000000E+00
	-7.45058000E-09	-1.49012000E-08	 2.50000000E+00
	-7.45058000E-09	 2.50000000E-01	 3.00000000E+00
	 1.00000000E+00	 5.00000000E-01	 4.00000000E+00
	 1.00000000E+00	 1.00000000E+00	 4.00000000E+00
	 5.00000000E-01	 5.00000000E-01	 4.00000000E+00
	 5.00000000E-01	 1.00000000E+00	 4.00000000E+00
	 1.00000000E+00	 5.00000000E-01	 3.50000000E+00
	 1.00000000E+00	 7.50000000E-01	 4.00000000E+00
	 1.00000000E+00	 1.00000000E+00	 3.50000000E+00
	 7.50000000E-01	 5.00000000E-01	 4.00000000E+00
	 7.50000000E-01	 1.00000000E+00	 4.00000000E+00
	 5.00000000E-01	 5.00000000E-01	 3.50000000E+00
	 5.00000000E-01	 7.50000000E-01	 4.00000000E+00
	 5.00000000E-01	 1.00000000E+00	 3.50000000E+00
	 1.00000000E+00	-1.49012000E-08	 4.00000000E+00
	 5.00000000E-01	-1.49012000E-08	 4.00000000E+00
	 1.00000000E+00	-1.49012000E-08	 3.50000000E+00
	 1.00000000E+00	 2.50000000E-01	 4.00000000E+00
	 7.50000000E-01	-1.49012000E-08	 4.00000000E+00
	 5.00000000E-01	-1.49012000E-08	 3.50000000E+00
	 5.00000000E-01	 2.50000000E-01	 4.00000000E+00
	-7.45058000E-09	 5.00000000E-01	 4.00000000E+00
	-7.45058000E-09	 1.00000000E+00	 4.00000000E+00
	 2.50000000E-01	 5.00000000E-01	 4.00000000E+00
	 2.50000000E-01	 1.00000000E+00	 4.00000000E+00
	-7.45058000E-09	 5.00000000E-01	 3.50000000E+00
	-7.45058000E-09	 7.50000000E-01	 4.00000000E+00
	-7.45058000E-09	 1.00000000E+00	 3.50000000E+00
	-7.45058000E-09	-1.49012000E-08	 4.00000000E+00
	 2.50000000E-01	-1.49012000E-08	 4.00000000E+00
	-7.45058000E-09	-1.49012000E-08	 3.50000000E+00
	-7.45058000E-09	 2.50000000E-01	 4.00000000E+00
	 1.00000000E+00	 5.00000000E-01	 5.00000000E+00
	 1.00000000E+00	 1.00000000E+00	 5.00000000E+00
	 5.00000000E-01	 5.00000000E-01	 5.00000000E+00
	 5.00000000E-01	 1.00000000E+00	 5.00000000E+00
	 1.00000000E+00	 5.00000000E-01	 4.50000000E+00
	 1.00000000E+00	 7.50000000E-01	 5.00000000E+00
	 1.00000000E+00	 1.00000000E+00	 4.50000000E+00
	 7.50000000E-01	 5.00000000E-01	 5.00000000E+00
	 7.50000000E-01	 1.00000000E+00	 5.00000000E+00
	 5.00000000E-01	 5.00000000E-01	 4.50000000E+00
	 5.00000000E-01	 7.50000000E-01	 5.00000000E+00
	 5.00000000E-01	 1.00000000E+00	 4.50000000E+00
	 1.00000000E+00	-1.49012000E-08	 5.00000000E+00
	 5.00000000E-01	-1.49012000E-08	 5.00000000E+00
	 1.00000000E+00	-1.49012000E-08	 4.50000000E+00
	 1.00000000E+00	 2.50000000E-01	 5.00000000E+00
	 7.50000000E-01	-1.49012000E-08	 5.00000000E+00
	 5.00000000E-01	-1.49012000E-08	 4.50000000E+00
	 5.00000000E-01	 2.50000000E-01	 5.00000000E+00
	-7.45058000E-09	 5.00000000E-01	 5.00000000E+00
	-7.45058000E-09	 1.00000000E+00	 5.00000000E+00
	 2.50000000E-01	 5.00000000E-01	 5.00000000E+00
	 2.50000000E-01	 1.00000000E+00	 5.00000000E+00
	-7.45058000E-09	 5.00000000E-01	 4.50000000E+00
	-7.45058000E-09	 7.50000000E-01	 5.00000000E+00
	-7.45058000E-09	 1.00000000E+00	 4.50000000E+00
	-7.45058000E-09	-1.49012000E-08	 5.00000000E+00
	 2.50000000E-01	-1.49012000E-08	 5.00000000E+00
	-7.45058000E-09	-1.49012000E-08	 4.50000000E+00
	-7.45058000E-09	 2.50000000E-01	 5.00000000E+00
	 1.00000000E+00	 5.00000000E-01	 6.00000000E+00
	 1.00000000E+00	 1.00000000E+00	 6.00000000E+00
	 5.00000000E-01	 5.00000000E-01	 6.00000000E+00
	 5.00000000E-01	 1.00000000E+00	 6.00000000E+00
	 1.00000000E+00	 5.00000000E-01	 5.50000000E+00
	 1.00000000E+00	 7.50000000E-01	 6.00000000E+00
	 1.00000000E+00	 1.00000000E+00	 5.50000000E+00
	 7.50000000E-01	 5.00000000E-01	 6.00000000E+00
	 7.50000000E-01	 1.00000000E+00	 6.00000000E+00
	 5.00000000E-01	 5.00000000E-01	 5.50000000E+00
	 5.00000000E-01	 7.50000000E-01	 6.00000000E+00
	 5.00000000E-01	 1.00000000E+00	 5.50000000E+00
	 1.00000000E+00	-1.49012000E-08	 6.00000000E+00
	 5.00000000E-01	-1.49012000E-08	 6.00000000E+00
	 1.00000000E+00	-1.49012000E-08	 5.50000000E+00
	 1.00000000E+00	 2.50000000E-01	 6.00000000E+00
	 7.50000000E-01	-1.49012000E-08	 6.00000000E+00
	 5.00000000E-01	-1.49012000E-08	 5.50000000E+00
	 5.00000000E-01	 2.50000000E-01	 6.00000000E+00
	-7.45058000E-09	 5.00000000E-01	 6.00000000E+00
	-7.45058000E-09	 1.00000000E+00	 6.00000000E+00
	 2.50000000E-01	 5.00000000E-01	 6.00000000E+00
	 2.50000000E-01	 1.00000000E+00	 6.00000000E+00
	-7.45058000E-09	 5.00000000E-01	 5.50000000E+00
	-7.45058000E-09	 7.50000000E-01	 6.00000000E+00
	-7.45058000E-09	 1.00000000E+00	 5.50000000E+00
	-7.45058000E-09	-1.49012000E-08	 6.00000000E+00
	 2.50000000E-01	-1.49012000E-08	 6.00000000E+00
	-7.45058000E-09	-1.49012000E-08	 5.50000000E+00
	-7.45058000E-09	 2.50000000E-01	 6.00000000E+00
	 1.00000000E+00	 5.00000000E-01	 7.00000000E+00
[...]
POINT_DATA 522
FIELD U 1
	U 3 522 double
		 0.00000000E+00	 0.00000000E+00	 0.00000000E+00
		 0.00000000E+00	 0.00000000E+00	 0.00000000E+00
		-1.09769000E-05	-4.18078000E-04	 1.09387000E-05
		-1.07577000E-03	-5.66264000E-04	 1.74379000E-03
		 0.00000000E+00	 0.00000000E+00	 0.00000000E+00
		 0.00000000E+00	 0.00000000E+00	 0.00000000E+00
		-1.00195000E-05	-1.32467000E-03	 3.01386000E-06
		-7.69086000E-04	-1.48192000E-03	 1.73795000E-03
		 0.00000000E+00	 0.00000000E+00	 0.00000000E+00
		 2.02771000E-06	 2.90191000E-04	 7.38755000E-06
		-5.44713000E-04	-4.45855000E-04	 9.66277000E-04
		-6.22143000E-04	 1.25955000E-04	 7.74076000E-04
		 0.00000000E+00	 0.00000000E+00	 0.00000000E+00
		 0.00000000E+00	 0.00000000E+00	 0.00000000E+00
		-9.94805000E-06	-9.17275000E-04	 6.70124000E-06
		-9.21045000E-04	-1.06835000E-03	 1.66664000E-03
		 0.00000000E+00	 0.00000000E+00	 0.00000000E+00
		 3.86614000E-06	-2.05496000E-04	 1.79834000E-06
		-3.88915000E-04	-1.35635000E-03	 8.85567000E-04
		-3.72262000E-04	-3.57153000E-04	 7.35496000E-04
		 0.00000000E+00	 0.00000000E+00	 0.00000000E+00
		 1.04757000E-03	-5.61527000E-04	-1.72270000E-03
		 0.00000000E+00	 0.00000000E+00	 0.00000000E+00
		 7.44441000E-04	-1.47030000E-03	-1.73419000E-03
		 0.00000000E+00	 0.00000000E+00	 0.00000000E+00
		 6.16956000E-04	 1.24502000E-04	-7.59963000E-04
		 5.21107000E-04	-4.43963000E-04	-9.45629000E-04
		 0.00000000E+00	 0.00000000E+00	 0.00000000E+00
		 8.95079000E-04	-1.05943000E-03	-1.65307000E-03
		 0.00000000E+00	 0.00000000E+00	 0.00000000E+00
		 3.71651000E-04	-3.51691000E-04	-7.31013000E-04
		 3.67108000E-04	-1.34967000E-03	-8.80397000E-04
		 0.00000000E+00	 0.00000000E+00	 0.00000000E+00
		 0.00000000E+00	 0.00000000E+00	 0.00000000E+00
		-1.04417000E-05	-1.93194000E-03	-2.79397000E-06
		-4.62220000E-04	-2.08353000E-03	 1.72810000E-03
		 0.00000000E+00	 0.00000000E+00	 0.00000000E+00
		 0.00000000E+00	 0.00000000E+00	 0.00000000E+00
		-9.88232000E-06	-1.67346000E-03	 2.33448000E-07
		-6.16148000E-04	-1.82787000E-03	 1.79120000E-03
		 0.00000000E+00	 0.00000000E+00	 0.00000000E+00
		 1.77326000E-06	-4.54397000E-04	-2.97535000E-06
		-2.35157000E-04	-1.96203000E-03	 8.18623000E-04
		-9.82663000E-05	-5.97330000E-04	 7.65424000E-04
		 0.00000000E+00	 0.00000000E+00	 0.00000000E+00
		 4.39383000E-04	-2.06828000E-03	-1.73784000E-03
		 0.00000000E+00	 0.00000000E+00	 0.00000000E+00
		 5.92816000E-04	-1.81433000E-03	-1.79529000E-03
		 0.00000000E+00	 0.00000000E+00	 0.00000000E+00
		 9.47214000E-05	-5.85451000E-04	-7.69402000E-04
		 2.13869000E-04	-1.95289000E-03	-8.25069000E-04
		-9.30525000E-06	-5.45954000E-03	 3.20100000E-06
		-1.57609000E-03	-5.65209000E-03	 3.98218000E-03
		-9.39188000E-06	-6.83946000E-03	-1.24837000E-05
		-1.20647000E-03	-7.03488000E-03	 3.96074000E-03
		-1.15650000E-05	-2.31146000E-03	 8.04733000E-06
		-7.90304000E-04	-5.51192000E-03	 2.01544000E-03
		-1.40632000E-03	-2.48044000E-03	 2.83211000E-03
		-9.46150000E-06	-6.19229000E-03	-5.30558000E-06
		-1.39197000E-03	-6.38998000E-03	 3.96050000E-03
		-1.00449000E-05	-3.52838000E-03	 1.36104000E-07
		-6.09368000E-04	-6.89312000E-03	 1.98788000E-03
		-1.05644000E-03	-3.70711000E-03	 2.81785000E-03
		 1.56626000E-03	-5.60478000E-03	-3.97919000E-03
		 1.19502000E-03	-7.00096000E-03	-3.98875000E-03
		 1.38651000E-03	-2.45467000E-03	-2.81616000E-03
		 7.74110000E-04	-5.48664000E-03	-2.00986000E-03
		 1.38204000E-03	-6.35030000E-03	-3.97445000E-03
		 1.04066000E-03	-3.68684000E-03	-2.82079000E-03
		 5.92984000E-04	-6.87658000E-03	-2.01375000E-03
		-9.65938000E-06	-7.85908000E-03	-2.51770000E-05
		-8.49682000E-04	-8.05644000E-03	 3.95632000E-03
		-9.80821000E-06	-7.39458000E-03	-1.93555000E-05
		-1.02835000E-03	-7.58959000E-03	 3.96271000E-03
		-9.21495000E-06	-4.40835000E-03	-7.80722000E-06
		-4.29901000E-04	-7.91311000E-03	 1.97379000E-03
		-7.31606000E-04	-4.59645000E-03	 2.81235000E-03
		 8.34170000E-04	-8.02724000E-03	-4.00826000E-03
		 1.01452000E-03	-7.55726000E-03	-4.00459000E-03
		 7.19080000E-04	-4.58383000E-03	-2.83372000E-03
		 4.10845000E-04	-7.90057000E-03	-2.02391000E-03
		-1.44603000E-05	-1.57837000E-02	-5.45165000E-05
		-1.70512000E-03	-1.60262000E-02	 6.49845000E-03
		-9.49450000E-06	-1.72770000E-02	-6.39963000E-05
		-1.31451000E-03	-1.75229000E-02	 6.49051000E-03
		-1.94706000E-05	-9.91416000E-03	-1.79926000E-05
		-8.60120000E-04	-1.58559000E-02	 3.22136000E-03
		-1.67008000E-03	-1.01317000E-02	 5.22476000E-03
		-1.18315000E-05	-1.65790000E-02	-5.80029000E-05
		-1.50806000E-03	-1.68225000E-02	 6.48907000E-03
		-1.72854000E-05	-1.13686000E-02	-3.53597000E-05
		-6.61645000E-04	-1.73505000E-02	 3.20565000E-03
		-1.27784000E-03	-1.15887000E-02	 5.20751000E-03
		 1.67227000E-03	-1.59306000E-02	-6.61236000E-03
		 1.29623000E-03	-1.74249000E-02	-6.62191000E-03
		 1.62976000E-03	-1.00707000E-02	-5.26320000E-03
		 8.30616000E-04	-1.58076000E-02	-3.33053000E-03
		 1.48200000E-03	-1.67246000E-02	-6.61115000E-03
		 1.24641000E-03	-1.15279000E-02	-5.27957000E-03
		 6.43384000E-04	-1.72998000E-02	-3.33405000E-03
		-5.49073000E-06	-1.83953000E-02	-7.43186000E-05
		-9.25131000E-04	-1.86359000E-02	 6.47830000E-03
		-7.14861000E-06	-1.78839000E-02	-7.04431000E-05
		-1.12118000E-03	-1.81280000E-02	 6.49388000E-03
		-1.47248000E-05	-1.24415000E-02	-4.44573000E-05
		-4.65334000E-04	-1.84666000E-02	 3.18398000E-03
		-8.86288000E-04	-1.26557000E-02	 5.20107000E-03
		 9.22197000E-04	-1.85458000E-02	-6.62901000E-03
		 1.11121000E-03	-1.80333000E-02	-6.63376000E-03
		 8.64866000E-04	-1.26009000E-02	-5.29040000E-03
		 4.58470000E-04	-1.84201000E-02	-3.33513000E-03
		 8.22419000E-06	-3.14149000E-02	-1.84573000E-04
		-1.76795000E-03	-3.16759000E-02	 8.90113000E-03
		 1.03094000E-05	-3.29937000E-02	-1.98635000E-04
		-1.37240000E-03	-3.32619000E-02	 8.88796000E-03
		 6.56316000E-06	-2.29681000E-02	-1.03524000E-04
		-8.78459000E-04	-3.14963000E-02	 4.36248000E-03
		-1.72979000E-03	-2.32220000E-02	 7.71828000E-03
		 9.44766000E-06	-3.22519000E-02	-1.96022000E-04
		-1.57089000E-03	-3.25179000E-02	 8.88577000E-03
		 3.68616000E-06	-2.45091000E-02	-1.15813000E-04
		-6.80897000E-04	-3.30794000E-02	 4.34636000E-03
		-1.36072000E-03	-2.47673000E-02	 7.70693000E-03
		 1.78147000E-03	-3.15204000E-02	-9.27619000E-03
		 1.38534000E-03	-3.31022000E-02	-9.29586000E-03
		 1.73541000E-03	-2.30986000E-02	-7.93986000E-03
		 8.93074000E-04	-3.14204000E-02	-4.73447000E-03
		 1.58555000E-03	-3.23614000E-02	-9.28253000E-03
		 1.35746000E-03	-2.46383000E-02	-7.94996000E-03
		 6.98390000E-04	-3.30014000E-02	-4.74674000E-03
		 1.14199000E-05	-3.41774000E-02	-1.97133000E-04
		-9.87361000E-04	-3.44595000E-02	 8.89218000E-03
		 1.10220000E-05	-3.36350000E-02	-1.96761000E-04
		-1.17959000E-03	-3.39086000E-02	 8.88921000E-03
		-4.42601000E-07	-2.56812000E-02	-1.26331000E-04
		-4.86519000E-04	-3.42711000E-02	 4.35340000E-03
		-9.93477000E-04	-2.59510000E-02	 7.70171000E-03
		 9.95875000E-04	-3.42822000E-02	-9.30190000E-03
		 1.18944000E-03	-3.37408000E-02	-9.30176000E-03
		 9.76670000E-04	-2.58044000E-02	-7.96180000E-03
		 5.03812000E-04	-3.41818000E-02	-4.74848000E-03
		 4.35598000E-05	-5.25739000E-02	-4.12503000E-04
		-1.45553000E-03	-5.28704000E-02	 1.11637000E-02
		 4.30573000E-05	-5.38883000E-02	-4.20771000E-04
		-1.10319000E-03	-5.41933000E-02	 1.11782000E-02
		 1.78282000E-05	-4.12423000E-02	-2.89328000E-04
		-7.02674000E-04	-5.26776000E-02	 5.29990000E-03
		-1.70057000E-03	-4.15261000E-02	 1.00874000E-02
		 4.30967000E-05	-5.32749000E-02	-4.14788000E-04
		-1.28123000E-03	-5.35822000E-02	 1.12160000E-02
		 2.17767000E-05	-4.27638000E-02	-2.99182000E-04
		-5.33213000E-04	-5.39963000E-02	 5.34847000E-03
		-1.29867000E-03	-4.30526000E-02	 1.00830000E-02
		 1.54316000E-03	-5.25815000E-02	-1.19932000E-02
		 1.20086000E-03	-5.39119000E-02	-1.20230000E-02
		 1.74661000E-03	-4.12951000E-02	-1.06624000E-02
		 7.89006000E-04	-5.25331000E-02	-6.12330000E-03
		 1.37340000E-03	-5.32931000E-02	-1.20537000E-02
		 1.35850000E-03	-4.28351000E-02	-1.06840000E-02
		 6.22429000E-04	-5.38550000E-02	-6.19002000E-03
		 4.23257000E-05	-5.48724000E-02	-4.29174000E-04
		-7.69154000E-04	-5.51647000E-02	 1.11610000E-02
		 4.26890000E-05	-5.44237000E-02	-4.26865000E-04
		-9.34753000E-04	-5.47224000E-02	 1.11446000E-02
		 2.46920000E-05	-4.38973000E-02	-2.95576000E-04
		-3.66893000E-04	-5.49733000E-02	 5.36172000E-03
		-9.14028000E-04	-4.41768000E-02	 1.00807000E-02
		 8.72422000E-04	-5.49114000E-02	-1.20150000E-02
		 1.03650000E-03	-5.44555000E-02	-1.19914000E-02
		 9.89701000E-04	-4.39866000E-02	-1.06850000E-02
		 4.57287000E-04	-5.48493000E-02	-6.22157000E-03
		 1.02764000E-04	-7.90151000E-02	-7.58994000E-04
		-4.04067000E-04	-7.92273000E-02	 1.23251000E-02
		 1.03490000E-04	-7.94818000E-02	-7.60575000E-04
		-3.24603000E-04	-7.96994000E-02	 1.23494000E-02
		 7.59868000E-05	-6.53333000E-02	-5.70561000E-04
		-1.52013000E-04	-7.91043000E-02	 5.64565000E-03
		-9.91663000E-04	-6.55892000E-02	 1.19382000E-02
		 1.04168000E-04	-7.92572000E-02	-7.62002000E-04
		-3.60674000E-04	-7.94718000E-02	 1.24224000E-02
		 7.46010000E-05	-6.62781000E-02	-5.76951000E-04
		-1.07781000E-04	-7.95765000E-02	 5.73772000E-03
		-7.62515000E-04	-6.65432000E-02	 1.19677000E-02
		 6.02659000E-04	-7.89044000E-02	-1.38431000E-02
		 5.15914000E-04	-7.93622000E-02	-1.38708000E-02
		 1.14166000E-03	-6.52762000E-02	-1.30892000E-02
		 3.53301000E-04	-7.89546000E-02	-7.16378000E-03
		 5.59282000E-04	-7.91413000E-02	-1.39407000E-02
		 8.99736000E-04	-6.62289000E-02	-1.31287000E-02
		 3.10083000E-04	-7.94143000E-02	-7.25645000E-03
		 9.84770000E-05	-7.98649000E-02	-7.38559000E-04
		-2.46693000E-04	-8.00967000E-02	 1.23362000E-02
		 1.01556000E-04	-7.96851000E-02	-7.51993000E-04
		-2.88878000E-04	-7.99049000E-02	 1.22881000E-02
		 7.00406000E-05	-6.70014000E-02	-5.80175000E-04
		-6.83514000E-05	-7.99729000E-02	 5.79770000E-03
		-5.54845000E-04	-6.72852000E-02	 1.19412000E-02
		 4.28375000E-04	-7.97367000E-02	-1.38308000E-02
		 4.72432000E-04	-7.95617000E-02	-1.38055000E-02
		 6.67144000E-04	-6.69425000E-02	-1.30991000E-02
		 2.63955000E-04	-7.97876000E-02	-7.27780000E-03
		 1.04431000E-04	-1.06618000E-01	-1.13122000E-03
		 5.67694000E-04	-1.06769000E-01	 1.18644000E-02
		 1.16944000E-04	-1.06231000E-01	-1.09756000E-03
		 4.94201000E-04	-1.06352000E-01	 1.18841000E-02
		 9.67872000E-05	-9.29666000E-02	-9.51264000E-04
		 3.32139000E-04	-1.06704000E-01	 5.31604000E-03
		 1.49349000E-04	-9.31550000E-02	 1.22237000E-02
		 1.05865000E-04	-1.06410000E-01	-1.11357000E-03
		 5.26438000E-04	-1.06542000E-01	 1.19220000E-02
		 1.12364000E-04	-9.29594000E-02	-9.37310000E-04
		 3.07878000E-04	-1.06303000E-01	 5.38394000E-03
		 1.24554000E-04	-9.31257000E-02	 1.22442000E-02
		-3.21973000E-04	-1.06414000E-01	-1.41169000E-02
		-2.18233000E-04	-1.06030000E-01	-1.40752000E-02
		 7.82118000E-05	-9.28022000E-02	-1.41173000E-02
		-1.10156000E-04	-1.06529000E-01	-7.57249000E-03
		-2.75999000E-04	-1.06207000E-01	-1.41448000E-02
		 1.18703000E-04	-9.27953000E-02	-1.41179000E-02
		-5.74173000E-05	-1.06146000E-01	-7.57889000E-03
		 1.35544000E-04	-1.05920000E-01	-1.10062000E-03
		 4.38383000E-04	-1.06014000E-01	 1.18782000E-02
		 1.28909000E-04	-1.06067000E-01	-1.09683000E-03
		 4.73058000E-04	-1.06176000E-01	 1.18349000E-02
		 1.28554000E-04	-9.29754000E-02	-9.14183000E-04
		 2.84290000E-04	-1.05973000E-01	 5.42177000E-03
		 1.18305000E-04	-9.31315000E-02	 1.22465000E-02
		-1.21628000E-04	-1.05745000E-01	-1.40530000E-02
		-1.66745000E-04	-1.05877000E-01	-1.40180000E-02
		 1.52624000E-04	-9.28216000E-02	-1.40837000E-02
		-1.29887000E-06	-1.05852000E-01	-7.60758000E-03
		 2.03764000E-04	-1.32405000E-01	-1.49477000E-03
		 8.64735000E-04	-1.32594000E-01	 1.12360000E-02
		 1.14710000E-04	-1.31652000E-01	-1.42963000E-03
		 7.96640000E-04	-1.31851000E-01	 1.12163000E-02
		 1.39837000E-04	-1.19676000E-01	-1.31755000E-03
		 5.28177000E-04	-1.32504000E-01	 4.88701000E-03
		 7.97149000E-04	-1.19839000E-01	 1.14961000E-02
		 1.71970000E-04	-1.32040000E-01	-1.44923000E-03
		 8.40198000E-04	-1.32232000E-01	 1.12371000E-02
		 1.22473000E-04	-1.19047000E-01	-1.25795000E-03
		 4.49339000E-04	-1.31761000E-01	 4.90684000E-03
		 7.40443000E-04	-1.19205000E-01	 1.14994000E-02
		-5.24864000E-04	-1.32201000E-01	-1.41351000E-02
		-5.47823000E-04	-1.31406000E-01	-1.39942000E-02
		-5.39584000E-04	-1.19516000E-01	-1.40768000E-02
		-1.37135000E-04	-1.32302000E-01	-7.84542000E-03
		-5.35751000E-04	-1.31795000E-01	-1.40583000E-02
		-4.65027000E-04	-1.18858000E-01	-1.39718000E-02
		-2.10590000E-04	-1.31521000E-01	-7.74465000E-03
		 3.09427000E-05	-1.30966000E-01	-1.48399000E-03
		 7.40273000E-04	-1.31096000E-01	 1.11526000E-02
		 5.88230000E-05	-1.31295000E-01	-1.44377000E-03
		 7.61311000E-04	-1.31477000E-01	 1.11781000E-02
		 1.10474000E-04	-1.18481000E-01	-1.29762000E-03
		 3.69362000E-04	-1.31034000E-01	 4.85288000E-03
		 6.90857000E-04	-1.18586000E-01	 1.14561000E-02
		-5.62358000E-04	-1.30773000E-01	-1.40145000E-02
		-5.57833000E-04	-1.31064000E-01	-1.39777000E-02
		-3.89226000E-04	-1.18331000E-01	-1.39753000E-02
		-2.79318000E-04	-1.30869000E-01	-7.78201000E-03
		 0.00000000E+00	 0.00000000E+00	 0.00000000E+00
		 0.00000000E+00	 0.00000000E+00	 0.00000000E+00
		 1.52244000E-04	-1.33136000E-02	-4.81692000E-04
		-2.21281000E-03	-1.42709000E-02	 1.29104000E-02
		 0.00000000E+00	 0.00000000E+00	 0.00000000E+00
		 0.00000000E+00	 0.00000000E+00	 0.00000000E+00
		 1.00744000E-04	-1.47465000E-02	-4.47409000E-04
		-4.56800000E-04	-1.57759000E-02	 1.30772000E-02
		 0.00000000E+00	 0.00000000E+00	 0.00000000E+00
		 1.04472000E-04	-2.71059000E-03	-1.95251000E-04
		-1.03038000E-03	-1.34794000E-02	 6.15295000E-03
		-2.19170000E-03	-3.87004000E-03	 6.53344000E-03
		 0.00000000E+00	 0.00000000E+00	 0.00000000E+00
		 0.00000000E+00	 0.00000000E+00	 0.00000000E+00
		 1.26810000E-04	-1.43309000E-02	-4.69238000E-04
		-1.32082000E-03	-1.53237000E-02	 1.29307000E-02
		 0.00000000E+00	 0.00000000E+00	 0.00000000E+00
		 3.81586000E-05	-3.87487000E-03	-1.68491000E-04
		-1.76200000E-04	-1.49374000E-02	 6.18711000E-03
		-2.34624000E-04	-5.04941000E-03	 6.37174000E-03
		 0.00000000E+00	 0.00000000E+00	 0.00000000E+00
		 2.46638000E-03	-1.39560000E-02	-1.39256000E-02
		 0.00000000E+00	 0.00000000E+00	 0.00000000E+00
		 6.45650000E-04	-1.54269000E-02	-1.40353000E-02
		 0.00000000E+00	 0.00000000E+00	 0.00000000E+00
		 2.35832000E-03	-3.84095000E-03	-6.95799000E-03
		 1.31866000E-03	-1.33205000E-02	-7.13229000E-03
		 0.00000000E+00	 0.00000000E+00	 0.00000000E+00
		 1.54617000E-03	-1.49847000E-02	-1.39241000E-02
		 0.00000000E+00	 0.00000000E+00	 0.00000000E+00
		 2.92006000E-04	-4.99340000E-03	-6.73169000E-03
		 3.73526000E-04	-1.47594000E-02	-7.10195000E-03
		 0.00000000E+00	 0.00000000E+00	 0.00000000E+00
		 0.00000000E+00	 0.00000000E+00	 0.00000000E+00
		 5.31141000E-05	-1.44200000E-02	-3.52320000E-04
		 1.31839000E-03	-1.53862000E-02	 1.30360000E-02
		 0.00000000E+00	 0.00000000E+00	 0.00000000E+00
		 0.00000000E+00	 0.00000000E+00	 0.00000000E+00
		 7.50265000E-05	-1.48826000E-02	-4.09544000E-04
		 4.15544000E-04	-1.58802000E-02	 1.30964000E-02
		 0.00000000E+00	 0.00000000E+00	 0.00000000E+00
		-2.03270000E-05	-3.23725000E-03	-1.26001000E-04
		 6.87368000E-04	-1.45891000E-02	 6.17163000E-03
		 1.75147000E-03	-4.40606000E-03	 6.60547000E-03
		 0.00000000E+00	 0.00000000E+00	 0.00000000E+00
		-1.19101000E-03	-1.50254000E-02	-1.37995000E-02
		 0.00000000E+00	 0.00000000E+00	 0.00000000E+00
		-2.66479000E-04	-1.55225000E-02	-1.39795000E-02
		 0.00000000E+00	 0.00000000E+00	 0.00000000E+00
		-1.79130000E-03	-4.31476000E-03	-6.88356000E-03
		-5.70251000E-04	-1.44089000E-02	-6.89208000E-03
		 3.76480000E-04	-5.23938000E-02	-1.53188000E-03
		-2.59237000E-03	-5.36820000E-02	 2.29812000E-02
		 3.42724000E-04	-5.46522000E-02	-1.52409000E-03
		-1.21068000E-03	-5.59371000E-02	 2.30418000E-02
		 2.59077000E-04	-3.00408000E-02	-9.11694000E-04
		-1.11029000E-03	-5.28797000E-02	 1.06812000E-02
		-2.37945000E-03	-3.12589000E-02	 1.84204000E-02
		 3.59924000E-04	-5.36828000E-02	-1.53870000E-03
		-1.90008000E-03	-5.49637000E-02	 2.29438000E-02
		 2.09427000E-04	-3.18488000E-02	-8.77304000E-04
		-4.28834000E-04	-5.51341000E-02	 1.06551000E-02
		-7.66977000E-04	-3.30607000E-02	 1.85084000E-02
		 3.34427000E-03	-5.24812000E-02	-2.61252000E-02
		 1.89811000E-03	-5.47541000E-02	-2.61707000E-02
		 2.86959000E-03	-3.05433000E-02	-2.03231000E-02
		 1.86048000E-03	-5.22824000E-02	-1.37654000E-02
		 2.62425000E-03	-5.37811000E-02	-2.60966000E-02
		 1.18545000E-03	-3.23343000E-02	-2.03461000E-02
		 1.11934000E-03	-5.45529000E-02	-1.37196000E-02
		 3.01988000E-04	-5.55135000E-02	-1.43595000E-03
		 1.98963000E-04	-5.67569000E-02	 2.30757000E-02
		 3.22034000E-04	-5.52378000E-02	-1.49062000E-03
		-5.04430000E-04	-5.65444000E-02	 2.31728000E-02
		 1.60933000E-04	-3.20019000E-02	-7.72538000E-04
		 2.39952000E-04	-5.59631000E-02	 1.05938000E-02
		 8.73844000E-04	-3.31894000E-02	 1.85578000E-02
		 4.43658000E-04	-5.56013000E-02	-2.60247000E-02
		 1.16862000E-03	-5.53330000E-02	-2.62392000E-02
		-5.13500000E-04	-3.24845000E-02	-2.01854000E-02
		 3.75093000E-04	-5.54089000E-02	-1.34770000E-02
		 6.61030000E-04	-1.10125000E-01	-3.38083000E-03
		-3.19422000E-03	-1.11560000E-01	 2.87303000E-02
		 6.60515000E-04	-1.13503000E-01	-3.42139000E-03
		-2.27284000E-03	-1.15043000E-01	 2.87411000E-02
		 5.05110000E-04	-7.94078000E-02	-2.36033000E-03
		-1.26056000E-03	-1.10725000E-01	 1.26552000E-02
		-2.87962000E-03	-8.07987000E-02	 2.63671000E-02
		 6.62824000E-04	-1.11933000E-01	-3.40281000E-03
		-2.73731000E-03	-1.13431000E-01	 2.86481000E-02
		 4.84645000E-04	-8.22140000E-02	-2.38239000E-03
		-8.30700000E-04	-1.14156000E-01	 1.25460000E-02
		-1.74530000E-03	-8.36114000E-02	 2.64046000E-02
		 4.47735000E-03	-1.09527000E-01	-3.55313000E-02
		 3.60136000E-03	-1.12919000E-01	-3.56577000E-02
		 3.87417000E-03	-7.91657000E-02	-3.11579000E-02
		 2.57012000E-03	-1.09714000E-01	-1.94199000E-02
		 4.04036000E-03	-1.11339000E-01	-3.55222000E-02
		 2.72242000E-03	-8.19623000E-02	-3.12388000E-02
		 2.13200000E-03	-1.13107000E-01	-1.94216000E-02
		 6.47847000E-04	-1.15995000E-01	-3.40578000E-03
		-1.45527000E-03	-1.17636000E-01	 2.87009000E-02
		 6.55685000E-04	-1.14877000E-01	-3.42601000E-03
		-1.86427000E-03	-1.16348000E-01	 2.88554000E-02
		 4.66440000E-04	-8.38764000E-02	-2.32281000E-03
		-3.74465000E-04	-1.16694000E-01	 1.23912000E-02
		-6.41682000E-04	-8.52918000E-02	 2.64046000E-02
		 2.72840000E-03	-1.15451000E-01	-3.56131000E-02
		 3.16425000E-03	-1.14286000E-01	-3.57810000E-02
		 1.55638000E-03	-8.36349000E-02	-3.11228000E-02
		 1.67925000E-03	-1.15636000E-01	-1.92600000E-02
		 1.08755000E-03	-1.79462000E-01	-5.87781000E-03
		-3.58419000E-03	-1.80850000E-01	 3.02883000E-02
		 1.09873000E-03	-1.84025000E-01	-5.97815000E-03
		-3.36913000E-03	-1.85864000E-01	 3.02316000E-02
		 8.41638000E-04	-1.43769000E-01	-4.55816000E-03
		-1.25136000E-03	-1.80112000E-01	 1.21750000E-02
		-3.43127000E-03	-1.45292000E-01	 2.99743000E-02
		 1.09522000E-03	-1.81749000E-01	-5.93229000E-03
		-3.46424000E-03	-1.83304000E-01	 3.02098000E-02
		 8.34404000E-04	-1.47776000E-01	-4.67272000E-03
		-1.01308000E-03	-1.84882000E-01	 1.20357000E-02
		-2.87578000E-03	-1.49249000E-01	 3.00053000E-02
		 5.59669000E-03	-1.78337000E-01	-4.20687000E-02
		 5.26908000E-03	-1.82743000E-01	-4.22081000E-02
		 5.08543000E-03	-1.42873000E-01	-3.91414000E-02
		 3.34145000E-03	-1.78870000E-01	-2.39348000E-02
		 5.43624000E-03	-1.80578000E-01	-4.20967000E-02
		 4.46797000E-03	-1.46842000E-01	-3.92931000E-02
		 3.17148000E-03	-1.83330000E-01	-2.40013000E-02
		 9.61862000E-04	-1.88289000E-01	-6.04630000E-03
		-3.02625000E-03	-1.90485000E-01	 3.01178000E-02
		 1.03375000E-03	-1.86158000E-01	-6.01753000E-03
		-3.19613000E-03	-1.88704000E-01	 3.02694000E-02
		 7.93304000E-04	-1.51167000E-01	-4.77035000E-03
		-1.14985000E-03	-1.89304000E-01	 1.18390000E-02
		-2.16165000E-03	-1.52522000E-01	 2.99149000E-02
		 4.94299000E-03	-1.86851000E-01	-4.22213000E-02