# vtk DataFile Version 3.0

ASCII
DATASET UNSTRUCTURED_GRID

POINTS 522 double
	 1.00000000E+00	 1.00000000E+00	-5.96046000E-08
	 1.00000000E+00	 5.00000000E-01	-5.96046000E-08
	 1.00000000E+00	 5.00000000E-01	 1.00000000E+00
	 1.00000000E+00	 1.00000000E+00	 1.00000000E+00
	 5.00000000E-01	 1.00000000E+00	-5.96046000E-08
	 5.00000000E-01	 5.00000000E-01	-5.96046000E-08
	 5.00000000E-01	 5.00000000E-01	 1.00000000E+00
	 5.00000000E-01	 1.00000000E+00	 1.00000000E+00
	 1.00000000E+00	 7.50000000E-01	-5.96046000E-08
	 1.00000000E+00	 5.00000000E-01	 5.00000000E-01
	 1.00000000E+00	 7.50000000E-01	 1.00000000E+00
	 1.00000000E+00	 1.00000000E+00	 5.00000000E-01
	 7.50000000E-01	 1.00000000E+00	-5.96046000E-08
	 7.50000000E-01	 5.00000000E-01	-5.96046000E-08
	 7.50000000E-01	 5.00000000E-01	 1.00000000E+00
	 7.50000000E-01	 1.00000000E+00	 1.00000000E+00
	 5.00000000E-01	 7.50000000E-01	-5.96046000E-08
	 5.00000000E-01	 5.00000000E-01	 5.00000000E-01
	 5.00000000E-01	 7.50000000E-01	 1.00000000E+00
	 5.00000000E-01	 1.00000000E+00	 5.00000000E-01
	 1.00000000E+00	-1.49012000E-08	-5.96046000E-08
	 1.00000000E+00	-1.49012000E-08	 1.00000000E+00
	 5.00000000E-01	-1.49012000E-08	-5.96046000E-08
	 5.00000000E-01	-1.49012000E-08	 1.00000000E+00
	 1.00000000E+00	 2.50000000E-01	-5.96046000E-08
	 1.00000000E+00	-1.49012000E-08	 5.00000000E-01
	 1.00000000E+00	 2.50000000E-01	 1.00000000E+00
	 7.50000000E-01	-1.49012000E-08	-5.96046000E-08
	 7.50000000E-01	-1.49012000E-08	 1.00000000E+00
	 5.00000000E-01	 2.50000000E-01	-5.96046000E-08
	 5.00000000E-01	-1.49012000E-08	 5.00000000E-01
	 5.00000000E-01	 2.50000000E-01	 1.00000000E+00
	-7.45058000E-09	 1.00000000E+00	-5.96046000E-08
	-7.45058000E-09	 5.00000000E-01	-5.96046000E-08
	-7.45058000E-09	 5.00000000E-01	 1.00000000E+00
	-7.45058000E-09	 1.00000000E+00	 1.00000000E+00
	 2.50000000E-01	 1.00000000E+00	-5.96046000E-08
	 2.50000000E-01	 5.00000000E-01	-5.96046000E-08
	 2.50000000E-01	 5.00000000E-01	 1.00000000E+00
	 2.50000000E-01	 1.00000000E+00	 1.00000000E+00
	-7.45058000E-09	 7.50000000E-01	-5.96046000E-08
	-7.45058000E-09	 5.00000000E-01	 5.00000000E-01
	-7.45058000E-09	 7.50000000E-01	 1.00000000E+00
	-7.45058000E-09	 1.00000000E+00	 5.00000000E-01
	-7.45058000E-09	-1.49012000E-08	-5.96046000E-08
	-7.45058000E-09	-1.49012000E-08	 1.00000000E+00
	 2.50000000E-01	-1.49012000E-08	-5.96046000E-08
	 2.50000000E-01	-1.49012000E-08	 1.00000000E+00
	-7.45058000E-09	 2.50000000E-01	-5.96046000E-08
	-7.45058000E-09	-1.49012000E-08	 5.00000000E-01
	-7.45058000E-09	 2.50000000E-01	 1.00000000E+00
	 1.00000000E+00	 5.00000000E-01	 2.00000000E+00
	 1.00000000E+00	 1.00000000E+00	 2.00000000E+00
	 5.00000000E-01	 5.00000000E-01	 2.00000000E+00
	 5.00000000E-01	 1.00000000E+00	 2.00000000E+00
	 1.00000000E+00	 5.00000000E-01	 1.50000000E+00
	 1.00000000E+00	 7.50000000E-01	 2.00000000E+00
	 1.00000000E+00	 1.00000000E+00	 1.50000000E+00
	 7.50000000E-01	 5.00000000E-01	 2.00000000E+00
	 7.50000000E-01	 1.00000000E+00	 2.00000000E+00
	 5.00000000E-01	 5.00000000E-01	 1.50000000E+00
	 5.00000000E-01	 7.50000000E-01	 2.00000000E+00
	 5.00000000E-01	 1.00000000E+00	 1.50000000E+00
	 1.00000000E+00	-1.49012000E-08	 2.00000000E+00
	 5.00000000E-01	-1.49012000E-08	 2.00000000E+00
	 1.00000000E+00	-1.49012000E-08	 1.50000000E+00
	 1.00000000E+00	 2.50000000E-01	 2.00000000E+00
	 7.50000000E-01	-1.49012000E-08	 2.00000000E+00
	 5.00000000E-01	-1.49012000E-08	 1.50000000E+00
	 5.00000000E-01	 2.50000000E-01	 2.00000000E+00
	-7.45058000E-09	 5.00000000E-01	 2.00000000E+00
	-7.45058000E-09	 1.00000000E+00	 2.00000000E+00
	 2.50000000E-01	 5.00000000E-01	 2.00000000E+00
	 2.50000000E-01	 1.00000000E+00	 2.00000000E+00
	-7.45058000E-09	 5.00000000E-01	 1.50000000E+00
	-7.45058000E-09	 7.50000000E-01	 2.00000000E+00
	-7.45058000E-09	 1.00000000E+00	 1.50000000E+00
	-7.45058000E-09	-1.49012000E-08	 2.00000000E+00
	 2.50000000E-01	-1.49012000E-08	 2.00000000E+00
	-7.45058000E-09	-1.49012000E-08	 1.50000000E+00
	-7.45058000E-09	 2.50000000E-01	 2.00000000E+00
	 1.00000000E+00	 5.00000000E-01	 3.00000000E+00
	 1.00000000E+00	 1.00000000E+00	 3.00000000E+00
	 5.00000000E-01	 5.00000000E-01	 3.00000000E+00
	 5.00000000E-01	 1.00000000E+00	 3.00000000E+00
	 1.00000000E+00	 5.00000000E-01	 2.50000000E+00
	 1.00000000E+00	 7.50000000E-01	 3.00000000E+00
	 1.00000000E+00	 1.00000000E+00	 2.50000000E+00
	 7.50000000E-01	 5.00000000E-01	 3.00000000E+00
	 7.50000000E-01	 1.00000000E+00	 3.00000000E+00
	 5.00000000E-01	 5.00000000E-01	 2.50000000E+00
	 5.00000000E-01	 7.50000000E-01	 3.00000000E+00
	 5.00000000E-01	 1.00000000E+00	 2.50000000E+00
	 1.00000000E+00	-1.49012000E-08	 3.00000000E+00
	 5.00000000E-01	-1.49012000E-08	 3.00000000E+00
	 1.00000000E+00	-1.49012000E-08	 2.50000000E+00
	 1.00000000E+00	 2.50000000E-01	 3.00000000E+00
	 7.50000000E-01	-1.49012000E-08	 3.00000000E+00
	 5.00000000E-01	-1.49012000E-08	 2.50000000E+00
	 5.00000000E-01	 2.50000000E-01	 3.00000000E+00
	-7.45058000E-09	 5.00000000E-01	 3.00000000E+00
	-7.45058000E-09	 1.00000000E+00	 3.00000000E+00
	 2.50000000E-01	 5.00000000E-01	 3.00000000E+00
	 2.50000000E-01	 1.00000000E+00	 3.00000000E+00
	-7.45058000E-09	 5.00000000E-01	 2.50000000E+00
	-7.45058000E-09	 7.50000000E-01	 3.00000000E+00
	-7.45058000E-09	 1.00000000E+00	 2.50000000E+00
	-7.45058000E-09	-1.49012000E-08	 3.00000000E+00
	 2.50000000E-01	-1.49012000E-08	 3.00000000E+00
	-7.45058000E-09	-1.49012000E-08	 2.50000000E+00
	-7.45058000E-09	 2.50000000E-01	 3.00000000E+00
	 1.00000000E+00	 5.00000000E-01	 4.00000000E+00
	 1.00000000E+00	 1.00000000E+00	 4.00000000E+00
	 5.00000000E-01	 5.00000000E-01	 4.00000000E+00
	 5.00000000E-01	 1.00000000E+00	 4.00000000E+00
	 1.00000000E+00	 5.00000000E-01	 3.50000000E+00
	 1.00000000E+00	 7.50000000E-01	 4.00000000E+00
	 1.00000000E+00	 1.00000000E+00	 3.50000000E+00
	 7.50000000E-01	 5.00000000E-01	 4.00000000E+00
	 7.50000000E-01	 1.00000000E+00	 4.00000000E+00
	 5.00000000E-01	 5.00000000E-01	 3.50000000E+00
	 5.00000000E-01	 7.50000000E-01	 4.00000000E+00
	 5.00000000E-01	 1.00000000E+00	 3.50000000E+00
	 1.00000000E+00	-1.49012000E-08	 4.00000000E+00
	 5.00000000E-01	-1.49012000E-08	 4.00000000E+00
	 1.00000000E+00	-1.49012000E-08	 3.50000000E+00
	 1.00000000E+00	 2.50000000E-01	 4.00000000E+00
	 7.50000000E-01	-1.49012000E-08	 4.00000000E+00
	 5.00000000E-01	-1.49012000E-08	 3.50000000E+00
	 5.00000000E-01	 2.50000000E-01	 4.00000000E+00
	-7.45058000E-09	 5.00000000E-01	 4.00000000E+00
	-7.45058000E-09	 1.00000000E+00	 4.00000000E+00
	 2.50000000E-01	 5.00000000E-01	 4.00000000E+00
	 2.50000000E-01	 1.00000000E+00	 4.00000000E+00
	-7.45058000E-09	 5.00000000E-01	 3.50000000E+00
	-7.45058000E-09	 7.50000000E-01	 4.00000000E+00
	-7.45058000E-09	 1.00000000E+00	 3.50000000E+00
	-7.45058000E-09	-1.49012000E-08	 4.00000000E+00
	 2.50000000E-01	-1.49012000E-08	 4.00000000E+00
	-7.45058000E-09	-1.49012000E-08	 3.50000000E+00
	-7.45058000E-09	 2.50000000E-01	 4.00000000E+00
	 1.00000000E+00	 5.00000000E-01	 5.00000000E+00
	 1.00000000E+00	 1.00000000E+00	 5.00000000E+00
	 5.00000000E-01	 5.00000000E-01	 5.00000000E+00
	 5.00000000E-01	 1.00000000E+00	 5.00000000E+00
	 1.00000000E+00	 5.00000000E-01	 4.50000000E+00
	 1.00000000E+00	 7.50000000E-01	 5.00000000E+00
	 1.00000000E+00	 1.00000000E+00	 4.50000000E+00
	 7.50000000E-01	 5.00000000E-01	 5.00000000E+00
	 7.50000000E-01	 1.00000000E+00	 5.00000000E+00
	 5.00000000E-01	 5.00000000E-01	 4.50000000E+00
	 5.00000000E-01	 7.50000000E-01	 5.00000000E+00
	 5.00000000E-01	 1.00000000E+00	 4.50000000E+00
	 1.00000000E+00	-1.49012000E-08	 5.00000000E+00
	 5.00000000E-01	-1.49012000E-08	 5.00000000E+00
	 1.00000000E+00	-1.49012000E-08	 4.50000000E+00
	 1.00000000E+00	 2.50000000E-01	 5.00000000E+00
	 7.50000000E-01	-1.49012000E-08	 5.00000000E+00
	 5.00000000E-01	-1.49012000E-08	 4.50000000E+00
	 5.00000000E-01	 2.50000000E-01	 5.00000000E+00
	-7.45058000E-09	 5.00000000E-01	 5.00000000E+00
	-7.45058000E-09	 1.00000000E+00	 5.00000000E+00
	 2.50000000E-01	 5.00000000E-01	 5.00000000E+00
	 2.50000000E-01	 1.00000000E+00	 5.00000000E+00
	-7.45058000E-09	 5.00000000E-01	 4.50000000E+00
	-7.45058000E-09	 7.50000000E-01	 5.00000000E+00
	-7.45058000E-09	 1.00000000E+00	 4.50000000E+00
	-7.45058000E-09	-1.49012000E-08	 5.00000000E+00
	 2.50000000E-01	-1.49012000E-08	 5.00000000E+00
	-7.45058000E-09	-1.49012000E-08	 4.50000000E+00
	-7.45058000E-09	 2.50000000E-01	 5.00000000E+00
	 1.00000000E+00	 5.00000000E-01	 6.00000000E+00
	 1.00000000E+00	 1.00000000E+00	 6.00000000E+00
	 5.00000000E-01	 5.00000000E-01	 6.00000000E+00
	 5.00000000E-01	 1.00000000E+00	 6.00000000E+00
	 1.00000000E+00	 5.00000000E-01	 5.50000000E+00
	 1.00000000E+00	 7.50000000E-01	 6.00000000E+00
	 1.00000000E+00	 1.00000000E+00	 5.50000000E+00
	 7.50000000E-01	 5.00000000E-01	 6.00000000E+00
	 7.50000000E-01	 1.00000000E+00	 6.00000000E+00
	 5.00000000E-01	 5.00000000E-01	 5.50000000E+00
	 5.00000000E-01	 7.50000000E-01	 6.00000000E+00
	 5.00000000E-01	 1.00000000E+00	 5.50000000E+00
	 1.00000000E+00	-1.49012000E-08	 6.00000000E+00
	 5.00000000E-01	-1.49012000E-08	 6.00000000E+00
	 1.00000000E+00	-1.49012000E-08	 5.50000000E+00
	 1.00000000E+00	 2.50000000E-01	 6.00000000E+00
	 7.50000000E-01	-1.49012000E-08	 6.00000000E+00
	 5.00000000E-01	-1.49012000E-08	 5.50000000E+00
	 5.00000000E-01	 2.50000000E-01	 6.00000000E+00
	-7.45058000E-09	 5.00000000E-01	 6.00000000E+00
	-7.45058000E-09	 1.00000000E+00	 6.00000000E+00
	 2.50000000E-01	 5.00000000E-01	 6.00000000E+00
	 2.50000000E-01	 1.00000000E+00	 6.00000000E+00
	-7.45058000E-09	 5.00000000E-01	 5.50000000E+00
	-7.45058000E-09	 7.50000000E-01	 6.00000000E+00
	-7.45058000E-09	 1.00000000E+00	 5.50000000E+00
	-7.45058000E-09	-1.49012000E-08	 6.00000000E+00
	 2.50000000E-01	-1.49012000E-08	 6.00000000E+00
	-7.45058000E-09	-1.49012000E-08	 5.50000000E+00
	-7.45058000E-09	 2.50000000E-01	 6.00000000E+00
	 1.00000000E+00	 5.00000000E-01	 7.00000000E+00
[...]
POINT_DATA 522
FIELD U 1
	U 3 522 double
		 0.00000000E+00	 0.00000000E+00	 0.00000000E+00
		 0.00000000E+00	 0.00000000E+00	 0.00000000E+00
		 5.51427000E-06	-2.85751000E-03	 1.36783000E-06
		 9.50468000E-05	-2.95002000E-03	 1.98784000E-03
		 0.00000000E+00	 0.00000000E+00	 0.00000000E+00
		 0.00000000E+00	 0.00000000E+00	 0.00000000E+00
		 5.77480000E-06	-2.65183000E-03	 3.98585000E-06
		 3.23707000E-04	-2.75690000E-03	 2.01771000E-03
		 0.00000000E+00	 0.00000000E+00	 0.00000000E+00
		 6.13542000E-06	-8.81622000E-04	 2.44295000E-06
		 5.14432000E-05	-2.86025000E-03	 9.23913000E-04
		-1.56571000E-04	-1.04321000E-03	 1.07641000E-03
		 0.00000000E+00	 0.00000000E+00	 0.00000000E+00
		 0.00000000E+00	 0.00000000E+00	 0.00000000E+00
		 5.47499000E-06	-2.79510000E-03	 2.58753000E-06
		 2.10706000E-04	-2.89552000E-03	 2.03810000E-03
		 0.00000000E+00	 0.00000000E+00	 0.00000000E+00
		 7.25311000E-06	-8.67634000E-04	 2.94591000E-06
		 1.64510000E-04	-2.65953000E-03	 9.73849000E-04
		 1.51608000E-04	-1.03970000E-03	 1.05345000E-03
		 0.00000000E+00	 0.00000000E+00	 0.00000000E+00
		-8.57565000E-05	-2.94240000E-03	-1.98780000E-03
		 0.00000000E+00	 0.00000000E+00	 0.00000000E+00
		-3.13280000E-04	-2.74654000E-03	-2.01223000E-03
		 0.00000000E+00	 0.00000000E+00	 0.00000000E+00
		 1.68463000E-04	-1.03730000E-03	-1.07217000E-03
		-4.10373000E-05	-2.85669000E-03	-9.21836000E-04
		 0.00000000E+00	 0.00000000E+00	 0.00000000E+00
		-2.01132000E-04	-2.88621000E-03	-2.03574000E-03
		 0.00000000E+00	 0.00000000E+00	 0.00000000E+00
		-1.37201000E-04	-1.03376000E-03	-1.04791000E-03
		-1.53304000E-04	-2.65435000E-03	-9.66642000E-04
		 0.00000000E+00	 0.00000000E+00	 0.00000000E+00
		 0.00000000E+00	 0.00000000E+00	 0.00000000E+00
		 7.10528000E-06	-2.22062000E-03	 6.18367000E-06
		 5.50258000E-04	-2.31856000E-03	 1.99281000E-03
		 0.00000000E+00	 0.00000000E+00	 0.00000000E+00
		 0.00000000E+00	 0.00000000E+00	 0.00000000E+00
		 6.36549000E-06	-2.47733000E-03	 5.23819000E-06
		 4.35038000E-04	-2.57838000E-03	 1.97398000E-03
		 0.00000000E+00	 0.00000000E+00	 0.00000000E+00
		 8.83049000E-06	-5.92889000E-04	 4.52633000E-06
		 2.78866000E-04	-2.22670000E-03	 9.95778000E-04
		 4.46102000E-04	-7.68985000E-04	 1.07864000E-03
		 0.00000000E+00	 0.00000000E+00	 0.00000000E+00
		-5.36790000E-04	-2.30626000E-03	-1.98267000E-03
		 0.00000000E+00	 0.00000000E+00	 0.00000000E+00
		-4.23305000E-04	-2.56719000E-03	-1.96559000E-03
		 0.00000000E+00	 0.00000000E+00	 0.00000000E+00
		-4.28150000E-04	-7.62499000E-04	-1.06990000E-03
		-2.64908000E-04	-2.22030000E-03	-9.84199000E-04
		 1.81210000E-05	-9.02049000E-03	-2.29666000E-05
		 5.48110000E-04	-9.08891000E-03	 3.24580000E-03
		 1.80448000E-05	-8.42703000E-03	-1.29543000E-05
		 6.69013000E-04	-8.49841000E-03	 3.27596000E-03
		 9.53070000E-06	-5.58921000E-03	-9.18369000E-06
		 2.83188000E-04	-9.04069000E-03	 1.54552000E-03
		 3.25683000E-04	-5.69689000E-03	 2.71374000E-03
		 1.81600000E-05	-8.73772000E-03	-1.80911000E-05
		 6.08307000E-04	-8.80728000E-03	 3.28686000E-03
		 8.95248000E-06	-5.17837000E-03	-1.21685000E-06
		 3.44217000E-04	-8.44869000E-03	 1.59015000E-03
		 5.14763000E-04	-5.28502000E-03	 2.73424000E-03
		-5.12056000E-04	-9.06807000E-03	-3.29253000E-03
		-6.34014000E-04	-8.47617000E-03	-3.30295000E-03
		-3.07896000E-04	-5.68382000E-03	-2.73510000E-03
		-2.46457000E-04	-9.03205000E-03	-1.59155000E-03
		-5.72590000E-04	-8.78526000E-03	-3.32403000E-03
		-4.98145000E-04	-5.26894000E-03	-2.73970000E-03
		-3.08261000E-04	-8.43871000E-03	-1.61635000E-03
		 1.79545000E-05	-7.71754000E-03	-1.26341000E-06
		 7.94796000E-04	-7.78261000E-03	 3.26752000E-03
		 1.77041000E-05	-8.08522000E-03	-7.83357000E-06
		 7.32419000E-04	-8.15556000E-03	 3.26793000E-03
		 9.29101000E-06	-4.57621000E-03	 6.38390000E-06
		 4.05054000E-04	-7.73602000E-03	 1.59616000E-03
		 7.12837000E-04	-4.67830000E-03	 2.72918000E-03
		-7.60336000E-04	-7.75925000E-03	-3.27092000E-03
		-6.98396000E-04	-8.13302000E-03	-3.28462000E-03
		-6.95480000E-04	-4.66004000E-03	-2.71960000E-03
		-3.69389000E-04	-7.72512000E-03	-1.59894000E-03
		 3.17685000E-05	-1.67819000E-02	-5.14638000E-05
		 9.64695000E-04	-1.67456000E-02	 3.25279000E-03
		 3.61001000E-05	-1.59135000E-02	-3.29497000E-05
		 8.55616000E-04	-1.58732000E-02	 3.28741000E-03
		 2.16211000E-05	-1.28978000E-02	-3.91794000E-05
		 4.95994000E-04	-1.67799000E-02	 1.53925000E-03
		 7.51181000E-04	-1.29143000E-02	 3.42890000E-03
		 3.36738000E-05	-1.63326000E-02	-4.14157000E-05
		 9.10140000E-04	-1.62931000E-02	 3.29350000E-03
		 2.32130000E-05	-1.21668000E-02	-2.66002000E-05
		 4.45339000E-04	-1.59102000E-02	 1.58624000E-03
		 7.57900000E-04	-1.21822000E-02	 3.46929000E-03
		-9.00736000E-04	-1.67157000E-02	-3.35222000E-03
		-7.82109000E-04	-1.58436000E-02	-3.35067000E-03
		-7.09201000E-04	-1.28899000E-02	-3.50371000E-03
		-4.33086000E-04	-1.67641000E-02	-1.64159000E-03
		-8.41773000E-04	-1.62634000E-02	-3.37285000E-03
		-7.11998000E-04	-1.21553000E-02	-3.51962000E-03
		-3.73013000E-04	-1.58951000E-02	-1.65145000E-03
		 4.07092000E-05	-1.51465000E-02	-1.65966000E-05
		 7.40681000E-04	-1.51139000E-02	 3.28626000E-03
		 3.85982000E-05	-1.55157000E-02	-2.45024000E-05
		 7.97902000E-04	-1.54762000E-02	 3.28828000E-03
		 2.61975000E-05	-1.14282000E-02	-1.09806000E-05
		 3.93369000E-04	-1.51461000E-02	 1.59568000E-03
		 7.67698000E-04	-1.14448000E-02	 3.45670000E-03
		-6.57792000E-04	-1.50873000E-02	-3.31772000E-03
		-7.19248000E-04	-1.54479000E-02	-3.33547000E-03
		-7.16315000E-04	-1.14165000E-02	-3.47647000E-03
		-3.11929000E-04	-1.51332000E-02	-1.62818000E-03
		 4.78114000E-05	-2.27179000E-02	-5.03798000E-05
		 1.29084000E-03	-2.26766000E-02	 2.31569000E-03
		 4.87227000E-05	-2.15218000E-02	-4.25782000E-05
		 1.19897000E-03	-2.14812000E-02	 2.30569000E-03
		 4.61935000E-05	-2.00923000E-02	-4.98461000E-05
		 6.68133000E-04	-2.27116000E-02	 1.14814000E-03
		 1.13602000E-03	-2.00544000E-02	 2.76985000E-03
		 4.89825000E-05	-2.21058000E-02	-4.76647000E-05
		 1.24410000E-03	-2.20645000E-02	 2.33664000E-03
		 4.73126000E-05	-1.90798000E-02	-3.55593000E-05
		 6.23498000E-04	-2.15186000E-02	 1.17536000E-03
		 9.93318000E-04	-1.90351000E-02	 2.78225000E-03
		-1.19931000E-03	-2.26695000E-02	-2.41909000E-03
		-1.10514000E-03	-2.14681000E-02	-2.39279000E-03
		-1.03926000E-03	-2.00259000E-02	-2.87458000E-03
		-5.73295000E-04	-2.27110000E-02	-1.24919000E-03
		-1.15048000E-03	-2.20534000E-02	-2.43464000E-03
		-8.96605000E-04	-1.90128000E-02	-2.85588000E-03
		-5.27086000E-04	-2.15124000E-02	-1.26089000E-03
		 4.75271000E-05	-2.04068000E-02	-3.07469000E-05
		 1.09458000E-03	-2.03825000E-02	 2.33913000E-03
		 4.83747000E-05	-2.09515000E-02	-3.69446000E-05
		 1.14739000E-03	-2.09141000E-02	 2.26860000E-03
		 4.64635000E-05	-1.82008000E-02	-2.46421000E-05
		 5.75992000E-04	-2.04121000E-02	 1.24811000E-03
		 8.36703000E-04	-1.81708000E-02	 2.79685000E-03
		-1.00071000E-03	-2.03657000E-02	-2.40217000E-03
		-1.05327000E-03	-2.08999000E-02	-2.34342000E-03
		-7.41019000E-04	-1.81525000E-02	-2.84638000E-03
		-4.80556000E-04	-2.04017000E-02	-1.31030000E-03
		 4.59588000E-05	-2.72690000E-02	-5.31978000E-05
		 1.80993000E-03	-2.73671000E-02	 2.50217000E-03
		 4.93135000E-05	-2.54258000E-02	-3.78474000E-05
		 1.98287000E-03	-2.55195000E-02	 2.49734000E-03
		 4.80225000E-05	-2.49296000E-02	-5.65126000E-05
		 9.29632000E-04	-2.72979000E-02	 1.22205000E-03
		 1.50438000E-03	-2.49433000E-02	 2.20923000E-03
		 4.65167000E-05	-2.63687000E-02	-4.55923000E-05
		 1.89503000E-03	-2.64671000E-02	 2.55125000E-03
		 5.52103000E-05	-2.34556000E-02	-4.37754000E-05
		 1.01517000E-03	-2.54501000E-02	 1.28616000E-03
		 1.55157000E-03	-2.34773000E-02	 2.19147000E-03
		-1.69556000E-03	-2.73168000E-02	-2.60544000E-03
		-1.86546000E-03	-2.54924000E-02	-2.57182000E-03
		-1.41469000E-03	-2.49334000E-02	-2.31148000E-03
		-8.29172000E-04	-2.72673000E-02	-1.32817000E-03
		-1.78021000E-03	-2.64292000E-02	-2.63975000E-03
		-1.44554000E-03	-2.34637000E-02	-2.27426000E-03
		-9.08873000E-04	-2.54352000E-02	-1.36243000E-03
		 5.87064000E-05	-2.34209000E-02	-2.72224000E-05
		 2.15520000E-03	-2.35079000E-02	 2.53306000E-03
		 5.35455000E-05	-2.44460000E-02	-2.98912000E-05
		 2.06898000E-03	-2.45373000E-02	 2.43711000E-03
		 6.33722000E-05	-2.19395000E-02	-2.96363000E-05
		 1.10439000E-03	-2.34410000E-02	 1.39065000E-03
		 1.58750000E-03	-2.19717000E-02	 2.23405000E-03
		-2.02768000E-03	-2.34940000E-02	-2.58555000E-03
		-1.94716000E-03	-2.45169000E-02	-2.49709000E-03
		-1.46747000E-03	-2.19538000E-02	-2.29481000E-03
		-9.83989000E-04	-2.34353000E-02	-1.44480000E-03
		 7.17692000E-05	-3.44704000E-02	-8.56261000E-05
		 2.64949000E-03	-3.46060000E-02	 4.07989000E-03
		 7.92626000E-05	-3.17402000E-02	-6.20973000E-05
		 2.91922000E-03	-3.18959000E-02	 4.11589000E-03
		 5.49915000E-05	-3.03470000E-02	-5.74571000E-05
		 1.36474000E-03	-3.44984000E-02	 1.91607000E-03
		 2.19141000E-03	-3.04681000E-02	 3.21747000E-03
		 7.67967000E-05	-3.31399000E-02	-7.30200000E-05
		 2.78693000E-03	-3.32883000E-02	 4.16926000E-03
		 5.46777000E-05	-2.80733000E-02	-4.20492000E-05
		 1.50103000E-03	-3.17801000E-02	 2.01788000E-03
		 2.43840000E-03	-2.82057000E-02	 3.23296000E-03
		-2.53216000E-03	-3.45896000E-02	-4.26118000E-03
		-2.79177000E-03	-3.18507000E-02	-4.24935000E-03
		-2.08379000E-03	-3.04315000E-02	-3.35076000E-03
		-1.22965000E-03	-3.44973000E-02	-2.08820000E-03
		-2.66247000E-03	-3.32547000E-02	-4.32851000E-03
		-2.33133000E-03	-2.81626000E-02	-3.32289000E-03
		-1.35400000E-03	-3.17577000E-02	-2.14375000E-03
		 8.51783000E-05	-2.87689000E-02	-2.14384000E-05
		 3.19006000E-03	-2.89305000E-02	 4.15457000E-03
		 8.16710000E-05	-3.02871000E-02	-4.70963000E-05
		 3.05244000E-03	-3.04471000E-02	 4.06922000E-03
		 5.33528000E-05	-2.55681000E-02	-2.40911000E-05
		 1.63720000E-03	-2.88167000E-02	 2.12096000E-03
		 2.68730000E-03	-2.56933000E-02	 3.27356000E-03
		-3.05477000E-03	-2.88453000E-02	-4.20212000E-03
		-2.92393000E-03	-3.03851000E-02	-4.16404000E-03
		-2.57313000E-03	-2.56478000E-02	-3.31728000E-03
		-1.47854000E-03	-2.87677000E-02	-2.16578000E-03
		 6.38329000E-05	-4.55364000E-02	-1.74217000E-04
		 3.60236000E-03	-4.56537000E-02	 5.36277000E-03
		 8.50092000E-05	-4.19580000E-02	-1.08688000E-04
		 3.73741000E-03	-4.20506000E-02	 5.44381000E-03
		 6.46160000E-05	-3.96630000E-02	-1.25892000E-04
		 1.82635000E-03	-4.55810000E-02	 2.50780000E-03
		 3.15421000E-03	-3.97909000E-02	 4.84315000E-03
		 6.77871000E-05	-4.37644000E-02	-1.44737000E-04
		 3.66451000E-03	-4.38657000E-02	 5.45608000E-03
		 8.41273000E-05	-3.64701000E-02	-8.56449000E-05
		 1.90878000E-03	-4.19869000E-02	 2.63377000E-03
		 3.36845000E-03	-3.65954000E-02	 4.89204000E-03
		-3.45493000E-03	-4.55593000E-02	-5.68658000E-03
		-3.54286000E-03	-4.19857000E-02	-5.64300000E-03
		-3.03317000E-03	-3.97442000E-02	-5.07875000E-03
		-1.69225000E-03	-4.55336000E-02	-2.84741000E-03
		-3.50416000E-03	-4.37836000E-02	-5.71317000E-03
		-3.20416000E-03	-3.65414000E-02	-5.06754000E-03
		-1.73057000E-03	-4.19608000E-02	-2.84119000E-03
		 1.23368000E-04	-3.82530000E-02	-5.26480000E-05
		 3.89317000E-03	-3.83371000E-02	 5.47843000E-03
		 1.07628000E-04	-4.01193000E-02	-7.66443000E-05
		 3.81908000E-03	-4.02057000E-02	 5.42604000E-03
		 1.13536000E-04	-3.30870000E-02	-2.73950000E-05
		 2.00886000E-03	-3.82744000E-02	 2.71769000E-03
		 3.59140000E-03	-3.32163000E-02	 4.92299000E-03
		-3.64399000E-03	-3.82858000E-02	-5.59820000E-03
		-3.58857000E-03	-4.01543000E-02	-5.59231000E-03
		-3.38982000E-03	-3.31393000E-02	-4.99741000E-03
		-1.75979000E-03	-3.82589000E-02	-2.82321000E-03
		 1.70908000E-04	-5.76424000E-02	-2.83217000E-04
		 4.09153000E-03	-5.77369000E-02	 5.55697000E-03
		 1.21517000E-04	-5.37567000E-02	-1.86028000E-04
		 4.06030000E-03	-5.38670000E-02	 5.71203000E-03
		 9.57291000E-05	-5.16568000E-02	-2.33545000E-04
		 2.14129000E-03	-5.76988000E-02	 2.61665000E-03
		 3.91082000E-03	-5.17441000E-02	 5.54899000E-03
		 1.53956000E-04	-5.56924000E-02	-2.23387000E-04
		 4.07891000E-03	-5.58050000E-02	 5.64301000E-03
		 9.89787000E-05	-4.78305000E-02	-1.41870000E-04
		 2.09350000E-03	-5.38186000E-02	 2.74826000E-03
		 3.96627000E-03	-4.79094000E-02	 5.68020000E-03
		-3.80119000E-03	-5.75874000E-02	-6.07243000E-03
		-3.80563000E-03	-5.36675000E-02	-6.00735000E-03
		-3.71167000E-03	-5.16318000E-02	-5.97894000E-03
		-1.81887000E-03	-5.76132000E-02	-3.16216000E-03
		-3.79843000E-03	-5.56218000E-02	-6.04165000E-03
		-3.73452000E-03	-4.78095000E-02	-5.91035000E-03
		-1.84750000E-03	-5.37085000E-02	-3.09912000E-03
		 7.73033000E-05	-4.98418000E-02	-1.64468000E-04
		 4.05000000E-03	-4.98958000E-02	 5.72430000E-03
		 8.85834000E-05	-5.18057000E-02	-1.66369000E-04
		 4.05423000E-03	-5.18927000E-02	 5.73531000E-03
		 1.13846000E-04	-4.39567000E-02	-1.05286000E-04
		 2.05575000E-03	-4.98680000E-02	 2.76626000E-03
		 4.05723000E-03	-4.39964000E-02	 5.70390000E-03
		-3.82205000E-03	-4.98092000E-02	-6.00690000E-03
		-3.82088000E-03	-5.17251000E-02	-6.00128000E-03
		-3.77060000E-03	-4.39629000E-02	-5.90035000E-03
		-1.89225000E-03	-4.98293000E-02	-3.08603000E-03
		 0.00000000E+00	 0.00000000E+00	 0.00000000E+00
		 0.00000000E+00	 0.00000000E+00	 0.00000000E+00
		-2.50078000E-05	-1.72174000E-02	-2.37928000E-04
		-2.78851000E-03	-1.84795000E-02	 1.64345000E-02
		 0.00000000E+00	 0.00000000E+00	 0.00000000E+00
		 0.00000000E+00	 0.00000000E+00	 0.00000000E+00
		-3.93640000E-05	-1.88595000E-02	-3.26867000E-04
		-6.30064000E-04	-2.02069000E-02	 1.65409000E-02
		 0.00000000E+00	 0.00000000E+00	 0.00000000E+00
		 2.32414000E-05	-3.58774000E-03	-5.26121000E-05
		-1.40819000E-03	-1.74668000E-02	 7.94835000E-03
		-2.78232000E-03	-5.11449000E-03	 8.42793000E-03
		 0.00000000E+00	 0.00000000E+00	 0.00000000E+00
		 0.00000000E+00	 0.00000000E+00	 0.00000000E+00
		-2.99262000E-05	-1.84029000E-02	-2.95357000E-04
		-1.68962000E-03	-1.97097000E-02	 1.64260000E-02
		 0.00000000E+00	 0.00000000E+00	 0.00000000E+00
		-1.00397000E-05	-4.98259000E-03	-9.83052000E-05
		-3.35979000E-04	-1.91366000E-02	 7.89431000E-03
		-2.80998000E-04	-6.50754000E-03	 8.15711000E-03
		 0.00000000E+00	 0.00000000E+00	 0.00000000E+00
		 2.69278000E-03	-1.78420000E-02	-1.70071000E-02
		 0.00000000E+00	 0.00000000E+00	 0.00000000E+00
		 5.54280000E-04	-1.95536000E-02	-1.73014000E-02
		 0.00000000E+00	 0.00000000E+00	 0.00000000E+00
		 2.80460000E-03	-4.88776000E-03	-8.56612000E-03
		 1.34079000E-03	-1.71477000E-02	-8.45389000E-03
		 0.00000000E+00	 0.00000000E+00	 0.00000000E+00
		 1.61497000E-03	-1.90555000E-02	-1.71184000E-02
		 0.00000000E+00	 0.00000000E+00	 0.00000000E+00
		 2.67876000E-04	-6.30229000E-03	-8.37360000E-03
		 2.56117000E-04	-1.88092000E-02	-8.58320000E-03
		 0.00000000E+00	 0.00000000E+00	 0.00000000E+00
		 0.00000000E+00	 0.00000000E+00	 0.00000000E+00
		-5.71429000E-05	-1.83994000E-02	-3.29357000E-04
		 1.52803000E-03	-1.96554000E-02	 1.63484000E-02
		 0.00000000E+00	 0.00000000E+00	 0.00000000E+00
		 0.00000000E+00	 0.00000000E+00	 0.00000000E+00
		-4.83895000E-05	-1.89934000E-02	-3.39655000E-04
		 4.31641000E-04	-2.02963000E-02	 1.65029000E-02
		 0.00000000E+00	 0.00000000E+00	 0.00000000E+00
		-5.00604000E-05	-4.13412000E-03	-9.73671000E-05
		 7.35064000E-04	-1.86424000E-02	 7.73861000E-03
		 2.23638000E-03	-5.62413000E-03	 8.38534000E-03
		 0.00000000E+00	 0.00000000E+00	 0.00000000E+00
		-1.59513000E-03	-1.90243000E-02	-1.70955000E-02
		 0.00000000E+00	 0.00000000E+00	 0.00000000E+00
		-5.10888000E-04	-1.96453000E-02	-1.72821000E-02
		 0.00000000E+00	 0.00000000E+00	 0.00000000E+00
		-2.30134000E-03	-5.42339000E-03	-8.60969000E-03
		-8.32503000E-04	-1.83336000E-02	-8.42291000E-03
		-7.98913000E-05	-6.58573000E-02	-1.45329000E-03
		-2.84377000E-03	-6.74604000E-02	 2.76911000E-02
		-7.79503000E-05	-6.78545000E-02	-1.57304000E-03
		-1.33603000E-03	-6.94673000E-02	 2.76376000E-02
		-5.24589000E-05	-3.83980000E-02	-6.94164000E-04
		-1.46306000E-03	-6.64924000E-02	 1.29977000E-02
		-2.86840000E-03	-3.99471000E-02	 2.28255000E-02
		-7.91862000E-05	-6.70187000E-02	-1.52796000E-03
		-2.09080000E-03	-6.86256000E-02	 2.76543000E-02
		-6.70836000E-05	-4.02691000E-02	-8.04334000E-04
		-7.01648000E-04	-6.84988000E-02	 1.29134000E-02
		-1.00887000E-03	-4.18211000E-02	 2.28054000E-02
		 2.67144000E-03	-6.56970000E-02	-3.07056000E-02
		 1.17445000E-03	-6.77032000E-02	-3.08911000E-02
		 2.72423000E-03	-3.87850000E-02	-2.43391000E-02
		 1.29793000E-03	-6.56270000E-02	-1.59292000E-02
		 1.92603000E-03	-6.68638000E-02	-3.08149000E-02
		 8.76176000E-04	-4.06441000E-02	-2.45401000E-02
		 5.48914000E-04	-6.76321000E-02	-1.60817000E-02
		-8.13587000E-05	-6.83625000E-02	-1.59672000E-03
		 1.89275000E-04	-6.99477000E-02	 2.75484000E-02
		-8.00910000E-05	-6.82693000E-02	-1.59461000E-03
		-5.72052000E-04	-6.99040000E-02	 2.76602000E-02
		-8.45100000E-05	-4.02812000E-02	-8.17014000E-04
		 4.91321000E-05	-6.89817000E-02	 1.27835000E-02
		 8.47659000E-04	-4.18246000E-02	 2.27035000E-02
		-3.14733000E-04	-6.82090000E-02	-3.08470000E-02
		 4.27575000E-04	-6.81139000E-02	-3.09568000E-02
		-9.64358000E-04	-4.06800000E-02	-2.44588000E-02
		-1.99201000E-04	-6.81368000E-02	-1.59980000E-02
		-1.20736000E-05	-1.34394000E-01	-3.84444000E-03
		-2.75740000E-03	-1.36224000E-01	 3.33945000E-02
		-5.74722000E-06	-1.36613000E-01	-3.91180000E-03
		-1.76316000E-03	-1.38567000E-01	 3.33839000E-02
		-6.89697000E-05	-9.81434000E-02	-2.50530000E-03
		-1.37804000E-03	-1.35175000E-01	 1.46811000E-02
		-2.80338000E-03	-9.98980000E-02	 3.11073000E-02
		-9.07185000E-06	-1.35633000E-01	-3.88449000E-03
		-2.26345000E-03	-1.37538000E-01	 3.33651000E-02
		-6.87831000E-05	-1.00253000E-01	-2.61138000E-03
		-9.07136000E-04	-1.37457000E-01	 1.46156000E-02
		-1.57340000E-03	-1.02023000E-01	 3.10651000E-02
		 2.68083000E-03	-1.33472000E-01	-4.11451000E-02
		 1.74492000E-03	-1.35693000E-01	-4.13051000E-02
		 2.64179000E-03	-9.76132000E-02	-3.62151000E-02
		 1.33610000E-03	-1.33813000E-01	-2.23790000E-02
		 2.21062000E-03	-1.34704000E-01	-4.12247000E-02
		 1.43369000E-03	-9.97044000E-02	-3.63817000E-02
		 8.71512000E-04	-1.36038000E-01	-2.24779000E-02
		 4.18504000E-06	-1.37892000E-01	-3.90978000E-03
		-8.56301000E-04	-1.39957000E-01	 3.33212000E-02
		-1.54347000E-06	-1.37391000E-01	-3.92108000E-03
		-1.31361000E-03	-1.39279000E-01	 3.34209000E-02
		-5.66886000E-05	-1.01144000E-01	-2.63016000E-03
		-3.96797000E-04	-1.38792000E-01	 1.45096000E-02
		-3.71792000E-04	-1.02948000E-01	 3.09874000E-02
		 8.20911000E-04	-1.36988000E-01	-4.12654000E-02
		 1.28138000E-03	-1.36456000E-01	-4.13649000E-02
		 2.24314000E-04	-1.00597000E-01	-3.63430000E-02
		 4.06269000E-04	-1.37340000E-01	-2.23895000E-02
		 3.40857000E-04	-2.15534000E-01	-7.20359000E-03
		-2.37229000E-03	-2.17286000E-01	 3.42440000E-02
		 3.39957000E-04	-2.18175000E-01	-7.18849000E-03
		-2.21948000E-03	-2.20396000E-01	 3.43297000E-02
		 9.83608000E-05	-1.73872000E-01	-5.42881000E-03
		-1.01387000E-03	-2.16363000E-01	 1.33938000E-02
		-2.61248000E-03	-1.75796000E-01	 3.44186000E-02
		 3.40953000E-04	-2.16853000E-01	-7.19649000E-03
		-2.28657000E-03	-2.18786000E-01	 3.42842000E-02
		 9.58604000E-05	-1.76307000E-01	-5.49659000E-03
		-8.14655000E-04	-2.19225000E-01	 1.34287000E-02
		-2.03946000E-03	-1.78192000E-01	 3.45099000E-02
		 2.87920000E-03	-2.13972000E-01	-4.86814000E-02
		 2.59791000E-03	-2.16441000E-01	-4.87253000E-02
		 2.77825000E-03	-1.72587000E-01	-4.53381000E-02
		 1.61017000E-03	-2.14739000E-01	-2.78035000E-02
		 2.73992000E-03	-2.15234000E-01	-4.87068000E-02
		 2.15471000E-03	-1.74972000E-01	-4.54577000E-02
		 1.45733000E-03	-2.17264000E-01	-2.78138000E-02
		 2.06152000E-04	-2.20568000E-01	-7.15094000E-03
		-1.91078000E-03	-2.23143000E-01	 3.43056000E-02
		 2.74351000E-04	-2.19366000E-01	-7.17811000E-03
		-2.06526000E-03	-2.22297000E-01	 3.43917000E-02
		 7.44709000E-05	-1.78118000E-01	-5.54317000E-03
		-9.72013000E-04	-2.21772000E-01	 1.33544000E-02
		-1.26986000E-03	-1.79878000E-01	 3.44610000E-02
		 2.32565000E-03	-2.18667000E-01	-4.86081000E-02