<?xml version="1.0"?>
<VTKFile type="UnstructuredGrid" version="0.1" byte_order="LittleEndian">
	<UnstructuredGrid>
		<Piece NumberOfPoints="522" NumberOfCells="64">
			<Points>
				<DataArray type="Float64" NumberOfComponents="3" format="ascii">
					 1.00000000E+00	 1.00000000E+00	-5.96046000E-08
					 1.00000000E+00	 5.00000000E-01	-5.96046000E-08
					 1.00000000E+00	 5.00000000E-01	 1.00000000E+00
					 1.00000000E+00	 1.00000000E+00	 1.00000000E+00
					 5.00000000E-01	 1.00000000E+00	-5.96046000E-08
					 5.00000000E-01	 5.00000000E-01	-5.96046000E-08
					 5.00000000E-01	 5.00000000E-01	 1.00000000E+00
					 5.00000000E-01	 1.00000000E+00	 1.00000000E+00
					 1.00000000E+00	 7.50000000E-01	-5.96046000E-08
					 1.00000000E+00	 5.00000000E-01	 5.00000000E-01
					 1.00000000E+00	 7.50000000E-01	 1.00000000E+00
					 1.00000000E+00	 1.00000000E+00	 5.00000000E-01
					 7.50000000E-01	 1.00000000E+00	-5.96046000E-08
					 7.50000000E-01	 5.00000000E-01	-5.96046000E-08
					 7.50000000E-01	 5.00000000E-01	 1.00000000E+00
					 7.50000000E-01	 1.00000000E+00	 1.00000000E+00
					 5.00000000E-01	 7.50000000E-01	-5.96046000E-08
					 5.00000000E-01	 5.00000000E-01	 5.00000000E-01
					 5.00000000E-01	 7.50000000E-01	 1.00000000E+00
					 5.00000000E-01	 1.00000000E+00	 5.00000000E-01
					 1.00000000E+00	-1.49012000E-08	-5.96046000E-08
					 1.00000000E+00	-1.49012000E-08	 1.00000000E+00
					 5.00000000E-01	-1.49012000E-08	-5.96046000E-08
					 5.00000000E-01	-1.49012000E-08	 1.00000000E+00
					 1.00000000E+00	 2.50000000E-01	-5.96046000E-08
					 1.00000000E+00	-1.49012000E-08	 5.00000000E-01
					 1.00000000E+00	 2.50000000E-01	 1.00000000E+00
					 7.50000000E-01	-1.49012000E-08	-5.96046000E-08
					 7.50000000E-01	-1.49012000E-08	 1.00000000E+00
					 5.00000000E-01	 2.50000000E-01	-5.96046000E-08
					 5.00000000E-01	-1.49012000E-08	 5.00000000E-01
					 5.00000000E-01	 2.50000000E-01	 1.00000000E+00
					-7.45058000E-09	 1.00000000E+00	-5.96046000E-08
					-7.45058000E-09	 5.00000000E-01	-5.96046000E-08
					-7.45058000E-09	 5.00000000E-01	 1.00000000E+00
					-7.45058000E-09	 1.00000000E+00	 1.00000000E+00
					 2.50000000E-01	 1.00000000E+00	-5.96046000E-08
					 2.50000000E-01	 5.00000000E-01	-5.96046000E-08
					 2.50000000E-01	 5.00000000E-01	 1.00000000E+00
					 2.50000000E-01	 1.00000000E+00	 1.00000000E+00
					-7.45058000E-09	 7.50000000E-01	-5.96046000E-08
					-7.45058000E-09	 5.00000000E-01	 5.00000000E-01
					-7.45058000E-09	 7.50000000E-01	 1.00000000E+00
					-7.45058000E-09	 1.00000000E+00	 5.00000000E-01
					-7.45058000E-09	-1.49012000E-08	-5.96046000E-08
					-7.45058000E-09	-1.49012000E-08	 1.00000000E+00
					 2.50000000E-01	-1.49012000E-08	-5.96046000E-08
					 2.50000000E-01	-1.49012000E-08	 1.00000000E+00
					-7.45058000E-09	 2.50000000E-01	-5.96046000E-08
					-7.45058000E-09	-1.49012000E-08	 5.00000000E-01
					-7.45058000E-09	 2.50000000E-01	 1.00000000E+00
					 1.00000000E+00	 5.00000000E-01	 2.00000000E+00
					 1.00000000E+00	 1.00000000E+00	 2.00000000E+00
					 5.00000000E-01	 5.00000000E-01	 2.00000000E+00
					 5.00000000E-01	 1.00000000E+00	 2.00000000E+00
					 1.00000000E+00	 5.00000000E-01	 1.50000000E+00
					 1.00000000E+00	 7.50000000E-01	 2.00000000E+00
					 1.00000000E+00	 1.00000000E+00	 1.50000000E+00
					 7.50000000E-01	 5.00000000E-01	 2.00000000E+00
					 7.50000000E-01	 1.00000000E+00	 2.00000000E+00
					 5.00000000E-01	 5.00000000E-01	 1.50000000E+00
					 5.00000000E-01	 7.50000000E-01	 2.00000000E+00
					 5.00000000E-01	 1.00000000E+00	 1.50000000E+00
					 1.00000000E+00	-1.49012000E-08	 2.00000000E+00
					 5.00000000E-01	-1.49012000E-08	 2.00000000E+00
					 1.00000000E+00	-1.49012000E-08	 1.50000000E+00
					 1.00000000E+00	 2.50000000E-01	 2.00000000E+00
					 7.50000000E-01	-1.49012000E-08	 2.00000000E+00
					 5.00000000E-01	-1.49012000E-08	 1.50000000E+00
					 5.00000000E-01	 2.50000000E-01	 2.00000000E+00
					-7.45058000E-09	 5.00000000E-01	 2.00000000E+00
					-7.45058000E-09	 1.00000000E+00	 2.00000000E+00
					 2.50000000E-01	 5.00000000E-01	 2.00000000E+00
					 2.50000000E-01	 1.00000000E+00	 2.00000000E+00
					-7.45058000E-09	 5.00000000E-01	 1.50000000E+00
					-7.45058000E-09	 7.50000000E-01	 2.00000000E+00
					-7.45058000E-09	 1.00000000E+00	 1.50000000E+00
					-7.45058000E-09	-1.49012000E-08	 2.00000000E+00
					 2.50000000E-01	-1.49012000E-08	 2.00000000E+00
					-7.45058000E-09	-1.49012000E-08	 1.50000000E+00
					-7.45058000E-09	 2.50000000E-01	 2.00000000E+00
					 1.00000000E+00	 5.00000000E-01	 3.00000000E+00
					 1.00000000E+00	 1.00000000E+00	 3.00000000E+00
					 5.00000000E-01	 5.00000000E-01	 3.00000000E+00
					 5.00000000E-01	 1.00000000E+00	 3.00000000E+00
					 1.00000000E+00	 5.00000000E-01	 2.50000000E+00
					 1.00000000E+00	 7.50000000E-01	 3.00000000E+00
					 1.00000000E+00	 1.00000000E+00	 2.50000000E+00
					 7.50000000E-01	 5.00000000E-01	 3.00000000E+00
					 7.50000000E-01	 1.00000000E+00	 3.00000000E+00
					 5.00000000E-01	 5.00000000E-01	 2.50000000E+00
					 5.00000000E-01	 7.50000000E-01	 3.00000000E+00
					 5.00000000E-01	 1.00000000E+00	 2.50000000E+00
					 1.00000000E+00	-1.49012000E-08	 3.00000000E+00
					 5.00000000E-01	-1.49012000E-08	 3.00000000E+00
					 1.00000000E+00	-1.49012000E-08	 2.50000000E+00
					 1.00000000E+00	 2.50000000E-01	 3.00000000E+00
					 7.50000000E-01	-1.49012000E-08	 3.00000000E+00
					 5.00000000E-01	-1.49012000E-08	 2.50000000E+00
					 5.00000000E-01	 2.50000000E-01	 3.00000000E+00
					-7.45058000E-09	 5.00000000E-01	 3.00000000E+00
					-7.45058000E-09	 1.00000000E+00	 3.00000000E+00
					 2.50000000E-01	 5.00000000E-01	 3.00000000E+00
					 2.50000000E-01	 1.00000000E+00	 3.00000000E+00
					-7.45058000E-09	 5.00000000E-01	 2.50000000E+00
					-7.45058000E-09	 7.50000000E-01	 3.00000000E+00
					-7.45058000E-09	 1.00000000E+00	 2.50000000E+00
					-7.45058000E-09	-1.49012000E-08	 3.00000000E+00
					 2.50000000E-01	-1.49012000E-08	 3.00000000E+00
					-7.45058000E-09	-1.49012000E-08	 2.50000000E+00
					-7.45058000E-09	 2.50000000E-01	 3.00000000E+00
					 1.00000000E+00	 5.00000000E-01	 4.00000000E+00
					 1.00000000E+00	 1.00000000E+00	 4.00000000E+00
					 5.00000000E-01	 5.00000000E-01	 4.00000000E+00
					 5.00000000E-01	 1.00000000E+00	 4.00000000E+00
					 1.00000000E+00	 5.00000000E-01	 3.50000000E+00
					 1.00000000E+00	 7.50000000E-01	 4.00000000E+00
					 1.00000000E+00	 1.00000000E+00	 3.50000000E+00
					 7.50000000E-01	 5.00000000E-01	 4.00000000E+00
					 7.50000000E-01	 1.00000000E+00	 4.00000000E+00
					 5.00000000E-01	 5.00000000E-01	 3.50000000E+00
					 5.00000000E-01	 7.50000000E-01	 4.00000000E+00
					 5.00000000E-01	 1.00000000E+00	 3.50000000E+00
					 1.00000000E+00	-1.49012000E-08	 4.00000000E+00
					 5.00000000E-01	-1.49012000E-08	 4.00000000E+00
					 1.00000000E+00	-1.49012000E-08	 3.50000000E+00
					 1.00000000E+00	 2.50000000E-01	 4.00000000E+00
					 7.50000000E-01	-1.49012000E-08	 4.00000000E+00
					 5.00000000E-01	-1.49012000E-08	 3.50000000E+00
					 5.00000000E-01	 2.50000000E-01	 4.00000000E+00
					-7.45058000E-09	 5.00000000E-01	 4.00000000E+00
					-7.45058000E-09	 1.00000000E+00	 4.00000000E+00
					 2.50000000E-01	 5.00000000E-01	 4.00000000E+00
					 2.50000000E-01	 1.00000000E+00	 4.00000000E+00
					-7.45058000E-09	 5.00000000E-01	 3.50000000E+00
					-7.45058000E-09	 7.50000000E-01	 4.00000000E+00
					-7.45058000E-09	 1.00000000E+00	 3.50000000E+00
					-7.45058000E-09	-1.49012000E-08	 4.00000000E+00
					 2.50000000E-01	-1.49012000E-08	 4.00000000E+00
					-7.45058000E-09	-1.49012000E-08	 3.50000000E+00
					-7.45058000E-09	 2.50000000E-01	 4.00000000E+00
					 1.00000000E+00	 5.00000000E-01	 5.00000000E+00
					 1.00000000E+00	 1.00000000E+00	 5.00000000E+00
					 5.00000000E-01	 5.00000000E-01	 5.00000000E+00
					 5.00000000E-01	 1.00000000E+00	 5.00000000E+00
					 1.00000000E+00	 5.00000000E-01	 4.50000000E+00
					 1.00000000E+00	 7.50000000E-01	 5.00000000E+00
					 1.00000000E+00	 1.00000000E+00	 4.50000000E+00
					 7.50000000E-01	 5.00000000E-01	 5.00000000E+00
					 7.50000000E-01	 1.00000000E+00	 5.00000000E+00
					 5.00000000E-01	 5.00000000E-01	 4.50000000E+00
					 5.00000000E-01	 7.50000000E-01	 5.00000000E+00
					 5.00000000E-01	 1.00000000E+00	 4.50000000E+00
					 1.00000000E+00	-1.49012000E-08	 5.00000000E+00
					 5.00000000E-01	-1.49012000E-08	 5.00000000E+00
					 1.00000000E+00	-1.49012000E-08	 4.50000000E+00
					 1.00000000E+00	 2.50000000E-01	 5.00000000E+00
					 7.50000000E-01	-1.49012000E-08	 5.00000000E+00
					 5.00000000E-01	-1.49012000E-08	 4.50000000E+00
					 5.00000000E-01	 2.50000000E-01	 5.00000000E+00
					-7.45058000E-09	 5.00000000E-01	 5.00000000E+00
					-7.45058000E-09	 1.00000000E+00	 5.00000000E+00
					 2.50000000E-01	 5.00000000E-01	 5.00000000E+00
					 2.50000000E-01	 1.00000000E+00	 5.00000000E+00
					-7.45058000E-09	 5.00000000E-01	 4.50000000E+00
					-7.45058000E-09	 7.50000000E-01	 5.00000000E+00
					-7.45058000E-09	 1.00000000E+00	 4.50000000E+00
					-7.45058000E-09	-1.49012000E-08	 5.00000000E+00
					 2.50000000E-01	-1.49012000E-08	 5.00000000E+00
					-7.45058000E-09	-1.49012000E-08	 4.50000000E+00
					-7.45058000E-09	 2.50000000E-01	 5.00000000E+00
					 1.00000000E+00	 5.00000000E-01	 6.00000000E+00
					 1.00000000E+00	 1.00000000E+00	 6.00000000E+00
					 5.00000000E-01	 5.00000000E-01	 6.00000000E+00
					 5.00000000E-01	 1.00000000E+00	 6.00000000E+00
					 1.00000000E+00	 5.00000000E-01	 5.50000000E+00
					 1.00000000E+00	 7.50000000E-01	 6.00000000E+00
					 1.00000000E+00	 1.00000000E+00	 5.50000000E+00
					 7.50000000E-01	 5.00000000E-01	 6.00000000E+00
					 7.50000000E-01	 1.00000000E+00	 6.00000000E+00
					 5.00000000E-01	 5.00000000E-01	 5.50000000E+00
					 5.00000000E-01	 7.50000000E-01	 6.00000000E+00
					 5.00000000E-01	 1.00000000E+00	 5.50000000E+00
					 1.00000000E+00	-1.49012000E-08	 6.00000000E+00
[...]
			<PointData>
				<DataArray type="Float32" Name="U" NumberOfComponents="3" ComponentName0="D1" ComponentName1="D2" ComponentName2="D3" format="ascii">
					 0.00000000E+00	 0.00000000E+00	 0.00000000E+00
					 0.00000000E+00	 0.00000000E+00	 0.00000000E+00
					 7.45823000E-06	-3.55910000E-03	 1.06032000E-06
					 6.62116000E-04	-3.68775000E-03	 2.36363000E-03
					 0.00000000E+00	 0.00000000E+00	 0.00000000E+00
					 0.00000000E+00	 0.00000000E+00	 0.00000000E+00
					 6.19649000E-06	-2.74442000E-03	 9.53380000E-06
					 9.66392000E-04	-2.89171000E-03	 2.40017000E-03
					 0.00000000E+00	 0.00000000E+00	 0.00000000E+00
					-1.20908000E-06	-1.07045000E-03	 6.25647000E-06
					 3.36806000E-04	-3.56816000E-03	 1.06451000E-03
					 9.28481000E-05	-1.25395000E-03	 1.21956000E-03
					 0.00000000E+00	 0.00000000E+00	 0.00000000E+00
					 0.00000000E+00	 0.00000000E+00	 0.00000000E+00
					 7.05573000E-06	-3.20247000E-03	 5.15704000E-06
					 8.15331000E-04	-3.34361000E-03	 2.46981000E-03
					 0.00000000E+00	 0.00000000E+00	 0.00000000E+00
					-2.24206000E-07	-7.58723000E-04	 9.24208000E-06
					 4.85675000E-04	-2.76228000E-03	 1.17366000E-03
					 4.70815000E-04	-9.64832000E-04	 1.19073000E-03
					 0.00000000E+00	 0.00000000E+00	 0.00000000E+00
					-6.51821000E-04	-3.67981000E-03	-2.36404000E-03
					 0.00000000E+00	 0.00000000E+00	 0.00000000E+00
					-9.58698000E-04	-2.87628000E-03	-2.38450000E-03
					 0.00000000E+00	 0.00000000E+00	 0.00000000E+00
					-9.61634000E-05	-1.24640000E-03	-1.20994000E-03
					-3.22932000E-04	-3.56651000E-03	-1.06287000E-03
					 0.00000000E+00	 0.00000000E+00	 0.00000000E+00
					-8.05925000E-04	-3.33083000E-03	-2.46295000E-03
					 0.00000000E+00	 0.00000000E+00	 0.00000000E+00
					-4.73226000E-04	-9.54239000E-04	-1.17366000E-03
					-4.74603000E-04	-2.75509000E-03	-1.15578000E-03
					 0.00000000E+00	 0.00000000E+00	 0.00000000E+00
					 0.00000000E+00	 0.00000000E+00	 0.00000000E+00
					 6.56806000E-06	-1.63118000E-03	 2.13159000E-05
					 1.26426000E-03	-1.77608000E-03	 2.38424000E-03
					 0.00000000E+00	 0.00000000E+00	 0.00000000E+00
					 0.00000000E+00	 0.00000000E+00	 0.00000000E+00
					 5.71681000E-06	-2.23991000E-03	 1.46486000E-05
					 1.11273000E-03	-2.38345000E-03	 2.30574000E-03
					 0.00000000E+00	 0.00000000E+00	 0.00000000E+00
					 1.68023000E-06	-1.27218000E-04	 1.13989000E-05
					 6.37358000E-04	-1.65105000E-03	 1.25924000E-03
					 8.13724000E-04	-3.50464000E-04	 1.22584000E-03
					 0.00000000E+00	 0.00000000E+00	 0.00000000E+00
					-1.25503000E-03	-1.75258000E-03	-2.34473000E-03
					 0.00000000E+00	 0.00000000E+00	 0.00000000E+00
					-1.10576000E-03	-2.36444000E-03	-2.27970000E-03
					 0.00000000E+00	 0.00000000E+00	 0.00000000E+00
					-8.11629000E-04	-3.37048000E-04	-1.20330000E-03
					-6.25380000E-04	-1.63825000E-03	-1.21754000E-03
					 1.42497000E-05	-1.13415000E-02	-2.53797000E-05
					 1.58660000E-03	-1.14818000E-02	 4.13125000E-03
					 2.01328000E-05	-9.67018000E-03	-1.69590000E-06
					 1.80040000E-03	-9.80355000E-03	 4.16471000E-03
					 1.00500000E-05	-7.02519000E-03	-1.27780000E-05
					 7.97684000E-04	-1.13891000E-02	 1.98344000E-03
					 1.15978000E-03	-7.18595000E-03	 3.32725000E-03
					 1.63824000E-05	-1.05303000E-02	-1.30097000E-05
					 1.69428000E-03	-1.06640000E-02	 4.19729000E-03
					 1.39202000E-05	-5.74958000E-03	 2.91878000E-06
					 9.11555000E-04	-9.71348000E-03	 2.06000000E-03
					 1.42225000E-03	-5.90388000E-03	 3.35392000E-03
					-1.55368000E-03	-1.14270000E-02	-4.18256000E-03
					-1.75442000E-03	-9.75404000E-03	-4.16887000E-03
					-1.14476000E-03	-7.16156000E-03	-3.34904000E-03
					-7.67684000E-04	-1.13606000E-02	-2.03411000E-03
					-1.65614000E-03	-1.06112000E-02	-4.22413000E-03
					-1.39651000E-03	-5.87318000E-03	-3.34850000E-03
					-8.68998000E-04	-9.68856000E-03	-2.06349000E-03
					 2.91294000E-05	-7.79143000E-03	 2.07990000E-05
					 2.03324000E-03	-7.91126000E-03	 4.17499000E-03
					 2.46889000E-05	-8.75374000E-03	 9.03551000E-06
					 1.91670000E-03	-8.88299000E-03	 4.13309000E-03
					 1.96648000E-05	-4.20824000E-03	 2.46628000E-05
					 1.02960000E-03	-7.82647000E-03	 2.11242000E-03
					 1.70355000E-03	-4.35426000E-03	 3.36080000E-03
					-1.96842000E-03	-7.86890000E-03	-4.13371000E-03
					-1.86105000E-03	-8.83748000E-03	-4.11461000E-03
					-1.66448000E-03	-4.32159000E-03	-3.31560000E-03
					-9.68734000E-04	-7.80622000E-03	-2.07163000E-03
					 3.81028000E-05	-2.17086000E-02	-7.23475000E-05
					 2.11002000E-03	-2.17906000E-02	 5.20640000E-03
					 4.34332000E-05	-1.95738000E-02	-3.72970000E-05
					 2.22891000E-03	-1.96634000E-02	 5.25887000E-03
					 2.73451000E-05	-1.62881000E-02	-4.05454000E-05
					 1.07566000E-03	-2.17312000E-02	 2.51463000E-03
					 1.90658000E-03	-1.64056000E-02	 4.75377000E-03
					 4.12280000E-05	-2.06577000E-02	-5.60701000E-05
					 2.16969000E-03	-2.07437000E-02	 5.25294000E-03
					 3.12066000E-05	-1.43277000E-02	-1.31915000E-05
					 1.13735000E-03	-1.96012000E-02	 2.58075000E-03
					 2.06831000E-03	-1.44421000E-02	 4.79599000E-03
					-2.04775000E-03	-2.17449000E-02	-5.35453000E-03
					-2.15796000E-03	-1.95966000E-02	-5.33736000E-03
					-1.85247000E-03	-1.63479000E-02	-4.84636000E-03
					-1.00427000E-03	-2.17126000E-02	-2.66027000E-03
					-2.10246000E-03	-2.06870000E-02	-5.36865000E-03
					-2.00947000E-03	-1.43811000E-02	-4.82645000E-03
					-1.05619000E-03	-1.95688000E-02	-2.65631000E-03
					 4.85094000E-05	-1.73228000E-02	 2.38256000E-06
					 2.35885000E-03	-1.74141000E-02	 5.28657000E-03
					 4.56159000E-05	-1.84634000E-02	-1.71779000E-05
					 2.29363000E-03	-1.85560000E-02	 5.26358000E-03
					 3.73426000E-05	-1.22047000E-02	 1.22018000E-05
					 1.20255000E-03	-1.73529000E-02	 2.62746000E-03
					 2.24754000E-03	-1.23178000E-02	 4.81671000E-03
					-2.27791000E-03	-1.73243000E-02	-5.28671000E-03
					-2.21908000E-03	-1.84782000E-02	-5.30325000E-03
					-2.17791000E-03	-1.22482000E-02	-4.78935000E-03
					-1.11104000E-03	-1.73057000E-02	-2.62306000E-03
					 5.35890000E-05	-3.33961000E-02	-1.33118000E-04
					 2.36952000E-03	-3.34072000E-02	 5.33655000E-03
					 6.25855000E-05	-3.11308000E-02	-9.23396000E-05
					 2.29250000E-03	-3.11255000E-02	 5.40073000E-03
					 4.45319000E-05	-2.75143000E-02	-1.09020000E-04
					 1.20965000E-03	-3.34126000E-02	 2.54560000E-03
					 2.27327000E-03	-2.75632000E-02	 5.42449000E-03
					 5.75717000E-05	-3.22551000E-02	-1.12700000E-04
					 2.32942000E-03	-3.22567000E-02	 5.37262000E-03
					 5.22084000E-05	-2.52736000E-02	-6.57645000E-05
					 1.17664000E-03	-3.11381000E-02	 2.59765000E-03
					 2.31219000E-03	-2.53186000E-02	 5.48554000E-03
					-2.25258000E-03	-3.33198000E-02	-5.59922000E-03
					-2.15675000E-03	-3.10534000E-02	-5.58132000E-03
					-2.18684000E-03	-2.74920000E-02	-5.63272000E-03
					-1.09835000E-03	-3.33683000E-02	-2.81072000E-03
					-2.20451000E-03	-3.21759000E-02	-5.59402000E-03
					-2.20676000E-03	-2.52445000E-02	-5.61653000E-03
					-1.04794000E-03	-3.11032000E-02	-2.78127000E-03
					 7.12780000E-05	-2.89423000E-02	-5.57829000E-05
					 2.22648000E-03	-2.89226000E-02	 5.41118000E-03
					 6.69909000E-05	-3.00256000E-02	-7.28189000E-05
					 2.26186000E-03	-3.00161000E-02	 5.43564000E-03
					 6.06124000E-05	-2.29989000E-02	-1.86792000E-05
					 1.14566000E-03	-2.89398000E-02	 2.59458000E-03
					 2.36177000E-03	-2.30308000E-02	 5.50638000E-03
					-2.07371000E-03	-2.88665000E-02	-5.51781000E-03
					-2.11614000E-03	-2.99506000E-02	-5.57713000E-03
					-2.23565000E-03	-2.29631000E-02	-5.55213000E-03
					-1.00059000E-03	-2.89171000E-02	-2.70486000E-03
					 1.02808000E-04	-4.34036000E-02	-1.68117000E-04
					 2.19472000E-03	-4.33077000E-02	 3.97094000E-03
					 1.04827000E-04	-4.14687000E-02	-1.39351000E-04
					 1.90179000E-03	-4.13569000E-02	 4.00316000E-03
					 7.55413000E-05	-3.88699000E-02	-1.53860000E-04
					 1.14123000E-03	-4.33976000E-02	 1.93880000E-03
					 2.35617000E-03	-3.88250000E-02	 4.79924000E-03
					 1.04957000E-04	-4.23993000E-02	-1.51206000E-04
					 2.05176000E-03	-4.22882000E-02	 3.94605000E-03
					 7.98321000E-05	-3.67017000E-02	-1.18866000E-04
					 1.00325000E-03	-4.14549000E-02	 1.92556000E-03
					 2.15187000E-03	-3.66430000E-02	 4.86178000E-03
					-1.99438000E-03	-4.32583000E-02	-4.30337000E-03
					-1.69422000E-03	-4.13060000E-02	-4.27987000E-03
					-2.20521000E-03	-3.87590000E-02	-5.10852000E-03
					-9.40425000E-04	-4.33705000E-02	-2.27566000E-03
					-1.84386000E-03	-4.22397000E-02	-4.24436000E-03
					-1.98946000E-03	-3.65786000E-02	-5.09425000E-03
					-7.95274000E-04	-4.14285000E-02	-2.20347000E-03
					 1.03754000E-04	-3.98063000E-02	-1.09629000E-04
					 1.61441000E-03	-3.96993000E-02	 4.02835000E-03
					 1.04683000E-04	-4.05982000E-02	-1.27439000E-04
					 1.75643000E-03	-4.04862000E-02	 4.06364000E-03
					 8.12444000E-05	-3.47256000E-02	-8.90910000E-05
					 8.63192000E-04	-3.97938000E-02	 1.90205000E-03
					 1.95802000E-03	-3.46633000E-02	 4.86759000E-03
					-1.40954000E-03	-3.96495000E-02	-4.24700000E-03
					-1.55159000E-03	-4.04371000E-02	-4.31554000E-03
					-1.79371000E-03	-3.46008000E-02	-5.03433000E-03
					-6.55449000E-04	-3.97662000E-02	-2.12181000E-03
					 9.40447000E-05	-4.86061000E-02	-1.44821000E-04
					 1.20784000E-03	-4.85729000E-02	 2.53337000E-03
					 1.02396000E-04	-4.75440000E-02	-1.46150000E-04
					 1.13441000E-03	-4.75088000E-02	 2.49728000E-03
					 1.09647000E-04	-4.65557000E-02	-1.57716000E-04
					 6.54999000E-04	-4.85961000E-02	 1.35078000E-03
					 1.79576000E-03	-4.64962000E-02	 3.09858000E-03
					 9.77031000E-05	-4.80629000E-02	-1.49266000E-04
					 1.16842000E-03	-4.80304000E-02	 2.42284000E-03
					 1.15580000E-04	-4.50057000E-02	-1.47017000E-04
					 6.20596000E-04	-4.75350000E-02	 1.24402000E-03
					 1.56060000E-03	-4.49220000E-02	 3.08350000E-03
					-1.00383000E-03	-4.85464000E-02	-2.81781000E-03
					-9.21892000E-04	-4.74948000E-02	-2.78984000E-03
					-1.55998000E-03	-4.64467000E-02	-3.41201000E-03
					-4.55933000E-04	-4.85883000E-02	-1.63243000E-03
					-9.63043000E-04	-4.80112000E-02	-2.72055000E-03
					-1.32198000E-03	-4.48943000E-02	-3.37918000E-03
					-4.11410000E-04	-4.75305000E-02	-1.53661000E-03
					 1.10073000E-04	-4.65597000E-02	-1.47275000E-04
					 1.05803000E-03	-4.65248000E-02	 2.52431000E-03
					 1.06385000E-04	-4.70455000E-02	-1.41874000E-04
					 1.09907000E-03	-4.70125000E-02	 2.55701000E-03
					 1.20087000E-04	-4.36759000E-02	-1.31395000E-04
					 5.82458000E-04	-4.65512000E-02	 1.21046000E-03
					 1.33735000E-03	-4.35940000E-02	 3.12348000E-03
					-8.31171000E-04	-4.65193000E-02	-2.82344000E-03
					-8.75799000E-04	-4.69962000E-02	-2.84905000E-03
					-1.09322000E-03	-4.35741000E-02	-3.39148000E-03
					-3.64311000E-04	-4.65520000E-02	-1.50398000E-03
					 9.79211000E-05	-5.29870000E-02	-1.37237000E-04
					 6.18536000E-04	-5.30326000E-02	 2.66666000E-03
					 9.77645000E-05	-5.24696000E-02	-1.52602000E-04
					 6.61211000E-04	-5.24946000E-02	 2.63420000E-03
					 9.47581000E-05	-5.04920000E-02	-1.55999000E-04
					 3.56487000E-04	-5.30149000E-02	 1.25194000E-03
					 7.08585000E-04	-5.04688000E-02	 2.50742000E-03
					 9.61867000E-05	-5.27313000E-02	-1.40670000E-04
					 6.43325000E-04	-5.27782000E-02	 2.67660000E-03
					 9.19238000E-05	-4.98427000E-02	-1.50028000E-04
					 3.75985000E-04	-5.24777000E-02	 1.24120000E-03
					 7.75137000E-04	-4.98466000E-02	 2.47920000E-03
					-3.63662000E-04	-5.29486000E-02	-2.98100000E-03
					-4.34943000E-04	-5.24774000E-02	-2.97673000E-03
					-5.34857000E-04	-5.04621000E-02	-2.79452000E-03
					-1.47775000E-04	-5.29417000E-02	-1.56394000E-03
					-3.94048000E-04	-5.27244000E-02	-2.98441000E-03
					-5.83015000E-04	-4.98321000E-02	-2.77211000E-03
					-1.74589000E-04	-5.24603000E-02	-1.56373000E-03
					 1.01457000E-04	-5.19091000E-02	-1.54211000E-04
					 6.62646000E-04	-5.19527000E-02	 2.61906000E-03
					 1.00212000E-04	-5.22007000E-02	-1.60000000E-04
					 6.59816000E-04	-5.22132000E-02	 2.62741000E-03
					 9.23354000E-05	-4.91625000E-02	-1.44871000E-04
					 3.97897000E-04	-5.19248000E-02	 1.21397000E-03
					 7.91049000E-04	-4.91719000E-02	 2.48235000E-03
					-4.91838000E-04	-5.19255000E-02	-2.93430000E-03
					-4.69966000E-04	-5.22180000E-02	-2.95509000E-03
					-6.05437000E-04	-4.91632000E-02	-2.78412000E-03
					-1.95362000E-04	-5.19071000E-02	-1.53662000E-03
					-1.34280000E-04	-5.86547000E-02	-5.37633000E-05
					 5.18420000E-04	-5.82027000E-02	 2.47806000E-03
					 1.25773000E-04	-5.80759000E-02	-1.87104000E-04
					 5.79182000E-04	-5.78292000E-02	 2.46569000E-03
					 3.07971000E-05	-5.58659000E-02	-4.36041000E-05
					 1.49619000E-04	-5.84002000E-02	 1.34881000E-03
					 7.26192000E-04	-5.59090000E-02	 2.65165000E-03
					-1.26505000E-05	-5.83622000E-02	-1.40511000E-04
					 5.47442000E-04	-5.79062000E-02	 2.41769000E-03
					 1.13433000E-04	-5.52910000E-02	-1.52639000E-04
					 3.86038000E-04	-5.79207000E-02	 1.19590000E-03
					 6.31041000E-04	-5.52504000E-02	 2.58267000E-03
					-6.17469000E-04	-5.89259000E-02	-3.12571000E-03
					-5.40491000E-04	-5.82923000E-02	-3.13295000E-03
					-4.62818000E-04	-5.58679000E-02	-3.08344000E-03
					-3.78947000E-04	-5.88408000E-02	-1.57585000E-03
					-5.91188000E-04	-5.86437000E-02	-3.17089000E-03
					-5.02601000E-04	-5.53525000E-02	-3.10088000E-03
					-1.89830000E-04	-5.82262000E-02	-1.65026000E-03
					 2.75108000E-04	-5.75080000E-02	-1.00737000E-04
					 7.24087000E-04	-5.73390000E-02	 2.53043000E-03
					 2.27046000E-04	-5.77878000E-02	-1.72935000E-04
					 6.46121000E-04	-5.76145000E-02	 2.48877000E-03
					 1.53009000E-04	-5.47427000E-02	-1.30259000E-04
					 4.89511000E-04	-5.74442000E-02	 1.26674000E-03
					 6.23749000E-04	-5.47855000E-02	 2.61605000E-03
					-4.92670000E-04	-5.74889000E-02	-2.98824000E-03
					-5.03423000E-04	-5.79103000E-02	-3.05336000E-03
					-5.24139000E-04	-5.46873000E-02	-2.99446000E-03
					-6.56680000E-05	-5.74998000E-02	-1.55254000E-03
					 0.00000000E+00	 0.00000000E+00	 0.00000000E+00
					 0.00000000E+00	 0.00000000E+00	 0.00000000E+00
					 6.06735000E-05	-1.51759000E-02	-4.11711000E-04
					-3.62610000E-03	-1.63539000E-02	 1.54182000E-02
					 0.00000000E+00	 0.00000000E+00	 0.00000000E+00
					 0.00000000E+00	 0.00000000E+00	 0.00000000E+00
					 1.63270000E-05	-1.77878000E-02	-5.05875000E-04
					-1.57798000E-03	-1.90358000E-02	 1.54999000E-02
					 0.00000000E+00	 0.00000000E+00	 0.00000000E+00
					 7.00148000E-05	-2.89122000E-03	-1.45966000E-04
					-1.78570000E-03	-1.54017000E-02	 7.47141000E-03
					-3.09425000E-03	-4.32460000E-03	 7.86820000E-03
					 0.00000000E+00	 0.00000000E+00	 0.00000000E+00
					 0.00000000E+00	 0.00000000E+00	 0.00000000E+00
					 4.19812000E-05	-1.68320000E-02	-4.67236000E-04
					-2.58112000E-03	-1.80423000E-02	 1.53122000E-02
					 0.00000000E+00	 0.00000000E+00	 0.00000000E+00
					 8.75712000E-06	-4.74005000E-03	-1.78153000E-04
					-7.81326000E-04	-1.80323000E-02	 7.31424000E-03
					-7.74003000E-04	-6.15167000E-03	 7.62029000E-03
					 0.00000000E+00	 0.00000000E+00	 0.00000000E+00
					 3.70793000E-03	-1.58303000E-02	-1.63265000E-02
					 0.00000000E+00	 0.00000000E+00	 0.00000000E+00
					 1.61745000E-03	-1.85111000E-02	-1.66039000E-02
					 0.00000000E+00	 0.00000000E+00	 0.00000000E+00
					 3.21287000E-03	-4.18554000E-03	-8.20385000E-03
					 1.89248000E-03	-1.51351000E-02	-8.32203000E-03
					 0.00000000E+00	 0.00000000E+00	 0.00000000E+00
					 2.65468000E-03	-1.75141000E-02	-1.63317000E-02
					 0.00000000E+00	 0.00000000E+00	 0.00000000E+00
					 7.98678000E-04	-6.03291000E-03	-8.00521000E-03
					 8.14352000E-04	-1.77684000E-02	-8.35517000E-03
					 0.00000000E+00	 0.00000000E+00	 0.00000000E+00
					 0.00000000E+00	 0.00000000E+00	 0.00000000E+00
					-3.91021000E-05	-1.83726000E-02	-5.18168000E-04
					 4.69733000E-04	-1.95272000E-02	 1.53172000E-02
					 0.00000000E+00	 0.00000000E+00	 0.00000000E+00
					 0.00000000E+00	 0.00000000E+00	 0.00000000E+00
					-1.09716000E-05	-1.84284000E-02	-5.24824000E-04
					-5.70259000E-04	-1.96343000E-02	 1.55405000E-02
					 0.00000000E+00	 0.00000000E+00	 0.00000000E+00
					-6.21057000E-05	-4.46142000E-03	-1.83604000E-04
					 2.13962000E-04	-1.85791000E-02	 7.08103000E-03
					 1.59506000E-03	-5.82239000E-03	 7.83670000E-03
					 0.00000000E+00	 0.00000000E+00	 0.00000000E+00
					-4.99011000E-04	-1.90282000E-02	-1.64285000E-02
					 0.00000000E+00	 0.00000000E+00	 0.00000000E+00
					 5.68873000E-04	-1.91111000E-02	-1.66795000E-02
					 0.00000000E+00	 0.00000000E+00	 0.00000000E+00
					-1.68624000E-03	-5.70995000E-03	-8.23725000E-03
					-2.73600000E-04	-1.83386000E-02	-8.13492000E-03
					 6.11536000E-05	-6.08991000E-02	-1.68157000E-03
					-4.45122000E-03	-6.24301000E-02	 2.64825000E-02
					 4.35366000E-05	-6.46344000E-02	-1.87199000E-03
					-2.94136000E-03	-6.61686000E-02	 2.63626000E-02
					 6.38485000E-05	-3.48329000E-02	-9.08398000E-04
					-2.19438000E-03	-6.14970000E-02	 1.23070000E-02
					-4.14928000E-03	-3.62847000E-02	 2.16396000E-02
					 5.31786000E-05	-6.29332000E-02	-1.78995000E-03
					-3.69778000E-03	-6.44673000E-02	 2.63766000E-02
					 2.61162000E-05	-3.80991000E-02	-1.05299000E-03
					-1.44748000E-03	-6.52343000E-02	 1.21169000E-02
					-2.31853000E-03	-3.95576000E-02	 2.15706000E-02
					 4.57982000E-03	-6.07923000E-02	-2.99442000E-02
					 3.04536000E-03	-6.45653000E-02	-3.02075000E-02
					 4.24536000E-03	-3.52562000E-02	-2.35631000E-02
					 2.31557000E-03	-6.06853000E-02	-1.56927000E-02
					 3.81915000E-03	-6.28543000E-02	-3.00526000E-02
					 2.38000000E-03	-3.85327000E-02	-2.37891000E-02
					 1.54416000E-03	-6.44465000E-02	-1.58811000E-02
					 1.11637000E-05	-6.68729000E-02	-1.97146000E-03
					-1.44071000E-03	-6.83631000E-02	 2.61976000E-02
					 2.86017000E-05	-6.59190000E-02	-1.93242000E-03
					-2.18687000E-03	-6.74695000E-02	 2.63883000E-02
					-2.34671000E-05	-3.95269000E-02	-1.10082000E-03
					-7.23588000E-04	-6.74372000E-02	 1.18707000E-02
					-5.17883000E-04	-4.09733000E-02	 2.14437000E-02
					 1.52454000E-03	-6.68233000E-02	-3.02400000E-02
					 2.28343000E-03	-6.58535000E-02	-3.03554000E-02
					 5.29140000E-04	-3.99981000E-02	-2.37590000E-02
					 7.65397000E-04	-6.66977000E-02	-1.58330000E-02
					 1.64276000E-04	-1.27182000E-01	-4.07064000E-03
					-4.60215000E-03	-1.28835000E-01	 3.18409000E-02
					 1.58595000E-04	-1.31481000E-01	-4.28959000E-03
					-3.74673000E-03	-1.33256000E-01	 3.16799000E-02
					 1.02092000E-04	-9.20612000E-02	-2.73470000E-03
					-2.21463000E-03	-1.27890000E-01	 1.37837000E-02
					-4.58794000E-03	-9.37047000E-02	 2.98127000E-02
					 1.63685000E-04	-1.29442000E-01	-4.18730000E-03
					-4.17556000E-03	-1.31168000E-01	 3.17292000E-02
					 8.51726000E-05	-9.61524000E-02	-2.95715000E-03
					-1.81736000E-03	-1.32255000E-01	 1.35565000E-02
					-3.41761000E-03	-9.78039000E-02	 2.96752000E-02
					 4.87526000E-03	-1.26320000E-01	-4.00373000E-02
					 4.04848000E-03	-1.30621000E-01	-4.03493000E-02
					 4.78554000E-03	-9.15721000E-02	-3.53853000E-02
					 2.52416000E-03	-1.26654000E-01	-2.19324000E-02
					 4.46107000E-03	-1.28572000E-01	-4.01882000E-02
					 3.59686000E-03	-9.56637000E-02	-3.56819000E-02
					 2.10601000E-03	-1.30959000E-01	-2.21737000E-02
					 1.41714000E-04	-1.34956000E-01	-4.44208000E-03
					-3.00843000E-03	-1.36864000E-01	 3.14521000E-02
					 1.50837000E-04	-1.33340000E-01	-4.37452000E-03
					-3.38150000E-03	-1.35056000E-01	 3.16589000E-02
					 6.75812000E-05	-9.90690000E-02	-3.09985000E-03
					-1.39888000E-03	-1.35796000E-01	 1.32673000E-02
					-2.30004000E-03	-1.00745000E-01	 2.94590000E-02
					 3.23895000E-03	-1.34130000E-01	-4.04552000E-02
					 3.64432000E-03	-1.32468000E-01	-4.05022000E-02
					 2.41091000E-03	-9.85983000E-02	-3.57435000E-02
					 1.67900000E-03	-1.34464000E-01	-2.22118000E-02
					 4.67106000E-04	-2.04416000E-01	-7.27697000E-03
					-4.26362000E-03	-2.06051000E-01	 3.23188000E-02