# vtk DataFile Version 3.0

ASCII
DATASET UNSTRUCTURED_GRID

POINTS 522 double
	 1.00000000E+00	 1.00000000E+00	-5.96046000E-08
	 1.00000000E+00	 5.00000000E-01	-5.96046000E-08
	 1.00000000E+00	 5.00000000E-01	 1.00000000E+00
	 1.00000000E+00	 1.00000000E+00	 1.00000000E+00
	 5.00000000E-01	 1.00000000E+00	-5.96046000E-08
	 5.00000000E-01	 5.00000000E-01	-5.96046000E-08
	 5.00000000E-01	 5.00000000E-01	 1.00000000E+00
	 5.00000000E-01	 1.00000000E+00	 1.00000000E+00
	 1.00000000E+00	 7.50000000E-01	-5.96046000E-08
	 1.00000000E+00	 5.00000000E-01	 5.00000000E-01
	 1.00000000E+00	 7.50000000E-01	 1.00000000E+00
	 1.00000000E+00	 1.00000000E+00	 5.00000000E-01
	 7.50000000E-01	 1.00000000E+00	-5.96046000E-08
	 7.50000000E-01	 5.00000000E-01	-5.96046000E-08
	 7.50000000E-01	 5.00000000E-01	 1.00000000E+00
	 7.50000000E-01	 1.00000000E+00	 1.00000000E+00
	 5.00000000E-01	 7.50000000E-01	-5.96046000E-08
	 5.00000000E-01	 5.00000000E-01	 5.00000000E-01
	 5.00000000E-01	 7.50000000E-01	 1.00000000E+00
	 5.00000000E-01	 1.00000000E+00	 5.00000000E-01
	 1.00000000E+00	-1.49012000E-08	-5.96046000E-08
	 1.00000000E+00	-1.49012000E-08	 1.00000000E+00
	 5.00000000E-01	-1.49012000E-08	-5.96046000E-08
	 5.00000000E-01	-1.49012000E-08	 1.00000000E+00
	 1.00000000E+00	 2.50000000E-01	-5.96046000E-08
	 1.00000000E+00	-1.49012000E-08	 5.00000000E-01
	 1.00000000E+00	 2.50000000E-01	 1.00000000E+00
	 7.50000000E-01	-1.49012000E-08	-5.96046000E-08
	 7.50000000E-01	-1.49012000E-08	 1.00000000E+00
	 5.00000000E-01	 2.50000000E-01	-5.96046000E-08
	 5.00000000E-01	-1.49012000E-08	 5.00000000E-01
	 5.00000000E-01	 2.50000000E-01	 1.00000000E+00
	-7.45058000E-09	 1.00000000E+00	-5.96046000E-08
	-7.45058000E-09	 5.00000000E-01	-5.96046000E-08
	-7.45058000E-09	 5.00000000E-01	 1.00000000E+00
	-7.45058000E-09	 1.00000000E+00	 1.00000000E+00
	 2.50000000E-01	 1.00000000E+00	-5.96046000E-08
	 2.50000000E-01	 5.00000000E-01	-5.96046000E-08
	 2.50000000E-01	 5.00000000E-01	 1.00000000E+00
	 2.50000000E-01	 1.00000000E+00	 1.00000000E+00
	-7.45058000E-09	 7.50000000E-01	-5.96046000E-08
	-7.45058000E-09	 5.00000000E-01	 5.00000000E-01
	-7.45058000E-09	 7.50000000E-01	 1.00000000E+00
	-7.45058000E-09	 1.00000000E+00	 5.00000000E-01
	-7.45058000E-09	-1.49012000E-08	-5.96046000E-08
	-7.45058000E-09	-1.49012000E-08	 1.00000000E+00
	 2.50000000E-01	-1.49012000E-08	-5.96046000E-08
	 2.50000000E-01	-1.49012000E-08	 1.00000000E+00
	-7.45058000E-09	 2.50000000E-01	-5.96046000E-08
	-7.45058000E-09	-1.49012000E-08	 5.00000000E-01
	-7.45058000E-09	 2.50000000E-01	 1.00000000E+00
	 1.00000000E+00	 5.00000000E-01	 2.00000000E+00
	 1.00000000E+00	 1.00000000E+00	 2.00000000E+00
	 5.00000000E-01	 5.00000000E-01	 2.00000000E+00
	 5.00000000E-01	 1.00000000E+00	 2.00000000E+00
	 1.00000000E+00	 5.00000000E-01	 1.50000000E+00
	 1.00000000E+00	 7.50000000E-01	 2.00000000E+00
	 1.00000000E+00	 1.00000000E+00	 1.50000000E+00
	 7.50000000E-01	 5.00000000E-01	 2.00000000E+00
	 7.50000000E-01	 1.00000000E+00	 2.00000000E+00
	 5.00000000E-01	 5.00000000E-01	 1.50000000E+00
	 5.00000000E-01	 7.50000000E-01	 2.00000000E+00
	 5.00000000E-01	 1.00000000E+00	 1.50000000E+00
	 1.00000000E+00	-1.49012000E-08	 2.00000000E+00
	 5.00000000E-01	-1.49012000E-08	 2.00000000E+00
	 1.00000000E+00	-1.49012000E-08	 1.50000000E+00
	 1.00000000E+00	 2.50000000E-01	 2.00000000E+00
	 7.50000000E-01	-1.49012000E-08	 2.00000000E+00
	 5.00000000E-01	-1.49012000E-08	 1.50000000E+00
	 5.00000000E-01	 2.50000000E-01	 2.00000000E+00
	-7.45058000E-09	 5.00000000E-01	 2.00000000E+00
	-7.45058000E-09	 1.00000000E+00	 2.00000000E+00
	 2.50000000E-01	 5.00000000E-01	 2.00000000E+00
	 2.50000000E-01	 1.00000000E+00	 2.00000000E+00
	-7.45058000E-09	 5.00000000E-01	 1.50000000E+00
	-7.45058000E-09	 7.50000000E-01	 2.00000000E+00
	-7.45058000E-09	 1.00000000E+00	 1.50000000E+00
	-7.45058000E-09	-1.49012000E-08	 2.00000000E+00
	 2.50000000E-01	-1.49012000E-08	 2.00000000E+00
	-7.45058000E-09	-1.49012000E-08	 1.50000000E+00
	-7.45058000E-09	 2.50000000E-01	 2.00000000E+00
	 1.00000000E+00	 5.00000000E-01	 3.00000000E+00
	 1.00000000E+00	 1.00000000E+00	 3.00000000E+00
	 5.00000000E-01	 5.00000000E-01	 3.00000000E+00
	 5.00000000E-01	 1.00000000E+00	 3.00000000E+00
	 1.00000000E+00	 5.00000000E-01	 2.50000000E+00
	 1.00000000E+00	 7.50000000E-01	 3.00000000E+00
	 1.00000000E+00	 1.00000000E+00	 2.50000000E+00
	 7.50000000E-01	 5.00000000E-01	 3.00000000E+00
	 7.50000000E-01	 1.00000000E+00	 3.00000000E+00
	 5.00000000E-01	 5.00000000E-01	 2.50000000E+00
	 5.00000000E-01	 7.50000000E-01	 3.00000000E+00
	 5.00000000E-01	 1.00000000E+00	 2.50000000E+00
	 1.00000000E+00	-1.49012000E-08	 3.00000000E+00
	 5.00000000E-01	-1.49012000E-08	 3.00000000E+00
	 1.00000000E+00	-1.49012000E-08	 2.50000000E+00
	 1.00000000E+00	 2.50000000E-01	 3.00000000E+00
	 7.50000000E-01	-1.49012000E-08	 3.00000000E+00
	 5.00000000E-01	-1.49012000E-08	 2.50000000E+00
	 5.00000000E-01	 2.50000000E-01	 3.00000000E+00
	-7.45058000E-09	 5.00000000E-01	 3.00000000E+00
	-7.45058000E-09	 1.00000000E+00	 3.00000000E+00
	 2.50000000E-01	 5.00000000E-01	 3.00000000E+00
	 2.50000000E-01	 1.00000000E+00	 3.00000000E+00
	-7.45058000E-09	 5.00000000E-01	 2.50000000E+00
	-7.45058000E-09	 7.50000000E-01	 3.00000000E+00
	-7.45058000E-09	 1.00000000E+00	 2.50000000E+00
	-7.45058000E-09	-1.49012000E-08	 3.00000000E+00
	 2.50000000E-01	-1.49012000E-08	 3.00000000E+00
	-7.45058000E-09	-1.49012000E-08	 2.50000000E+00
	-7.45058000E-09	 2.50000000E-01	 3.00000000E+00
	 1.00000000E+00	 5.00000000E-01	 4.00000000E+00
	 1.00000000E+00	 1.00000000E+00	 4.00000000E+00
	 5.00000000E-01	 5.00000000E-01	 4.00000000E+00
	 5.00000000E-01	 1.00000000E+00	 4.00000000E+00
	 1.00000000E+00	 5.00000000E-01	 3.50000000E+00
	 1.00000000E+00	 7.50000000E-01	 4.00000000E+00
	 1.00000000E+00	 1.00000000E+00	 3.50000000E+00
	 7.50000000E-01	 5.00000000E-01	 4.00000000E+00
	 7.50000000E-01	 1.00000000E+00	 4.00000000E+00
	 5.00000000E-01	 5.00000000E-01	 3.50000000E+00
	 5.00000000E-01	 7.50000000E-01	 4.00000000E+00
	 5.00000000E-01	 1.00000000E+00	 3.50000000E+00
	 1.00000000E+00	-1.49012000E-08	 4.00000000E+00
	 5.00000000E-01	-1.49012000E-08	 4.00000000E+00
	 1.00000000E+00	-1.49012000E-08	 3.50000000E+00
	 1.00000000E+00	 2.50000000E-01	 4.00000000E+00
	 7.50000000E-01	-1.49012000E-08	 4.00000000E+00
	 5.00000000E-01	-1.49012000E-08	 3.50000000E+00
	 5.00000000E-01	 2.50000000E-01	 4.00000000E+00
	-7.45058000E-09	 5.00000000E-01	 4.00000000E+00
	-7.45058000E-09	 1.00000000E+00	 4.00000000E+00
	 2.50000000E-01	 5.00000000E-01	 4.00000000E+00
	 2.50000000E-01	 1.00000000E+00	 4.00000000E+00
	-7.45058000E-09	 5.00000000E-01	 3.50000000E+00
	-7.45058000E-09	 7.50000000E-01	 4.00000000E+00
	-7.45058000E-09	 1.00000000E+00	 3.50000000E+00
	-7.45058000E-09	-1.49012000E-08	 4.00000000E+00
	 2.50000000E-01	-1.49012000E-08	 4.00000000E+00
	-7.45058000E-09	-1.49012000E-08	 3.50000000E+00
	-7.45058000E-09	 2.50000000E-01	 4.00000000E+00
	 1.00000000E+00	 5.00000000E-01	 5.00000000E+00
	 1.00000000E+00	 1.00000000E+00	 5.00000000E+00
	 5.00000000E-01	 5.00000000E-01	 5.00000000E+00
	 5.00000000E-01	 1.00000000E+00	 5.00000000E+00
	 1.00000000E+00	 5.00000000E-01	 4.50000000E+00
	 1.00000000E+00	 7.50000000E-01	 5.00000000E+00
	 1.00000000E+00	 1.00000000E+00	 4.50000000E+00
	 7.50000000E-01	 5.00000000E-01	 5.00000000E+00
	 7.50000000E-01	 1.00000000E+00	 5.00000000E+00
	 5.00000000E-01	 5.00000000E-01	 4.50000000E+00
	 5.00000000E-01	 7.50000000E-01	 5.00000000E+00
	 5.00000000E-01	 1.00000000E+00	 4.50000000E+00
	 1.00000000E+00	-1.49012000E-08	 5.00000000E+00
	 5.00000000E-01	-1.49012000E-08	 5.00000000E+00
	 1.00000000E+00	-1.49012000E-08	 4.50000000E+00
	 1.00000000E+00	 2.50000000E-01	 5.00000000E+00
	 7.50000000E-01	-1.49012000E-08	 5.00000000E+00
	 5.00000000E-01	-1.49012000E-08	 4.50000000E+00
	 5.00000000E-01	 2.50000000E-01	 5.00000000E+00
	-7.45058000E-09	 5.00000000E-01	 5.00000000E+00
	-7.45058000E-09	 1.00000000E+00	 5.00000000E+00
	 2.50000000E-01	 5.00000000E-01	 5.00000000E+00
	 2.50000000E-01	 1.00000000E+00	 5.00000000E+00
	-7.45058000E-09	 5.00000000E-01	 4.50000000E+00
	-7.45058000E-09	 7.50000000E-01	 5.00000000E+00
	-7.45058000E-09	 1.00000000E+00	 4.50000000E+00
	-7.45058000E-09	-1.49012000E-08	 5.00000000E+00
	 2.50000000E-01	-1.49012000E-08	 5.00000000E+00
	-7.45058000E-09	-1.49012000E-08	 4.50000000E+00
	-7.45058000E-09	 2.50000000E-01	 5.00000000E+00
	 1.00000000E+00	 5.00000000E-01	 6.00000000E+00
	 1.00000000E+00	 1.00000000E+00	 6.00000000E+00
	 5.00000000E-01	 5.00000000E-01	 6.00000000E+00
	 5.00000000E-01	 1.00000000E+00	 6.00000000E+00
	 1.00000000E+00	 5.00000000E-01	 5.50000000E+00
	 1.00000000E+00	 7.50000000E-01	 6.00000000E+00
	 1.00000000E+00	 1.00000000E+00	 5.50000000E+00
	 7.50000000E-01	 5.00000000E-01	 6.00000000E+00
	 7.50000000E-01	 1.00000000E+00	 6.00000000E+00
	 5.00000000E-01	 5.00000000E-01	 5.50000000E+00
	 5.00000000E-01	 7.50000000E-01	 6.00000000E+00
	 5.00000000E-01	 1.00000000E+00	 5.50000000E+00
	 1.00000000E+00	-1.49012000E-08	 6.00000000E+00
	 5.00000000E-01	-1.49012000E-08	 6.00000000E+00
	 1.00000000E+00	-1.49012000E-08	 5.50000000E+00
	 1.00000000E+00	 2.50000000E-01	 6.00000000E+00
	 7.50000000E-01	-1.49012000E-08	 6.00000000E+00
	 5.00000000E-01	-1.49012000E-08	 5.50000000E+00
	 5.00000000E-01	 2.50000000E-01	 6.00000000E+00
	-7.45058000E-09	 5.00000000E-01	 6.00000000E+00
	-7.45058000E-09	 1.00000000E+00	 6.00000000E+00
	 2.50000000E-01	 5.00000000E-01	 6.00000000E+00
	 2.50000000E-01	 1.00000000E+00	 6.00000000E+00
	-7.45058000E-09	 5.00000000E-01	 5.50000000E+00
	-7.45058000E-09	 7.50000000E-01	 6.00000000E+00
	-7.45058000E-09	 1.00000000E+00	 5.50000000E+00
	-7.45058000E-09	-1.49012000E-08	 6.00000000E+00
	 2.50000000E-01	-1.49012000E-08	 6.00000000E+00
	-7.45058000E-09	-1.49012000E-08	 5.50000000E+00
	-7.45058000E-09	 2.50000000E-01	 6.00000000E+00
	 1.00000000E+00	 5.00000000E-01	 7.00000000E+00
[...]
POINT_DATA 522
FIELD U 1
	U 3 522 double
		 0.00000000E+00	 0.00000000E+00	 0.00000000E+00
		 0.00000000E+00	 0.00000000E+00	 0.00000000E+00
		 5.08406000E-07	-2.25487000E-03	-1.78106000E-05
		-1.03919000E-04	-2.36614000E-03	 2.03413000E-03
		 0.00000000E+00	 0.00000000E+00	 0.00000000E+00
		 0.00000000E+00	 0.00000000E+00	 0.00000000E+00
		-1.17678000E-06	-2.22189000E-03	-1.00602000E-05
		 1.48260000E-04	-2.34932000E-03	 2.07856000E-03
		 0.00000000E+00	 0.00000000E+00	 0.00000000E+00
		-3.51245000E-06	-4.28376000E-04	-6.00330000E-06
		-5.06676000E-05	-2.26326000E-03	 9.49132000E-04
		-2.25730000E-04	-5.92039000E-04	 1.02479000E-03
		 0.00000000E+00	 0.00000000E+00	 0.00000000E+00
		 0.00000000E+00	 0.00000000E+00	 0.00000000E+00
		-5.33033000E-07	-2.28213000E-03	-1.40586000E-05
		 2.38986000E-05	-2.40253000E-03	 2.07098000E-03
		 0.00000000E+00	 0.00000000E+00	 0.00000000E+00
		-5.64671000E-06	-4.72337000E-04	-3.58880000E-06
		 7.38112000E-05	-2.23550000E-03	 9.87413000E-04
		 8.77051000E-05	-6.43854000E-04	 9.99054000E-04
		 0.00000000E+00	 0.00000000E+00	 0.00000000E+00
		 1.03254000E-04	-2.36017000E-03	-2.07041000E-03
		 0.00000000E+00	 0.00000000E+00	 0.00000000E+00
		-1.51445000E-04	-2.34067000E-03	-2.10027000E-03
		 0.00000000E+00	 0.00000000E+00	 0.00000000E+00
		 2.17244000E-04	-5.92904000E-04	-1.03776000E-03
		 5.11234000E-05	-2.26046000E-03	-9.84964000E-04
		 0.00000000E+00	 0.00000000E+00	 0.00000000E+00
		-2.60223000E-05	-2.39504000E-03	-2.10012000E-03
		 0.00000000E+00	 0.00000000E+00	 0.00000000E+00
		-1.00115000E-04	-6.42330000E-04	-1.00681000E-03
		-7.62991000E-05	-2.23135000E-03	-1.00798000E-03
		 0.00000000E+00	 0.00000000E+00	 0.00000000E+00
		 0.00000000E+00	 0.00000000E+00	 0.00000000E+00
		-1.10161000E-06	-1.95528000E-03	-3.05043000E-07
		 4.02714000E-04	-2.06831000E-03	 2.05096000E-03
		 0.00000000E+00	 0.00000000E+00	 0.00000000E+00
		 0.00000000E+00	 0.00000000E+00	 0.00000000E+00
		-1.37603000E-06	-2.13208000E-03	-5.56989000E-06
		 2.73495000E-04	-2.25415000E-03	 2.06544000E-03
		 0.00000000E+00	 0.00000000E+00	 0.00000000E+00
		-6.40098000E-06	-2.40622000E-04	-6.02527000E-07
		 1.99477000E-04	-1.96435000E-03	 9.80077000E-04
		 3.99942000E-04	-4.09452000E-04	 1.03038000E-03
		 0.00000000E+00	 0.00000000E+00	 0.00000000E+00
		-4.05328000E-04	-2.05735000E-03	-2.05340000E-03
		 0.00000000E+00	 0.00000000E+00	 0.00000000E+00
		-2.76976000E-04	-2.24414000E-03	-2.07853000E-03
		 0.00000000E+00	 0.00000000E+00	 0.00000000E+00
		-4.13757000E-04	-4.04885000E-04	-1.03212000E-03
		-2.01702000E-04	-1.95919000E-03	-9.80997000E-04
		 1.79352000E-05	-8.38944000E-03	-3.48834000E-05
		 1.77992000E-04	-8.38023000E-03	 2.80191000E-03
		 1.91643000E-05	-8.25123000E-03	-2.73893000E-05
		 1.43470000E-04	-8.24083000E-03	 2.83324000E-03
		 1.09083000E-05	-5.12922000E-03	-2.80744000E-05
		 9.66977000E-05	-8.39440000E-03	 1.31849000E-03
		 4.57622000E-05	-5.19719000E-03	 2.65269000E-03
		 1.86270000E-05	-8.31168000E-03	-3.12898000E-05
		 1.60396000E-04	-8.30132000E-03	 2.83025000E-03
		 1.10309000E-05	-5.03886000E-03	-1.90088000E-05
		 8.09944000E-05	-8.25724000E-03	 1.34750000E-03
		 1.58562000E-04	-5.10465000E-03	 2.69755000E-03
		-1.41500000E-04	-8.36158000E-03	-2.87113000E-03
		-1.04712000E-04	-8.22275000E-03	-2.88722000E-03
		-2.39123000E-05	-5.18151000E-03	-2.70905000E-03
		-6.05286000E-05	-8.38613000E-03	-1.38814000E-03
		-1.22712000E-04	-8.28270000E-03	-2.89212000E-03
		-1.36155000E-04	-5.08930000E-03	-2.73613000E-03
		-4.25361000E-05	-8.24904000E-03	-1.40212000E-03
		 1.99649000E-05	-8.14131000E-03	-1.94777000E-05
		 1.02254000E-04	-8.13744000E-03	 2.81764000E-03
		 1.96162000E-05	-8.18815000E-03	-2.35040000E-05
		 1.23074000E-04	-8.17885000E-03	 2.84721000E-03
		 1.10194000E-05	-4.83450000E-03	-8.38196000E-06
		 6.33940000E-05	-8.14930000E-03	 1.32494000E-03
		 2.76234000E-04	-4.89667000E-03	 2.67214000E-03
		-6.20556000E-05	-8.12051000E-03	-2.85571000E-03
		-8.33811000E-05	-8.16111000E-03	-2.89327000E-03
		-2.53198000E-04	-4.88297000E-03	-2.68969000E-03
		-2.34088000E-05	-8.14176000E-03	-1.36378000E-03
		 3.50586000E-05	-1.39011000E-02	-4.27566000E-05
		 5.07811000E-04	-1.38565000E-02	 2.07158000E-03
		 3.64713000E-05	-1.34908000E-02	-3.49606000E-05
		 3.98929000E-04	-1.34421000E-02	 2.06888000E-03
		 2.46948000E-05	-1.13957000E-02	-4.07690000E-05
		 2.68901000E-04	-1.38959000E-02	 1.00979000E-03
		 3.07829000E-04	-1.13631000E-02	 2.49260000E-03
		 3.58468000E-05	-1.36804000E-02	-3.83750000E-05
		 4.53048000E-04	-1.36328000E-02	 2.09891000E-03
		 2.59185000E-05	-1.11698000E-02	-3.24301000E-05
		 2.16741000E-04	-1.34847000E-02	 1.04227000E-03
		 2.02193000E-04	-1.11361000E-02	 2.50874000E-03
		-4.35853000E-04	-1.38423000E-02	-2.15776000E-03
		-3.24126000E-04	-1.34314000E-02	-2.13919000E-03
		-2.58164000E-04	-1.13482000E-02	-2.57294000E-03
		-1.98623000E-04	-1.38879000E-02	-1.09570000E-03
		-3.79290000E-04	-1.36203000E-02	-2.17609000E-03
		-1.49973000E-04	-1.11216000E-02	-2.57298000E-03
		-1.43371000E-04	-1.34788000E-02	-1.11224000E-03
		 3.67582000E-05	-1.31780000E-02	-2.90320000E-05
		 2.76701000E-04	-1.31423000E-02	 2.08528000E-03
		 3.67908000E-05	-1.33204000E-02	-3.16448000E-05
		 3.37572000E-04	-1.32726000E-02	 2.03349000E-03
		 2.69453000E-05	-1.10439000E-02	-2.46771000E-05
		 1.61511000E-04	-1.31778000E-02	 1.09586000E-03
		 7.81409000E-05	-1.10289000E-02	 2.50780000E-03
		-2.01565000E-04	-1.31350000E-02	-2.14384000E-03
		-2.62452000E-04	-1.32641000E-02	-2.09734000E-03
		-2.43595000E-05	-1.10146000E-02	-2.55745000E-03
		-8.76444000E-05	-1.31736000E-02	-1.15384000E-03
		 3.25306000E-05	-1.77102000E-02	-4.95784000E-05
		 8.84417000E-04	-1.77600000E-02	 1.97370000E-03
		 3.03406000E-05	-1.67978000E-02	-4.54153000E-05
		 9.92184000E-04	-1.68535000E-02	 1.95590000E-03
		 3.69547000E-05	-1.58535000E-02	-4.16652000E-05
		 4.60378000E-04	-1.77197000E-02	 9.74334000E-04
		 6.86750000E-04	-1.58554000E-02	 1.85799000E-03
		 3.15923000E-05	-1.72679000E-02	-4.86621000E-05
		 9.37593000E-04	-1.73223000E-02	 2.00198000E-03
		 3.63252000E-05	-1.52111000E-02	-3.76052000E-05
		 5.11471000E-04	-1.68114000E-02	 1.00833000E-03
		 6.74211000E-04	-1.52122000E-02	 1.83758000E-03
		-8.22714000E-04	-1.77586000E-02	-2.07373000E-03
		-9.34842000E-04	-1.68478000E-02	-2.04672000E-03
		-6.11867000E-04	-1.58466000E-02	-1.94532000E-03
		-3.95315000E-04	-1.77213000E-02	-1.07330000E-03
		-8.78413000E-04	-1.73178000E-02	-2.10009000E-03
		-6.01640000E-04	-1.52049000E-02	-1.91517000E-03
		-4.51422000E-04	-1.68087000E-02	-1.09922000E-03
		 2.93585000E-05	-1.57802000E-02	-3.70408000E-05
		 1.09895000E-03	-1.58389000E-02	 1.98847000E-03
		 2.96965000E-05	-1.63028000E-02	-4.12554000E-05
		 1.04609000E-03	-1.63605000E-02	 1.90364000E-03
		 3.51996000E-05	-1.45772000E-02	-3.51869000E-05
		 5.63729000E-04	-1.57962000E-02	 1.09422000E-03
		 6.54048000E-04	-1.45859000E-02	 1.86654000E-03
		-1.04170000E-03	-1.58277000E-02	-2.06277000E-03
		-9.88793000E-04	-1.63523000E-02	-1.98577000E-03
		-5.83106000E-04	-1.45792000E-02	-1.93713000E-03
		-5.04861000E-04	-1.57894000E-02	-1.16913000E-03
		 4.33733000E-05	-2.31843000E-02	-7.60648000E-05
		 1.52530000E-03	-2.33241000E-02	 3.26888000E-03
		 4.59492000E-05	-2.15764000E-02	-5.37379000E-05
		 1.77898000E-03	-2.17182000E-02	 3.28700000E-03
		 3.65494000E-05	-2.00439000E-02	-6.59069000E-05
		 7.85845000E-04	-2.32226000E-02	 1.54886000E-03
		 1.17804000E-03	-2.01334000E-02	 2.51092000E-03
		 4.35957000E-05	-2.24125000E-02	-6.38043000E-05
		 1.65238000E-03	-2.25550000E-02	 3.33182000E-03
		 3.98443000E-05	-1.87944000E-02	-5.22034000E-05
		 9.12448000E-04	-2.16127000E-02	 1.62416000E-03
		 1.38830000E-03	-1.88938000E-02	 2.50610000E-03
		-1.43209000E-03	-2.32796000E-02	-3.42203000E-03
		-1.68395000E-03	-2.16833000E-02	-3.39528000E-03
		-1.11086000E-03	-2.01247000E-02	-2.63343000E-03
		-6.98224000E-04	-2.31956000E-02	-1.70190000E-03
		-1.55841000E-03	-2.25156000E-02	-3.46069000E-03
		-1.31155000E-03	-1.88766000E-02	-2.60556000E-03
		-8.20216000E-04	-2.15940000E-02	-1.73199000E-03
		 5.27675000E-05	-1.97266000E-02	-3.84426000E-05
		 2.04066000E-03	-1.98609000E-02	 3.30266000E-03
		 4.88102000E-05	-2.06840000E-02	-4.55854000E-05
		 1.90844000E-03	-2.08239000E-02	 3.24174000E-03
		 4.48024000E-05	-1.73472000E-02	-3.68283000E-05
		 1.04369000E-03	-1.97590000E-02	 1.69431000E-03
		 1.59780000E-03	-1.74428000E-02	 2.53505000E-03
		-1.93766000E-03	-1.98249000E-02	-3.37913000E-03
		-1.81123000E-03	-2.07898000E-02	-3.33351000E-03
		-1.51194000E-03	-1.74211000E-02	-2.60880000E-03
		-9.40258000E-04	-1.97416000E-02	-1.76983000E-03
		 7.22436000E-05	-3.23558000E-02	-1.26499000E-04
		 2.23664000E-03	-3.24567000E-02	 4.74764000E-03
		 8.07089000E-05	-3.00818000E-02	-1.01393000E-04
		 2.42454000E-03	-3.01992000E-02	 4.78084000E-03
		 5.51674000E-05	-2.73463000E-02	-9.08781000E-05
		 1.15449000E-03	-3.23781000E-02	 2.23611000E-03
		 1.89779000E-03	-2.74803000E-02	 4.06020000E-03
		 7.81015000E-05	-3.12437000E-02	-1.15178000E-04
		 2.33229000E-03	-3.13516000E-02	 4.80826000E-03
		 5.15834000E-05	-2.53843000E-02	-6.96077000E-05
		 1.25258000E-03	-3.01162000E-02	 2.30831000E-03
		 2.11524000E-03	-2.55168000E-02	 4.10010000E-03
		-2.13104000E-03	-3.24466000E-02	-5.00370000E-03
		-2.29431000E-03	-3.01416000E-02	-4.98884000E-03
		-1.78080000E-03	-2.74314000E-02	-4.26219000E-03
		-1.02433000E-03	-3.23828000E-02	-2.48837000E-03
		-2.21456000E-03	-3.13159000E-02	-5.04204000E-03
		-2.00614000E-03	-2.54711000E-02	-4.25109000E-03
		-1.10267000E-03	-3.00886000E-02	-2.51199000E-03
		 7.96991000E-05	-2.76358000E-02	-5.73586000E-05
		 2.60995000E-03	-2.77544000E-02	 4.81564000E-03
		 8.00705000E-05	-2.88780000E-02	-8.18036000E-05
		 2.51647000E-03	-2.89987000E-02	 4.76643000E-03
		 5.13495000E-05	-2.32107000E-02	-4.32680000E-05
		 1.34396000E-03	-2.76741000E-02	 2.37919000E-03
		 2.34462000E-03	-2.33344000E-02	 4.12564000E-03
		-2.45977000E-03	-2.76762000E-02	-4.94004000E-03
		-2.37598000E-03	-2.89300000E-02	-4.93633000E-03
		-2.23391000E-03	-2.32912000E-02	-4.21182000E-03
		-1.18562000E-03	-2.76306000E-02	-2.50051000E-03
		 7.03471000E-05	-4.38331000E-02	-2.00801000E-04
		 2.78472000E-03	-4.39353000E-02	 5.43632000E-03
		 8.02948000E-05	-4.11065000E-02	-1.49305000E-04
		 2.84266000E-03	-4.11715000E-02	 5.50664000E-03
		 6.62693000E-05	-3.79352000E-02	-1.66458000E-04
		 1.41977000E-03	-4.38857000E-02	 2.56883000E-03
		 2.53556000E-03	-3.80357000E-02	 5.19928000E-03
		 6.84675000E-05	-4.24810000E-02	-1.74453000E-04
		 2.81080000E-03	-4.25622000E-02	 5.49486000E-03
		 8.25803000E-05	-3.54037000E-02	-1.30233000E-04
		 1.45471000E-03	-4.11321000E-02	 2.65686000E-03
		 2.65844000E-03	-3.54955000E-02	 5.24104000E-03
		-2.60106000E-03	-4.38037000E-02	-5.83850000E-03
		-2.64111000E-03	-4.11010000E-02	-5.82178000E-03
		-2.39728000E-03	-3.79654000E-02	-5.52148000E-03
		-1.26768000E-03	-4.38076000E-02	-2.97658000E-03
		-2.62068000E-03	-4.24625000E-02	-5.85285000E-03
		-2.50298000E-03	-3.54376000E-02	-5.49740000E-03
		-1.27940000E-03	-4.10988000E-02	-2.96367000E-03
		 1.08435000E-04	-3.83200000E-02	-1.08626000E-04
		 2.90946000E-03	-3.83781000E-02	 5.54395000E-03
		 9.77406000E-05	-3.97162000E-02	-1.28643000E-04
		 2.87636000E-03	-3.97738000E-02	 5.51355000E-03
		 1.02521000E-04	-3.27640000E-02	-7.94629000E-05
		 1.50786000E-03	-3.83385000E-02	 2.71178000E-03
		 2.78533000E-03	-3.28618000E-02	 5.26482000E-03
		-2.69093000E-03	-3.83198000E-02	-5.75863000E-03
		-2.66597000E-03	-3.97192000E-02	-5.77622000E-03
		-2.61061000E-03	-3.27728000E-02	-5.43452000E-03
		-1.28814000E-03	-3.83161000E-02	-2.92074000E-03
		 8.49576000E-05	-5.56054000E-02	-2.66132000E-04
		 3.00551000E-03	-5.56230000E-02	 5.43414000E-03
		 1.11554000E-04	-5.27634000E-02	-2.24174000E-04
		 3.00058000E-03	-5.27767000E-02	 5.54382000E-03
		 8.93913000E-05	-4.97626000E-02	-2.30153000E-04
		 1.54728000E-03	-5.56141000E-02	 2.58941000E-03
		 2.92772000E-03	-4.98306000E-02	 5.47535000E-03
		 9.83776000E-05	-5.41782000E-02	-2.46606000E-04
		 3.00299000E-03	-5.41878000E-02	 5.48259000E-03
		 1.01076000E-04	-4.69436000E-02	-1.80369000E-04
		 1.56739000E-03	-5.27672000E-02	 2.65966000E-03
		 2.94587000E-03	-4.69861000E-02	 5.57147000E-03
		-2.78517000E-03	-5.55951000E-02	-6.01455000E-03
		-2.75956000E-03	-5.27505000E-02	-6.03268000E-03
		-2.70644000E-03	-4.97165000E-02	-5.96738000E-03
		-1.35500000E-03	-5.56033000E-02	-3.12826000E-03
		-2.77137000E-03	-5.41622000E-02	-6.02218000E-03
		-2.71954000E-03	-4.69215000E-02	-5.96680000E-03
		-1.33977000E-03	-5.27637000E-02	-3.12106000E-03
		 1.28941000E-04	-4.99042000E-02	-1.98600000E-04
		 3.00255000E-03	-4.99497000E-02	 5.61679000E-03
		 1.19935000E-04	-5.13354000E-02	-2.13346000E-04
		 3.00432000E-03	-5.13710000E-02	 5.59310000E-03
		 1.21533000E-04	-4.40896000E-02	-1.54075000E-04
		 1.56603000E-03	-4.99236000E-02	 2.70218000E-03
		 2.98533000E-03	-4.41245000E-02	 5.63446000E-03
		-2.75908000E-03	-4.98711000E-02	-5.98179000E-03
		-2.75944000E-03	-5.13299000E-02	-6.01626000E-03
		-2.74978000E-03	-4.40801000E-02	-5.91885000E-03
		-1.30938000E-03	-4.98935000E-02	-3.09108000E-03
		 0.00000000E+00	 0.00000000E+00	 0.00000000E+00
		 0.00000000E+00	 0.00000000E+00	 0.00000000E+00
		-3.69547000E-05	-1.71960000E-02	-1.21530000E-04
		-2.83106000E-03	-1.84318000E-02	 1.61924000E-02
		 0.00000000E+00	 0.00000000E+00	 0.00000000E+00
		 0.00000000E+00	 0.00000000E+00	 0.00000000E+00
		-3.33790000E-05	-1.89054000E-02	-2.04592000E-04
		-7.05081000E-04	-2.02182000E-02	 1.62868000E-02
		 0.00000000E+00	 0.00000000E+00	 0.00000000E+00
		 2.67096000E-06	-3.84400000E-03	-2.59012000E-07
		-1.43596000E-03	-1.74418000E-02	 7.90830000E-03
		-2.81966000E-03	-5.35825000E-03	 8.36289000E-03
		 0.00000000E+00	 0.00000000E+00	 0.00000000E+00
		 0.00000000E+00	 0.00000000E+00	 0.00000000E+00
		-3.28069000E-05	-1.84075000E-02	-1.74522000E-04
		-1.74919000E-03	-1.96834000E-02	 1.61758000E-02
		 0.00000000E+00	 0.00000000E+00	 0.00000000E+00
		-1.02694000E-05	-5.28878000E-03	-4.70665000E-05
		-3.71324000E-04	-1.91761000E-02	 7.84964000E-03
		-3.57117000E-04	-6.79944000E-03	 8.09770000E-03
		 0.00000000E+00	 0.00000000E+00	 0.00000000E+00
		 2.71619000E-03	-1.77909000E-02	-1.65243000E-02
		 0.00000000E+00	 0.00000000E+00	 0.00000000E+00
		 6.43922000E-04	-1.95647000E-02	-1.67938000E-02
		 0.00000000E+00	 0.00000000E+00	 0.00000000E+00
		 2.80269000E-03	-5.10901000E-03	-8.39141000E-03
		 1.34671000E-03	-1.71204000E-02	-8.17954000E-03
		 0.00000000E+00	 0.00000000E+00	 0.00000000E+00
		 1.67188000E-03	-1.90278000E-02	-1.66183000E-02
		 0.00000000E+00	 0.00000000E+00	 0.00000000E+00
		 3.45322000E-04	-6.57101000E-03	-8.20791000E-03
		 3.04086000E-04	-1.88486000E-02	-8.29204000E-03
		 0.00000000E+00	 0.00000000E+00	 0.00000000E+00
		 0.00000000E+00	 0.00000000E+00	 0.00000000E+00
		-3.44429000E-05	-1.85411000E-02	-2.12115000E-04
		 1.41708000E-03	-1.97678000E-02	 1.61070000E-02
		 0.00000000E+00	 0.00000000E+00	 0.00000000E+00
		 0.00000000E+00	 0.00000000E+00	 0.00000000E+00
		-3.39180000E-05	-1.90796000E-02	-2.19108000E-04
		 3.39419000E-04	-2.03482000E-02	 1.62416000E-02
		 0.00000000E+00	 0.00000000E+00	 0.00000000E+00
		-2.98603000E-05	-4.54415000E-03	-4.32629000E-05
		 6.91694000E-04	-1.87793000E-02	 7.71071000E-03
		 2.11826000E-03	-6.02305000E-03	 8.32145000E-03
		 0.00000000E+00	 0.00000000E+00	 0.00000000E+00
		-1.43880000E-03	-1.91422000E-02	-1.66121000E-02
		 0.00000000E+00	 0.00000000E+00	 0.00000000E+00
		-3.87653000E-04	-1.97015000E-02	-1.67708000E-02
		 0.00000000E+00	 0.00000000E+00	 0.00000000E+00
		-2.14161000E-03	-5.80241000E-03	-8.43377000E-03
		-7.44351000E-04	-1.84725000E-02	-8.15951000E-03
		-8.73421000E-05	-6.49134000E-02	-1.21170000E-03
		-2.94526000E-03	-6.66225000E-02	 2.80834000E-02
		-7.95828000E-05	-6.69037000E-02	-1.33021000E-03
		-1.24840000E-03	-6.86298000E-02	 2.80260000E-02
		-5.63856000E-05	-3.77205000E-02	-5.03007000E-04
		-1.51514000E-03	-6.55758000E-02	 1.33280000E-02
		-2.95228000E-03	-3.93096000E-02	 2.27374000E-02
		-8.34057000E-05	-6.60973000E-02	-1.28769000E-03
		-2.09714000E-03	-6.78153000E-02	 2.80448000E-02
		-6.16347000E-05	-3.96268000E-02	-6.11151000E-04
		-6.57770000E-04	-6.75775000E-02	 1.32461000E-02
		-9.97660000E-04	-4.12190000E-02	 2.26913000E-02
		 2.75295000E-03	-6.48163000E-02	-3.06248000E-02
		 1.08416000E-03	-6.68199000E-02	-3.08053000E-02
		 2.79950000E-03	-3.81429000E-02	-2.38651000E-02
		 1.33304000E-03	-6.46855000E-02	-1.57777000E-02
		 1.92236000E-03	-6.60084000E-02	-3.07361000E-02
		 8.76577000E-04	-4.00426000E-02	-2.40348000E-02
		 5.02363000E-04	-6.66833000E-02	-1.59309000E-02
		-7.55947000E-05	-6.72418000E-02	-1.34281000E-03
		 4.75829000E-04	-6.89262000E-02	 2.79523000E-02
		-7.85856000E-05	-6.72585000E-02	-1.34687000E-03
		-3.85056000E-04	-6.90036000E-02	 2.80403000E-02
		-6.98404000E-05	-3.95929000E-02	-6.24856000E-04
		 1.90902000E-04	-6.78856000E-02	 1.31425000E-02
		 9.52289000E-04	-4.11755000E-02	 2.26180000E-02
		-5.83885000E-04	-6.71409000E-02	-3.07539000E-02
		 2.46329000E-04	-6.71682000E-02	-3.08534000E-02
		-1.03817000E-03	-4.00294000E-02	-2.39837000E-02
		-3.26916000E-04	-6.70115000E-02	-1.58512000E-02
		-9.45246000E-06	-1.35174000E-01	-3.65342000E-03
		-2.88849000E-03	-1.37093000E-01	 3.45771000E-02
		 9.80333000E-06	-1.37530000E-01	-3.73475000E-03
		-1.88711000E-03	-1.39572000E-01	 3.45830000E-02
		-7.18576000E-05	-9.77684000E-02	-2.26876000E-03
		-1.44165000E-03	-1.35994000E-01	 1.53136000E-02
		-2.89544000E-03	-9.96330000E-02	 3.20543000E-02
		 2.76621000E-07	-1.36481000E-01	-3.70125000E-03
		-2.39013000E-03	-1.38474000E-01	 3.45413000E-02
		-6.31483000E-05	-9.98992000E-02	-2.37512000E-03
		-9.61066000E-04	-1.38411000E-01	 1.52312000E-02
		-1.53039000E-03	-1.01782000E-01	 3.20329000E-02
		 2.81803000E-03	-1.34160000E-01	-4.19545000E-02
		 1.89954000E-03	-1.36515000E-01	-4.21569000E-02
		 2.72399000E-03	-9.72237000E-02	-3.67029000E-02
		 1.40598000E-03	-1.34552000E-01	-2.26323000E-02
		 2.35597000E-03	-1.35460000E-01	-4.20417000E-02
		 1.39940000E-03	-9.93334000E-02	-3.68930000E-02
		 9.56521000E-04	-1.36913000E-01	-2.27409000E-02
		 3.06047000E-05	-1.38952000E-01	-3.74016000E-03
		-9.69424000E-04	-1.41098000E-01	 3.44828000E-02
		 1.96946000E-05	-1.38378000E-01	-3.74955000E-03
		-1.43241000E-03	-1.40357000E-01	 3.46574000E-02
		-4.41796000E-05	-1.00693000E-01	-2.38228000E-03
		-4.41935000E-04	-1.39882000E-01	 1.50496000E-02
		-1.74269000E-04	-1.02588000E-01	 3.19450000E-02
		 9.87398000E-04	-1.37952000E-01	-4.20914000E-02
		 1.44225000E-03	-1.37346000E-01	-4.22642000E-02
		 5.27166000E-05	-1.00111000E-01	-3.68183000E-02
		 5.04933000E-04	-1.38361000E-01	-2.25899000E-02
		 3.42937000E-04	-2.17950000E-01	-7.04550000E-03
		-2.64094000E-03	-2.19628000E-01	 3.44692000E-02
		 3.62005000E-04	-2.20978000E-01	-7.06409000E-03
		-2.69035000E-03	-2.23116000E-01	 3.45256000E-02
		 9.99568000E-05	-1.75790000E-01	-5.28374000E-03
		-1.15077000E-03	-2.18775000E-01	 1.35895000E-02
		-2.81355000E-03	-1.77727000E-01	 3.52610000E-02
		 3.52909000E-04	-2.19433000E-01	-7.05227000E-03
		-2.65733000E-03	-2.21282000E-01	 3.44850000E-02
		 1.16092000E-04	-1.78498000E-01	-5.37654000E-03
		-1.03941000E-03	-2.22020000E-01	 1.35775000E-02
		-2.36659000E-03	-1.80398000E-01	 3.53515000E-02
		 3.15548000E-03	-2.16260000E-01	-4.85685000E-02
		 3.11269000E-03	-2.19112000E-01	-4.86494000E-02
		 2.97772000E-03	-1.74381000E-01	-4.58798000E-02
		 1.75270000E-03	-2.17123000E-01	-2.76792000E-02
		 3.13590000E-03	-2.17683000E-01	-4.85959000E-02
		 2.51855000E-03	-1.77032000E-01	-4.60480000E-02
		 1.72656000E-03	-2.20036000E-01	-2.77100000E-02
		 2.48812000E-04	-2.23959000E-01	-7.07881000E-03
		-2.59552000E-03	-2.26469000E-01	 3.44457000E-02
		 3.06643000E-04	-2.22434000E-01	-7.07683000E-03
		-2.64277000E-03	-2.25286000E-01	 3.45783000E-02
		 1.13175000E-04	-1.80722000E-01	-5.45646000E-03
		-1.28725000E-03	-2.25163000E-01	 1.34329000E-02
		-1.73299000E-03	-1.82508000E-01	 3.52435000E-02
		 3.09356000E-03	-2.21943000E-01	-4.85854000E-02