<?xml version="1.0"?>
<VTKFile type="UnstructuredGrid" version="0.1" byte_order="LittleEndian">
	<UnstructuredGrid>
		<Piece NumberOfPoints="522" NumberOfCells="64">
			<Points>
				<DataArray type="Float64" NumberOfComponents="3" format="ascii">
					 1.00000000E+00	 1.00000000E+00	-5.96046000E-08
					 1.00000000E+00	 5.00000000E-01	-5.96046000E-08
					 1.00000000E+00	 5.00000000E-01	 1.00000000E+00
					 1.00000000E+00	 1.00000000E+00	 1.00000000E+00
					 5.00000000E-01	 1.00000000E+00	-5.96046000E-08
					 5.00000000E-01	 5.00000000E-01	-5.96046000E-08
					 5.00000000E-01	 5.00000000E-01	 1.00000000E+00
					 5.00000000E-01	 1.00000000E+00	 1.00000000E+00
					 1.00000000E+00	 7.50000000E-01	-5.96046000E-08
					 1.00000000E+00	 5.00000000E-01	 5.00000000E-01
					 1.00000000E+00	 7.50000000E-01	 1.00000000E+00
					 1.00000000E+00	 1.00000000E+00	 5.00000000E-01
					 7.50000000E-01	 1.00000000E+00	-5.96046000E-08
					 7.50000000E-01	 5.00000000E-01	-5.96046000E-08
					 7.50000000E-01	 5.00000000E-01	 1.00000000E+00
					 7.50000000E-01	 1.00000000E+00	 1.00000000E+00
					 5.00000000E-01	 7.50000000E-01	-5.96046000E-08
					 5.00000000E-01	 5.00000000E-01	 5.00000000E-01
					 5.00000000E-01	 7.50000000E-01	 1.00000000E+00
					 5.00000000E-01	 1.00000000E+00	 5.00000000E-01
					 1.00000000E+00	-1.49012000E-08	-5.96046000E-08
					 1.00000000E+00	-1.49012000E-08	 1.00000000E+00
					 5.00000000E-01	-1.49012000E-08	-5.96046000E-08
					 5.00000000E-01	-1.49012000E-08	 1.00000000E+00
					 1.00000000E+00	 2.50000000E-01	-5.96046000E-08
					 1.00000000E+00	-1.49012000E-08	 5.00000000E-01
					 1.00000000E+00	 2.50000000E-01	 1.00000000E+00
					 7.50000000E-01	-1.49012000E-08	-5.96046000E-08
					 7.50000000E-01	-1.49012000E-08	 1.00000000E+00
					 5.00000000E-01	 2.50000000E-01	-5.96046000E-08
					 5.00000000E-01	-1.49012000E-08	 5.00000000E-01
					 5.00000000E-01	 2.50000000E-01	 1.00000000E+00
					-7.45058000E-09	 1.00000000E+00	-5.96046000E-08
					-7.45058000E-09	 5.00000000E-01	-5.96046000E-08
					-7.45058000E-09	 5.00000000E-01	 1.00000000E+00
					-7.45058000E-09	 1.00000000E+00	 1.00000000E+00
					 2.50000000E-01	 1.00000000E+00	-5.96046000E-08
					 2.50000000E-01	 5.00000000E-01	-5.96046000E-08
					 2.50000000E-01	 5.00000000E-01	 1.00000000E+00
					 2.50000000E-01	 1.00000000E+00	 1.00000000E+00
					-7.45058000E-09	 7.50000000E-01	-5.96046000E-08
					-7.45058000E-09	 5.00000000E-01	 5.00000000E-01
					-7.45058000E-09	 7.50000000E-01	 1.00000000E+00
					-7.45058000E-09	 1.00000000E+00	 5.00000000E-01
					-7.45058000E-09	-1.49012000E-08	-5.96046000E-08
					-7.45058000E-09	-1.49012000E-08	 1.00000000E+00
					 2.50000000E-01	-1.49012000E-08	-5.96046000E-08
					 2.50000000E-01	-1.49012000E-08	 1.00000000E+00
					-7.45058000E-09	 2.50000000E-01	-5.96046000E-08
					-7.45058000E-09	-1.49012000E-08	 5.00000000E-01
					-7.45058000E-09	 2.50000000E-01	 1.00000000E+00
					 1.00000000E+00	 5.00000000E-01	 2.00000000E+00
					 1.00000000E+00	 1.00000000E+00	 2.00000000E+00
					 5.00000000E-01	 5.00000000E-01	 2.00000000E+00
					 5.00000000E-01	 1.00000000E+00	 2.00000000E+00
					 1.00000000E+00	 5.00000000E-01	 1.50000000E+00
					 1.00000000E+00	 7.50000000E-01	 2.00000000E+00
					 1.00000000E+00	 1.00000000E+00	 1.50000000E+00
					 7.50000000E-01	 5.00000000E-01	 2.00000000E+00
					 7.50000000E-01	 1.00000000E+00	 2.00000000E+00
					 5.00000000E-01	 5.00000000E-01	 1.50000000E+00
					 5.00000000E-01	 7.50000000E-01	 2.00000000E+00
					 5.00000000E-01	 1.00000000E+00	 1.50000000E+00
					 1.00000000E+00	-1.49012000E-08	 2.00000000E+00
					 5.00000000E-01	-1.49012000E-08	 2.00000000E+00
					 1.00000000E+00	-1.49012000E-08	 1.50000000E+00
					 1.00000000E+00	 2.50000000E-01	 2.00000000E+00
					 7.50000000E-01	-1.49012000E-08	 2.00000000E+00
					 5.00000000E-01	-1.49012000E-08	 1.50000000E+00
					 5.00000000E-01	 2.50000000E-01	 2.00000000E+00
					-7.45058000E-09	 5.00000000E-01	 2.00000000E+00
					-7.45058000E-09	 1.00000000E+00	 2.00000000E+00
					 2.50000000E-01	 5.00000000E-01	 2.00000000E+00
					 2.50000000E-01	 1.00000000E+00	 2.00000000E+00
					-7.45058000E-09	 5.00000000E-01	 1.50000000E+00
					-7.45058000E-09	 7.50000000E-01	 2.00000000E+00
					-7.45058000E-09	 1.00000000E+00	 1.50000000E+00
					-7.45058000E-09	-1.49012000E-08	 2.00000000E+00
					 2.50000000E-01	-1.49012000E-08	 2.00000000E+00
					-7.45058000E-09	-1.49012000E-08	 1.50000000E+00
					-7.45058000E-09	 2.50000000E-01	 2.00000000E+00
					 1.00000000E+00	 5.00000000E-01	 3.00000000E+00
					 1.00000000E+00	 1.00000000E+00	 3.00000000E+00
					 5.00000000E-01	 5.00000000E-01	 3.00000000E+00
					 5.00000000E-01	 1.00000000E+00	 3.00000000E+00
					 1.00000000E+00	 5.00000000E-01	 2.50000000E+00
					 1.00000000E+00	 7.50000000E-01	 3.00000000E+00
					 1.00000000E+00	 1.00000000E+00	 2.50000000E+00
					 7.50000000E-01	 5.00000000E-01	 3.00000000E+00
					 7.50000000E-01	 1.00000000E+00	 3.00000000E+00
					 5.00000000E-01	 5.00000000E-01	 2.50000000E+00
					 5.00000000E-01	 7.50000000E-01	 3.00000000E+00
					 5.00000000E-01	 1.00000000E+00	 2.50000000E+00
					 1.00000000E+00	-1.49012000E-08	 3.00000000E+00
					 5.00000000E-01	-1.49012000E-08	 3.00000000E+00
					 1.00000000E+00	-1.49012000E-08	 2.50000000E+00
					 1.00000000E+00	 2.50000000E-01	 3.00000000E+00
					 7.50000000E-01	-1.49012000E-08	 3.00000000E+00
					 5.00000000E-01	-1.49012000E-08	 2.50000000E+00
					 5.00000000E-01	 2.50000000E-01	 3.00000000E+00
					-7.45058000E-09	 5.00000000E-01	 3.00000000E+00
					-7.45058000E-09	 1.00000000E+00	 3.00000000E+00
					 2.50000000E-01	 5.00000000E-01	 3.00000000E+00
					 2.50000000E-01	 1.00000000E+00	 3.00000000E+00
					-7.45058000E-09	 5.00000000E-01	 2.50000000E+00
					-7.45058000E-09	 7.50000000E-01	 3.00000000E+00
					-7.45058000E-09	 1.00000000E+00	 2.50000000E+00
					-7.45058000E-09	-1.49012000E-08	 3.00000000E+00
					 2.50000000E-01	-1.49012000E-08	 3.00000000E+00
					-7.45058000E-09	-1.49012000E-08	 2.50000000E+00
					-7.45058000E-09	 2.50000000E-01	 3.00000000E+00
					 1.00000000E+00	 5.00000000E-01	 4.00000000E+00
					 1.00000000E+00	 1.00000000E+00	 4.00000000E+00
					 5.00000000E-01	 5.00000000E-01	 4.00000000E+00
					 5.00000000E-01	 1.00000000E+00	 4.00000000E+00
					 1.00000000E+00	 5.00000000E-01	 3.50000000E+00
					 1.00000000E+00	 7.50000000E-01	 4.00000000E+00
					 1.00000000E+00	 1.00000000E+00	 3.50000000E+00
					 7.50000000E-01	 5.00000000E-01	 4.00000000E+00
					 7.50000000E-01	 1.00000000E+00	 4.00000000E+00
					 5.00000000E-01	 5.00000000E-01	 3.50000000E+00
					 5.00000000E-01	 7.50000000E-01	 4.00000000E+00
					 5.00000000E-01	 1.00000000E+00	 3.50000000E+00
					 1.00000000E+00	-1.49012000E-08	 4.00000000E+00
					 5.00000000E-01	-1.49012000E-08	 4.00000000E+00
					 1.00000000E+00	-1.49012000E-08	 3.50000000E+00
					 1.00000000E+00	 2.50000000E-01	 4.00000000E+00
					 7.50000000E-01	-1.49012000E-08	 4.00000000E+00
					 5.00000000E-01	-1.49012000E-08	 3.50000000E+00
					 5.00000000E-01	 2.50000000E-01	 4.00000000E+00
					-7.45058000E-09	 5.00000000E-01	 4.00000000E+00
					-7.45058000E-09	 1.00000000E+00	 4.00000000E+00
					 2.50000000E-01	 5.00000000E-01	 4.00000000E+00
					 2.50000000E-01	 1.00000000E+00	 4.00000000E+00
					-7.45058000E-09	 5.00000000E-01	 3.50000000E+00
					-7.45058000E-09	 7.50000000E-01	 4.00000000E+00
					-7.45058000E-09	 1.00000000E+00	 3.50000000E+00
					-7.45058000E-09	-1.49012000E-08	 4.00000000E+00
					 2.50000000E-01	-1.49012000E-08	 4.00000000E+00
					-7.45058000E-09	-1.49012000E-08	 3.50000000E+00
					-7.45058000E-09	 2.50000000E-01	 4.00000000E+00
					 1.00000000E+00	 5.00000000E-01	 5.00000000E+00
					 1.00000000E+00	 1.00000000E+00	 5.00000000E+00
					 5.00000000E-01	 5.00000000E-01	 5.00000000E+00
					 5.00000000E-01	 1.00000000E+00	 5.00000000E+00
					 1.00000000E+00	 5.00000000E-01	 4.50000000E+00
					 1.00000000E+00	 7.50000000E-01	 5.00000000E+00
					 1.00000000E+00	 1.00000000E+00	 4.50000000E+00
					 7.50000000E-01	 5.00000000E-01	 5.00000000E+00
					 7.50000000E-01	 1.00000000E+00	 5.00000000E+00
					 5.00000000E-01	 5.00000000E-01	 4.50000000E+00
					 5.00000000E-01	 7.50000000E-01	 5.00000000E+00
					 5.00000000E-01	 1.00000000E+00	 4.50000000E+00
					 1.00000000E+00	-1.49012000E-08	 5.00000000E+00
					 5.00000000E-01	-1.49012000E-08	 5.00000000E+00
					 1.00000000E+00	-1.49012000E-08	 4.50000000E+00
					 1.00000000E+00	 2.50000000E-01	 5.00000000E+00
					 7.50000000E-01	-1.49012000E-08	 5.00000000E+00
					 5.00000000E-01	-1.49012000E-08	 4.50000000E+00
					 5.00000000E-01	 2.50000000E-01	 5.00000000E+00
					-7.45058000E-09	 5.00000000E-01	 5.00000000E+00
					-7.45058000E-09	 1.00000000E+00	 5.00000000E+00
					 2.50000000E-01	 5.00000000E-01	 5.00000000E+00
					 2.50000000E-01	 1.00000000E+00	 5.00000000E+00
					-7.45058000E-09	 5.00000000E-01	 4.50000000E+00
					-7.45058000E-09	 7.50000000E-01	 5.00000000E+00
					-7.45058000E-09	 1.00000000E+00	 4.50000000E+00
					-7.45058000E-09	-1.49012000E-08	 5.00000000E+00
					 2.50000000E-01	-1.49012000E-08	 5.00000000E+00
					-7.45058000E-09	-1.49012000E-08	 4.50000000E+00
					-7.45058000E-09	 2.50000000E-01	 5.00000000E+00
					 1.00000000E+00	 5.00000000E-01	 6.00000000E+00
					 1.00000000E+00	 1.00000000E+00	 6.00000000E+00
					 5.00000000E-01	 5.00000000E-01	 6.00000000E+00
					 5.00000000E-01	 1.00000000E+00	 6.00000000E+00
					 1.00000000E+00	 5.00000000E-01	 5.50000000E+00
					 1.00000000E+00	 7.50000000E-01	 6.00000000E+00
					 1.00000000E+00	 1.00000000E+00	 5.50000000E+00
					 7.50000000E-01	 5.00000000E-01	 6.00000000E+00
					 7.50000000E-01	 1.00000000E+00	 6.00000000E+00
					 5.00000000E-01	 5.00000000E-01	 5.50000000E+00
					 5.00000000E-01	 7.50000000E-01	 6.00000000E+00
					 5.00000000E-01	 1.00000000E+00	 5.50000000E+00
					 1.00000000E+00	-1.49012000E-08	 6.00000000E+00
[...]
			<PointData>
				<DataArray type="Float32" Name="U" NumberOfComponents="3" ComponentName0="D1" ComponentName1="D2" ComponentName2="D3" format="ascii">
					 0.00000000E+00	 0.00000000E+00	 0.00000000E+00
					 0.00000000E+00	 0.00000000E+00	 0.00000000E+00
					-1.58354000E-05	-9.50930000E-04	 4.12801000E-06
					 1.18268000E-03	-8.86757000E-04	-6.48570000E-04
					 0.00000000E+00	 0.00000000E+00	 0.00000000E+00
					 0.00000000E+00	 0.00000000E+00	 0.00000000E+00
					-1.47181000E-05	 1.66318000E-04	-1.53662000E-05
					 1.04199000E-03	 2.40497000E-04	-6.72151000E-04
					 0.00000000E+00	 0.00000000E+00	 0.00000000E+00
					-1.09844000E-06	-8.11901000E-04	 9.02812000E-07
					 5.82570000E-04	-9.40112000E-04	-4.06751000E-04
					 6.75347000E-04	-7.42893000E-04	-2.32448000E-04
					 0.00000000E+00	 0.00000000E+00	 0.00000000E+00
					 0.00000000E+00	 0.00000000E+00	 0.00000000E+00
					-1.48346000E-05	-3.72159000E-04	-6.10875000E-06
					 1.11194000E-03	-3.02730000E-04	-5.81815000E-04
					 0.00000000E+00	 0.00000000E+00	 0.00000000E+00
					-1.40949000E-06	-1.72625000E-04	-7.35031000E-06
					 5.13057000E-04	 1.80753000E-04	-3.49947000E-04
					 5.91781000E-04	-1.16051000E-04	-2.24344000E-04
					 0.00000000E+00	 0.00000000E+00	 0.00000000E+00
					-1.21295000E-03	-8.83191000E-04	 6.55540000E-04
					 0.00000000E+00	 0.00000000E+00	 0.00000000E+00
					-1.07078000E-03	 2.39796000E-04	 6.41493000E-04
					 0.00000000E+00	 0.00000000E+00	 0.00000000E+00
					-6.74667000E-04	-7.40496000E-04	 2.33683000E-04
					-6.14299000E-04	-9.38414000E-04	 4.14813000E-04
					 0.00000000E+00	 0.00000000E+00	 0.00000000E+00
					-1.14050000E-03	-3.01369000E-04	 5.68688000E-04
					 0.00000000E+00	 0.00000000E+00	 0.00000000E+00
					-5.92379000E-04	-1.19717000E-04	 2.08950000E-04
					-5.42842000E-04	 1.80281000E-04	 3.19302000E-04
					 0.00000000E+00	 0.00000000E+00	 0.00000000E+00
					 0.00000000E+00	 0.00000000E+00	 0.00000000E+00
					-1.64675000E-05	 1.16164000E-03	-3.28816000E-05
					 8.98348000E-04	 1.22856000E-03	-6.83872000E-04
					 0.00000000E+00	 0.00000000E+00	 0.00000000E+00
					 0.00000000E+00	 0.00000000E+00	 0.00000000E+00
					-1.50687000E-05	 6.83525000E-04	-2.40512000E-05
					 9.71054000E-04	 7.55776000E-04	-7.51755000E-04
					 0.00000000E+00	 0.00000000E+00	 0.00000000E+00
					-5.09341000E-06	 3.72326000E-04	-1.58741000E-05
					 4.42131000E-04	 1.17348000E-03	-2.90088000E-04
					 4.73618000E-04	 4.15306000E-04	-2.49263000E-04
					 0.00000000E+00	 0.00000000E+00	 0.00000000E+00
					-9.30707000E-04	 1.22551000E-03	 6.19592000E-04
					 0.00000000E+00	 0.00000000E+00	 0.00000000E+00
					-1.00096000E-03	 7.53712000E-04	 7.04827000E-04
					 0.00000000E+00	 0.00000000E+00	 0.00000000E+00
					-4.81748000E-04	 4.06589000E-04	 2.16612000E-04
					-4.75068000E-04	 1.17197000E-03	 2.24635000E-04
					-5.71519000E-05	 1.17876000E-03	-5.36735000E-06
					 1.39362000E-03	 1.16254000E-03	-1.22197000E-03
					-5.45413000E-05	 2.62704000E-03	-2.33253000E-05
					 1.40075000E-03	 2.61662000E-03	-1.26339000E-03
					-3.90090000E-05	-1.78672000E-04	 2.06454000E-06
					 6.65116000E-04	 1.17093000E-03	-5.51107000E-04
					 1.39505000E-03	-1.69159000E-04	-1.05380000E-03
					-5.61794000E-05	 1.90084000E-03	-1.41170000E-05
					 1.39729000E-03	 1.89172000E-03	-1.25631000E-03
					-3.65969000E-05	 1.19091000E-03	-2.04317000E-05
					 6.74699000E-04	 2.62204000E-03	-5.91788000E-04
					 1.29344000E-03	 1.22134000E-03	-1.09381000E-03
					-1.51168000E-03	 1.16353000E-03	 1.21303000E-03
					-1.51419000E-03	 2.62318000E-03	 1.21849000E-03
					-1.47478000E-03	-1.67868000E-04	 1.05718000E-03
					-7.80421000E-04	 1.17028000E-03	 5.41152000E-04
					-1.51384000E-03	 1.89568000E-03	 1.22959000E-03
					-1.36910000E-03	 1.22434000E-03	 1.05333000E-03
					-7.85198000E-04	 2.62476000E-03	 5.45684000E-04
					-5.12039000E-05	 4.09233000E-03	-4.22302000E-05
					 1.41899000E-03	 4.08012000E-03	-1.25938000E-03
					-5.27120000E-05	 3.35911000E-03	-3.28676000E-05
					 1.41057000E-03	 3.34695000E-03	-1.27872000E-03
					-3.51602000E-05	 2.48293000E-03	-4.13763000E-05
					 6.84782000E-04	 4.08692000E-03	-5.85122000E-04
					 1.22269000E-03	 2.52158000E-03	-1.09572000E-03
					-1.52558000E-03	 4.09266000E-03	 1.17681000E-03
					-1.52047000E-03	 3.35639000E-03	 1.21478000E-03
					-1.29590000E-03	 2.52762000E-03	 1.01465000E-03
					-7.88331000E-04	 4.09317000E-03	 5.01299000E-04
					-7.62670000E-05	 3.49778000E-03	-1.70186000E-05
					 1.35795000E-03	 3.38483000E-03	-3.39232000E-04
					-7.68621000E-05	 5.07317000E-03	-2.57628000E-05
					 1.61700000E-03	 4.94463000E-03	-3.67419000E-04
					-6.66659000E-05	 2.60653000E-03	-1.21537000E-05
					 6.45843000E-04	 3.47529000E-03	-1.59651000E-04
					 1.33599000E-03	 2.54839000E-03	-9.62883000E-04
					-7.63835000E-05	 4.25400000E-03	-2.17373000E-05
					 1.48680000E-03	 4.12815000E-03	-3.35436000E-04
					-6.55929000E-05	 4.08538000E-03	-2.50471000E-05
					 7.69530000E-04	 5.04276000E-03	-1.57993000E-04
					 1.47866000E-03	 4.01673000E-03	-1.00375000E-03
					-1.51786000E-03	 3.38639000E-03	 3.07566000E-04
					-1.77485000E-03	 4.95622000E-03	 3.18532000E-04
					-1.47483000E-03	 2.54959000E-03	 9.42076000E-04
					-8.00508000E-04	 3.47655000E-03	 1.26356000E-04
					-1.64582000E-03	 4.13548000E-03	 2.94408000E-04
					-1.61407000E-03	 4.02527000E-03	 9.56851000E-04
					-9.24475000E-04	 5.04957000E-03	 1.07126000E-04
					-7.48795000E-05	 6.89025000E-03	-3.62853000E-05
					 1.86927000E-03	 6.76078000E-03	-3.60000000E-04
					-7.67156000E-05	 5.94870000E-03	-3.02272000E-05
					 1.74209000E-03	 5.81942000E-03	-4.03564000E-04
					-6.31119000E-05	 5.69846000E-03	-4.07631000E-05
					 8.96123000E-04	 6.85858000E-03	-1.21487000E-04
					 1.61180000E-03	 5.62328000E-03	-9.93529000E-04
					-2.01957000E-03	 6.77644000E-03	 2.90122000E-04
					-1.89753000E-03	 5.83370000E-03	 3.45690000E-04
					-1.74027000E-03	 5.63608000E-03	 9.14785000E-04
					-1.04589000E-03	 6.86693000E-03	 4.96097000E-05
					-8.29367000E-05	 1.82764000E-03	-3.74404000E-05
					 1.84012000E-03	 1.68618000E-03	 1.62002000E-03
					-8.19553000E-05	 3.91015000E-03	-2.67530000E-05
					 2.13739000E-03	 3.75506000E-03	 1.64055000E-03
					-8.37871000E-05	 3.30407000E-03	-2.53906000E-05
					 8.81578000E-04	 1.79573000E-03	 7.17575000E-04
					 1.53343000E-03	 3.17513000E-03	 6.09482000E-04
					-8.25733000E-05	 2.83137000E-03	-3.16460000E-05
					 1.98838000E-03	 2.68057000E-03	 1.68350000E-03
					-8.45811000E-05	 5.08873000E-03	-2.56664000E-05
					 1.02798000E-03	 3.87165000E-03	 7.84540000E-04
					 1.84347000E-03	 4.94217000E-03	 6.04275000E-04
					-2.01537000E-03	 1.69454000E-03	-1.69752000E-03
					-2.30588000E-03	 3.77629000E-03	-1.69708000E-03
					-1.70931000E-03	 3.17818000E-03	-6.60338000E-04
					-1.04990000E-03	 1.79983000E-03	-7.92801000E-04
					-2.16128000E-03	 2.69694000E-03	-1.75002000E-03
					-2.01698000E-03	 4.95751000E-03	-6.55704000E-04
					-1.19305000E-03	 3.88345000E-03	-8.38715000E-04
					-7.73048000E-05	 6.27206000E-03	-1.46078000E-05
					 2.43477000E-03	 6.11869000E-03	 1.64258000E-03
					-8.05888000E-05	 5.05397000E-03	-2.15556000E-05
					 2.28522000E-03	 4.89782000E-03	 1.60242000E-03
					-8.17722000E-05	 7.16590000E-03	-2.52121000E-05
					 1.17691000E-03	 6.23388000E-03	 8.31543000E-04
					 2.14924000E-03	 7.02033000E-03	 6.08687000E-04
					-2.58914000E-03	 6.14425000E-03	-1.67501000E-03
					-2.44787000E-03	 4.92187000E-03	-1.64840000E-03
					-2.31302000E-03	 7.04085000E-03	-6.59234000E-04
					-1.33118000E-03	 6.24729000E-03	-8.61602000E-04
					-6.88539000E-05	-4.20599000E-03	-7.02941000E-05
					 2.66273000E-03	-4.28916000E-03	 3.00561000E-03
					-6.35710000E-05	-1.40862000E-03	-4.58723000E-05
					 2.80013000E-03	-1.49280000E-03	 3.04387000E-03
					-7.59041000E-05	-8.19516000E-04	-5.22457000E-05
					 1.29637000E-03	-4.23178000E-03	 1.38477000E-03
					 2.24614000E-03	-9.32393000E-04	 2.43472000E-03
					-6.58208000E-05	-2.82301000E-03	-5.77308000E-05
					 2.73164000E-03	-2.90644000E-03	 3.08152000E-03
					-7.28679000E-05	 1.61494000E-03	-3.30898000E-05
					 1.36847000E-03	-1.43629000E-03	 1.47103000E-03
					 2.46384000E-03	 1.49514000E-03	 2.47270000E-03
					-2.80628000E-03	-4.26039000E-03	-3.14697000E-03
					-2.93108000E-03	-1.45663000E-03	-3.13687000E-03
					-2.40679000E-03	-9.15845000E-04	-2.54231000E-03
					-1.43580000E-03	-4.21908000E-03	-1.52609000E-03
					-2.86868000E-03	-2.87251000E-03	-3.19746000E-03
					-2.61426000E-03	 1.52298000E-03	-2.54209000E-03
					-1.49698000E-03	-1.41818000E-03	-1.56323000E-03
					-5.78275000E-05	 1.52509000E-03	-2.07568000E-05
					 2.93806000E-03	 1.43666000E-03	 3.05602000E-03
					-6.10569000E-05	 4.24821000E-05	-3.37056000E-05
					 2.86868000E-03	-4.25784000E-05	 3.00985000E-03
					-6.78104000E-05	 4.25952000E-03	-1.33470000E-05
					 1.44145000E-03	 1.49544000E-03	 1.53129000E-03
					 2.68281000E-03	 4.13855000E-03	 2.47449000E-03
					-3.05459000E-03	 1.47516000E-03	-3.09940000E-03
					-2.99291000E-03	-5.24366000E-06	-3.07893000E-03
					-2.81866000E-03	 4.16957000E-03	-2.50443000E-03
					-1.55754000E-03	 1.51537000E-03	-1.57339000E-03
					-6.67445000E-05	-1.18760000E-02	-1.01395000E-04
					 3.38964000E-03	-1.19441000E-02	 3.57718000E-03
					-5.47088000E-05	-8.38801000E-03	-7.66115000E-05
					 3.47476000E-03	-8.45196000E-03	 3.60310000E-03
					-6.50284000E-05	-7.94634000E-03	-8.68510000E-05
					 1.66062000E-03	-1.19011000E-02	 1.69457000E-03
					 3.04675000E-03	-8.02176000E-03	 3.33498000E-03
					-6.07258000E-05	-1.01411000E-02	-8.97539000E-05
					 3.43235000E-03	-1.02065000E-02	 3.63566000E-03
					-5.70972000E-05	-4.79432000E-03	-6.11726000E-05
					 1.71078000E-03	-8.41114000E-03	 1.76653000E-03
					 3.14182000E-03	-4.86706000E-03	 3.36657000E-03
					-3.52191000E-03	-1.18922000E-02	-3.78514000E-03
					-3.58526000E-03	-8.40138000E-03	-3.76113000E-03
					-3.17798000E-03	-7.97859000E-03	-3.50943000E-03
					-1.79420000E-03	-1.18751000E-02	-1.89913000E-03
					-3.55319000E-03	-1.01552000E-02	-3.82016000E-03
					-3.25771000E-03	-4.82233000E-03	-3.49054000E-03
					-1.82071000E-03	-8.38578000E-03	-1.92127000E-03
					-4.26091000E-05	-4.81979000E-03	-4.64668000E-05
					 3.56481000E-03	-4.88460000E-03	 3.63229000E-03
					-4.86101000E-05	-6.61378000E-03	-6.19055000E-05
					 3.51990000E-03	-6.67728000E-03	 3.56927000E-03
					-4.90192000E-05	-1.54858000E-03	-3.30395000E-05
					 1.76195000E-03	-4.84373000E-03	 1.84365000E-03
					 3.23792000E-03	-1.62546000E-03	 3.38928000E-03
					-3.65290000E-03	-4.83118000E-03	-3.72963000E-03
					-3.61976000E-03	-6.62680000E-03	-3.69707000E-03
					-3.33732000E-03	-1.57924000E-03	-3.45795000E-03
					-1.84783000E-03	-4.81575000E-03	-1.93845000E-03
					-7.97653000E-05	-2.03201000E-02	-1.43103000E-04
					 3.91143000E-03	-2.03819000E-02	 4.04728000E-03
					-5.77121000E-05	-1.63023000E-02	-1.09512000E-04
					 3.99124000E-03	-1.63628000E-02	 4.08052000E-03
					-7.33602000E-05	-1.59856000E-02	-1.18928000E-04
					 1.91667000E-03	-2.03404000E-02	 1.91593000E-03
					 3.67651000E-03	-1.60504000E-02	 3.82371000E-03
					-6.97696000E-05	-1.83187000E-02	-1.26760000E-04
					 3.95040000E-03	-1.83797000E-02	 4.09510000E-03
					-5.52916000E-05	-1.22037000E-02	-9.25980000E-05
					 1.96906000E-03	-1.63228000E-02	 1.97804000E-03
					 3.76639000E-03	-1.22655000E-02	 3.85064000E-03
					-4.07595000E-03	-2.03305000E-02	-4.33077000E-03
					-4.11339000E-03	-1.63046000E-02	-4.29624000E-03
					-3.82326000E-03	-1.59988000E-02	-4.06807000E-03
					-2.07756000E-03	-2.03191000E-02	-2.19973000E-03
					-4.09643000E-03	-1.83241000E-02	-4.34670000E-03
					-3.88083000E-03	-1.22130000E-02	-4.04089000E-03
					-2.08689000E-03	-1.62963000E-02	-2.19538000E-03
					-3.58862000E-05	-1.22206000E-02	-7.72636000E-05
					 4.08142000E-03	-1.22794000E-02	 4.10215000E-03
					-4.56875000E-05	-1.42705000E-02	-9.32124000E-05
					 4.03824000E-03	-1.43311000E-02	 4.06513000E-03
					-3.72968000E-05	-8.34461000E-03	-6.05058000E-05
					 2.02281000E-03	-1.22410000E-02	 2.02976000E-03
					 3.86519000E-03	-8.40538000E-03	 3.88031000E-03
					-4.16007000E-03	-1.22126000E-02	-4.25266000E-03
					-4.13647000E-03	-1.42695000E-02	-4.24817000E-03
					-3.94646000E-03	-8.34511000E-03	-4.00488000E-03
					-2.09671000E-03	-1.22091000E-02	-2.18194000E-03
					-6.30321000E-05	-2.93149000E-02	-1.96954000E-04
					 4.17661000E-03	-2.93774000E-02	 4.21900000E-03
					-5.89242000E-05	-2.50539000E-02	-1.44373000E-04
					 4.18934000E-03	-2.51133000E-02	 4.25744000E-03
					-7.84239000E-05	-2.48271000E-02	-1.72289000E-04
					 2.05670000E-03	-2.93471000E-02	 1.99733000E-03
					 4.08802000E-03	-2.48774000E-02	 4.18197000E-03
					-5.92863000E-05	-2.71895000E-02	-1.68314000E-04
					 4.18253000E-03	-2.72510000E-02	 4.24948000E-03
					-6.01751000E-05	-2.06410000E-02	-1.26795000E-04
					 2.06130000E-03	-2.50864000E-02	 2.04763000E-03
					 4.14160000E-03	-2.06922000E-02	 4.21943000E-03
					-4.32464000E-03	-2.92904000E-02	-4.58635000E-03
					-4.31295000E-03	-2.50060000E-02	-4.52171000E-03
					-4.26000000E-03	-2.48188000E-02	-4.50786000E-03
					-2.18878000E-03	-2.93027000E-02	-2.38323000E-03
					-4.31715000E-03	-2.71491000E-02	-4.56072000E-03
					-4.26827000E-03	-2.06174000E-02	-4.45495000E-03
					-2.18144000E-03	-2.50288000E-02	-2.32952000E-03
					-5.56960000E-05	-2.07728000E-02	-1.14905000E-04
					 4.21236000E-03	-2.08172000E-02	 4.25730000E-03
					-5.87874000E-05	-2.29089000E-02	-1.26737000E-04
					 4.20153000E-03	-2.29653000E-02	 4.25715000E-03
					-4.23698000E-05	-1.64192000E-02	-9.67029000E-05
					 2.07242000E-03	-2.07967000E-02	 2.06291000E-03
					 4.19975000E-03	-1.64624000E-02	 4.22790000E-03
					-4.31224000E-03	-2.07208000E-02	-4.46400000E-03
					-4.31463000E-03	-2.28599000E-02	-4.48812000E-03
					-4.28117000E-03	-1.63890000E-02	-4.40362000E-03
					-2.18101000E-03	-2.07457000E-02	-2.28545000E-03
					 0.00000000E+00	 0.00000000E+00	 0.00000000E+00
					 0.00000000E+00	 0.00000000E+00	 0.00000000E+00
					 9.81339000E-05	-6.22477000E-04	-1.79736000E-04
					-1.49374000E-03	-8.17789000E-04	 2.45425000E-03
					 0.00000000E+00	 0.00000000E+00	 0.00000000E+00
					 0.00000000E+00	 0.00000000E+00	 0.00000000E+00
					 7.71141000E-05	-1.97031000E-03	-1.31425000E-04
					-1.06187000E-03	-2.18810000E-03	 2.51915000E-03
					 0.00000000E+00	 0.00000000E+00	 0.00000000E+00
					 4.76539000E-05	 6.15611000E-04	-8.68149000E-05
					-6.97275000E-04	-6.48963000E-04	 1.23553000E-03
					-9.64099000E-04	 3.97075000E-04	 1.07278000E-03
					 0.00000000E+00	 0.00000000E+00	 0.00000000E+00
					 0.00000000E+00	 0.00000000E+00	 0.00000000E+00
					 8.69553000E-05	-1.36535000E-03	-1.53428000E-04
					-1.27604000E-03	-1.57168000E-03	 2.39654000E-03
					 0.00000000E+00	 0.00000000E+00	 0.00000000E+00
					 2.37159000E-05	-1.95917000E-04	-5.57703000E-05
					-4.92447000E-04	-2.00516000E-03	 1.19998000E-03
					-6.07447000E-04	-4.05592000E-04	 1.05447000E-03
					 0.00000000E+00	 0.00000000E+00	 0.00000000E+00
					 1.68128000E-03	-8.46161000E-04	-2.81534000E-03
					 0.00000000E+00	 0.00000000E+00	 0.00000000E+00
					 1.21146000E-03	-2.20659000E-03	-2.78523000E-03
					 0.00000000E+00	 0.00000000E+00	 0.00000000E+00
					 1.05180000E-03	 3.50206000E-04	-1.25466000E-03
					 8.91276000E-04	-6.62110000E-04	-1.59475000E-03
					 0.00000000E+00	 0.00000000E+00	 0.00000000E+00
					 1.44308000E-03	-1.59440000E-03	-2.70561000E-03
					 0.00000000E+00	 0.00000000E+00	 0.00000000E+00
					 6.49090000E-04	-4.37273000E-04	-1.17245000E-03
					 6.44669000E-04	-2.01363000E-03	-1.46361000E-03
					 0.00000000E+00	 0.00000000E+00	 0.00000000E+00
					 0.00000000E+00	 0.00000000E+00	 0.00000000E+00
					 5.90183000E-05	-2.89522000E-03	-7.95201000E-05
					-6.28249000E-04	-3.10323000E-03	 2.55355000E-03
					 0.00000000E+00	 0.00000000E+00	 0.00000000E+00
					 0.00000000E+00	 0.00000000E+00	 0.00000000E+00
					 6.71318000E-05	-2.50177000E-03	-1.07773000E-04
					-8.48433000E-04	-2.70897000E-03	 2.61080000E-03
					 0.00000000E+00	 0.00000000E+00	 0.00000000E+00
					 7.69487000E-06	-6.40539000E-04	-3.13858000E-05
					-2.82708000E-04	-2.92786000E-03	 1.16533000E-03
					-2.10867000E-04	-8.41777000E-04	 1.12980000E-03
					 0.00000000E+00	 0.00000000E+00	 0.00000000E+00
					 7.39995000E-04	-3.10782000E-03	-2.71677000E-03
					 0.00000000E+00	 0.00000000E+00	 0.00000000E+00
					 9.76603000E-04	-2.72597000E-03	-2.82996000E-03
					 0.00000000E+00	 0.00000000E+00	 0.00000000E+00
					 2.18646000E-04	-8.57024000E-04	-1.19781000E-03
					 4.00680000E-04	-2.93048000E-03	-1.32545000E-03
					 2.53347000E-04	-8.78771000E-03	-3.69122000E-04
					-1.73593000E-03	-8.92202000E-03	 4.91006000E-03
					 2.37937000E-04	-1.06291000E-02	-3.07947000E-04
					-1.47565000E-03	-1.07682000E-02	 5.00104000E-03
					 1.69412000E-04	-3.87701000E-03	-2.70520000E-04
					-7.37578000E-04	-8.81962000E-03	 2.20523000E-03
					-1.72277000E-03	-4.03969000E-03	 3.83610000E-03
					 2.45453000E-04	-9.74025000E-03	-3.38721000E-04
					-1.60514000E-03	-9.87876000E-03	 4.95761000E-03
					 1.49767000E-04	-5.54961000E-03	-2.12861000E-04
					-6.13822000E-04	-1.06619000E-02	 2.28184000E-03
					-1.33174000E-03	-5.73305000E-03	 3.91564000E-03
					 2.24224000E-03	-8.90012000E-03	-5.64997000E-03
					 1.94440000E-03	-1.07521000E-02	-5.61902000E-03
					 2.05717000E-03	-4.04615000E-03	-4.38197000E-03
					 1.24344000E-03	-8.81005000E-03	-2.94461000E-03
					 2.09430000E-03	-9.86405000E-03	-5.63443000E-03
					 1.62654000E-03	-5.73584000E-03	-4.34712000E-03
					 1.09205000E-03	-1.06552000E-02	-2.89546000E-03
					 2.15885000E-04	-1.22083000E-02	-2.43741000E-04
					-1.19896000E-03	-1.23249000E-02	 5.03295000E-03
					 2.27284000E-04	-1.14477000E-02	-2.76401000E-04
					-1.33680000E-03	-1.16105000E-02	 5.05370000E-03
					 1.31166000E-04	-6.83757000E-03	-1.51019000E-04
					-5.02091000E-04	-1.22286000E-02	 2.29710000E-03
					-9.58374000E-04	-7.02211000E-03	 3.95400000E-03
					 1.65331000E-03	-1.23251000E-02	-5.52456000E-03
					 1.79972000E-03	-1.15742000E-02	-5.61339000E-03
					 1.22524000E-03	-7.02611000E-03	-4.26104000E-03
					 9.39750000E-04	-1.22296000E-02	-2.78080000E-03
					 4.31992000E-04	-2.09968000E-02	-5.65638000E-04
					-1.80747000E-03	-2.09503000E-02	 5.39811000E-03
					 4.20456000E-04	-2.32473000E-02	-5.08689000E-04
					-1.87809000E-03	-2.32974000E-02	 5.48767000E-03
					 3.46121000E-04	-1.47497000E-02	-4.69035000E-04
					-6.86866000E-04	-2.09839000E-02	 2.38545000E-03
					-1.70609000E-03	-1.48235000E-02	 5.42711000E-03
					 4.28710000E-04	-2.21159000E-02	-5.32490000E-04
					-1.84402000E-03	-2.21269000E-02	 5.39586000E-03
					 3.31261000E-04	-1.67483000E-02	-4.10165000E-04
					-7.52085000E-04	-2.32884000E-02	 2.39673000E-03
					-1.61946000E-03	-1.68255000E-02	 5.52826000E-03
					 2.63261000E-03	-2.09463000E-02	-6.50811000E-03
					 2.71784000E-03	-2.32028000E-02	-6.51824000E-03
					 2.39016000E-03	-1.47886000E-02	-6.36118000E-03
					 1.53752000E-03	-2.09851000E-02	-3.50418000E-03
					 2.67370000E-03	-2.20565000E-02	-6.46775000E-03
					 2.28358000E-03	-1.67770000E-02	-6.34715000E-03
					 1.56898000E-03	-2.32432000E-02	-3.43287000E-03
					 3.97359000E-04	-2.55800000E-02	-4.55044000E-04
					-2.04036000E-03	-2.57421000E-02	 5.50763000E-03
					 4.09540000E-04	-2.44159000E-02	-4.84925000E-04
					-1.96081000E-03	-2.43932000E-02	 5.59310000E-03
					 3.18881000E-04	-1.86479000E-02	-3.51336000E-04
					-7.89972000E-04	-2.56808000E-02	 2.33478000E-03
					-1.54770000E-03	-1.87370000E-02	 5.54822000E-03
					 2.79632000E-03	-2.55663000E-02	-6.45829000E-03
					 2.75707000E-03	-2.43677000E-02	-6.57789000E-03
					 2.14860000E-03	-1.86645000E-02	-6.25349000E-03
					 1.58743000E-03	-2.55988000E-02	-3.28808000E-03
					 6.15783000E-04	-3.13876000E-02	-7.16237000E-04
					-2.39736000E-03	-3.11544000E-02	 3.71018000E-03