<?xml version="1.0"?>
<VTKFile type="UnstructuredGrid" version="0.1" byte_order="LittleEndian">
	<UnstructuredGrid>
		<Piece NumberOfPoints="522" NumberOfCells="64">
			<Points>
				<DataArray type="Float64" NumberOfComponents="3" format="ascii">
					 1.00000000E+00	 1.00000000E+00	-5.96046000E-08
					 1.00000000E+00	 5.00000000E-01	-5.96046000E-08
					 1.00000000E+00	 5.00000000E-01	 1.00000000E+00
					 1.00000000E+00	 1.00000000E+00	 1.00000000E+00
					 5.00000000E-01	 1.00000000E+00	-5.96046000E-08
					 5.00000000E-01	 5.00000000E-01	-5.96046000E-08
					 5.00000000E-01	 5.00000000E-01	 1.00000000E+00
					 5.00000000E-01	 1.00000000E+00	 1.00000000E+00
					 1.00000000E+00	 7.50000000E-01	-5.96046000E-08
					 1.00000000E+00	 5.00000000E-01	 5.00000000E-01
					 1.00000000E+00	 7.50000000E-01	 1.00000000E+00
					 1.00000000E+00	 1.00000000E+00	 5.00000000E-01
					 7.50000000E-01	 1.00000000E+00	-5.96046000E-08
					 7.50000000E-01	 5.00000000E-01	-5.96046000E-08
					 7.50000000E-01	 5.00000000E-01	 1.00000000E+00
					 7.50000000E-01	 1.00000000E+00	 1.00000000E+00
					 5.00000000E-01	 7.50000000E-01	-5.96046000E-08
					 5.00000000E-01	 5.00000000E-01	 5.00000000E-01
					 5.00000000E-01	 7.50000000E-01	 1.00000000E+00
					 5.00000000E-01	 1.00000000E+00	 5.00000000E-01
					 1.00000000E+00	-1.49012000E-08	-5.96046000E-08
					 1.00000000E+00	-1.49012000E-08	 1.00000000E+00
					 5.00000000E-01	-1.49012000E-08	-5.96046000E-08
					 5.00000000E-01	-1.49012000E-08	 1.00000000E+00
					 1.00000000E+00	 2.50000000E-01	-5.96046000E-08
					 1.00000000E+00	-1.49012000E-08	 5.00000000E-01
					 1.00000000E+00	 2.50000000E-01	 1.00000000E+00
					 7.50000000E-01	-1.49012000E-08	-5.96046000E-08
					 7.50000000E-01	-1.49012000E-08	 1.00000000E+00
					 5.00000000E-01	 2.50000000E-01	-5.96046000E-08
					 5.00000000E-01	-1.49012000E-08	 5.00000000E-01
					 5.00000000E-01	 2.50000000E-01	 1.00000000E+00
					-7.45058000E-09	 1.00000000E+00	-5.96046000E-08
					-7.45058000E-09	 5.00000000E-01	-5.96046000E-08
					-7.45058000E-09	 5.00000000E-01	 1.00000000E+00
					-7.45058000E-09	 1.00000000E+00	 1.00000000E+00
					 2.50000000E-01	 1.00000000E+00	-5.96046000E-08
					 2.50000000E-01	 5.00000000E-01	-5.96046000E-08
					 2.50000000E-01	 5.00000000E-01	 1.00000000E+00
					 2.50000000E-01	 1.00000000E+00	 1.00000000E+00
					-7.45058000E-09	 7.50000000E-01	-5.96046000E-08
					-7.45058000E-09	 5.00000000E-01	 5.00000000E-01
					-7.45058000E-09	 7.50000000E-01	 1.00000000E+00
					-7.45058000E-09	 1.00000000E+00	 5.00000000E-01
					-7.45058000E-09	-1.49012000E-08	-5.96046000E-08
					-7.45058000E-09	-1.49012000E-08	 1.00000000E+00
					 2.50000000E-01	-1.49012000E-08	-5.96046000E-08
					 2.50000000E-01	-1.49012000E-08	 1.00000000E+00
					-7.45058000E-09	 2.50000000E-01	-5.96046000E-08
					-7.45058000E-09	-1.49012000E-08	 5.00000000E-01
					-7.45058000E-09	 2.50000000E-01	 1.00000000E+00
					 1.00000000E+00	 5.00000000E-01	 2.00000000E+00
					 1.00000000E+00	 1.00000000E+00	 2.00000000E+00
					 5.00000000E-01	 5.00000000E-01	 2.00000000E+00
					 5.00000000E-01	 1.00000000E+00	 2.00000000E+00
					 1.00000000E+00	 5.00000000E-01	 1.50000000E+00
					 1.00000000E+00	 7.50000000E-01	 2.00000000E+00
					 1.00000000E+00	 1.00000000E+00	 1.50000000E+00
					 7.50000000E-01	 5.00000000E-01	 2.00000000E+00
					 7.50000000E-01	 1.00000000E+00	 2.00000000E+00
					 5.00000000E-01	 5.00000000E-01	 1.50000000E+00
					 5.00000000E-01	 7.50000000E-01	 2.00000000E+00
					 5.00000000E-01	 1.00000000E+00	 1.50000000E+00
					 1.00000000E+00	-1.49012000E-08	 2.00000000E+00
					 5.00000000E-01	-1.49012000E-08	 2.00000000E+00
					 1.00000000E+00	-1.49012000E-08	 1.50000000E+00
					 1.00000000E+00	 2.50000000E-01	 2.00000000E+00
					 7.50000000E-01	-1.49012000E-08	 2.00000000E+00
					 5.00000000E-01	-1.49012000E-08	 1.50000000E+00
					 5.00000000E-01	 2.50000000E-01	 2.00000000E+00
					-7.45058000E-09	 5.00000000E-01	 2.00000000E+00
					-7.45058000E-09	 1.00000000E+00	 2.00000000E+00
					 2.50000000E-01	 5.00000000E-01	 2.00000000E+00
					 2.50000000E-01	 1.00000000E+00	 2.00000000E+00
					-7.45058000E-09	 5.00000000E-01	 1.50000000E+00
					-7.45058000E-09	 7.50000000E-01	 2.00000000E+00
					-7.45058000E-09	 1.00000000E+00	 1.50000000E+00
					-7.45058000E-09	-1.49012000E-08	 2.00000000E+00
					 2.50000000E-01	-1.49012000E-08	 2.00000000E+00
					-7.45058000E-09	-1.49012000E-08	 1.50000000E+00
					-7.45058000E-09	 2.50000000E-01	 2.00000000E+00
					 1.00000000E+00	 5.00000000E-01	 3.00000000E+00
					 1.00000000E+00	 1.00000000E+00	 3.00000000E+00
					 5.00000000E-01	 5.00000000E-01	 3.00000000E+00
					 5.00000000E-01	 1.00000000E+00	 3.00000000E+00
					 1.00000000E+00	 5.00000000E-01	 2.50000000E+00
					 1.00000000E+00	 7.50000000E-01	 3.00000000E+00
					 1.00000000E+00	 1.00000000E+00	 2.50000000E+00
					 7.50000000E-01	 5.00000000E-01	 3.00000000E+00
					 7.50000000E-01	 1.00000000E+00	 3.00000000E+00
					 5.00000000E-01	 5.00000000E-01	 2.50000000E+00
					 5.00000000E-01	 7.50000000E-01	 3.00000000E+00
					 5.00000000E-01	 1.00000000E+00	 2.50000000E+00
					 1.00000000E+00	-1.49012000E-08	 3.00000000E+00
					 5.00000000E-01	-1.49012000E-08	 3.00000000E+00
					 1.00000000E+00	-1.49012000E-08	 2.50000000E+00
					 1.00000000E+00	 2.50000000E-01	 3.00000000E+00
					 7.50000000E-01	-1.49012000E-08	 3.00000000E+00
					 5.00000000E-01	-1.49012000E-08	 2.50000000E+00
					 5.00000000E-01	 2.50000000E-01	 3.00000000E+00
					-7.45058000E-09	 5.00000000E-01	 3.00000000E+00
					-7.45058000E-09	 1.00000000E+00	 3.00000000E+00
					 2.50000000E-01	 5.00000000E-01	 3.00000000E+00
					 2.50000000E-01	 1.00000000E+00	 3.00000000E+00
					-7.45058000E-09	 5.00000000E-01	 2.50000000E+00
					-7.45058000E-09	 7.50000000E-01	 3.00000000E+00
					-7.45058000E-09	 1.00000000E+00	 2.50000000E+00
					-7.45058000E-09	-1.49012000E-08	 3.00000000E+00
					 2.50000000E-01	-1.49012000E-08	 3.00000000E+00
					-7.45058000E-09	-1.49012000E-08	 2.50000000E+00
					-7.45058000E-09	 2.50000000E-01	 3.00000000E+00
					 1.00000000E+00	 5.00000000E-01	 4.00000000E+00
					 1.00000000E+00	 1.00000000E+00	 4.00000000E+00
					 5.00000000E-01	 5.00000000E-01	 4.00000000E+00
					 5.00000000E-01	 1.00000000E+00	 4.00000000E+00
					 1.00000000E+00	 5.00000000E-01	 3.50000000E+00
					 1.00000000E+00	 7.50000000E-01	 4.00000000E+00
					 1.00000000E+00	 1.00000000E+00	 3.50000000E+00
					 7.50000000E-01	 5.00000000E-01	 4.00000000E+00
					 7.50000000E-01	 1.00000000E+00	 4.00000000E+00
					 5.00000000E-01	 5.00000000E-01	 3.50000000E+00
					 5.00000000E-01	 7.50000000E-01	 4.00000000E+00
					 5.00000000E-01	 1.00000000E+00	 3.50000000E+00
					 1.00000000E+00	-1.49012000E-08	 4.00000000E+00
					 5.00000000E-01	-1.49012000E-08	 4.00000000E+00
					 1.00000000E+00	-1.49012000E-08	 3.50000000E+00
					 1.00000000E+00	 2.50000000E-01	 4.00000000E+00
					 7.50000000E-01	-1.49012000E-08	 4.00000000E+00
					 5.00000000E-01	-1.49012000E-08	 3.50000000E+00
					 5.00000000E-01	 2.50000000E-01	 4.00000000E+00
					-7.45058000E-09	 5.00000000E-01	 4.00000000E+00
					-7.45058000E-09	 1.00000000E+00	 4.00000000E+00
					 2.50000000E-01	 5.00000000E-01	 4.00000000E+00
					 2.50000000E-01	 1.00000000E+00	 4.00000000E+00
					-7.45058000E-09	 5.00000000E-01	 3.50000000E+00
					-7.45058000E-09	 7.50000000E-01	 4.00000000E+00
					-7.45058000E-09	 1.00000000E+00	 3.50000000E+00
					-7.45058000E-09	-1.49012000E-08	 4.00000000E+00
					 2.50000000E-01	-1.49012000E-08	 4.00000000E+00
					-7.45058000E-09	-1.49012000E-08	 3.50000000E+00
					-7.45058000E-09	 2.50000000E-01	 4.00000000E+00
					 1.00000000E+00	 5.00000000E-01	 5.00000000E+00
					 1.00000000E+00	 1.00000000E+00	 5.00000000E+00
					 5.00000000E-01	 5.00000000E-01	 5.00000000E+00
					 5.00000000E-01	 1.00000000E+00	 5.00000000E+00
					 1.00000000E+00	 5.00000000E-01	 4.50000000E+00
					 1.00000000E+00	 7.50000000E-01	 5.00000000E+00
					 1.00000000E+00	 1.00000000E+00	 4.50000000E+00
					 7.50000000E-01	 5.00000000E-01	 5.00000000E+00
					 7.50000000E-01	 1.00000000E+00	 5.00000000E+00
					 5.00000000E-01	 5.00000000E-01	 4.50000000E+00
					 5.00000000E-01	 7.50000000E-01	 5.00000000E+00
					 5.00000000E-01	 1.00000000E+00	 4.50000000E+00
					 1.00000000E+00	-1.49012000E-08	 5.00000000E+00
					 5.00000000E-01	-1.49012000E-08	 5.00000000E+00
					 1.00000000E+00	-1.49012000E-08	 4.50000000E+00
					 1.00000000E+00	 2.50000000E-01	 5.00000000E+00
					 7.50000000E-01	-1.49012000E-08	 5.00000000E+00
					 5.00000000E-01	-1.49012000E-08	 4.50000000E+00
					 5.00000000E-01	 2.50000000E-01	 5.00000000E+00
					-7.45058000E-09	 5.00000000E-01	 5.00000000E+00
					-7.45058000E-09	 1.00000000E+00	 5.00000000E+00
					 2.50000000E-01	 5.00000000E-01	 5.00000000E+00
					 2.50000000E-01	 1.00000000E+00	 5.00000000E+00
					-7.45058000E-09	 5.00000000E-01	 4.50000000E+00
					-7.45058000E-09	 7.50000000E-01	 5.00000000E+00
					-7.45058000E-09	 1.00000000E+00	 4.50000000E+00
					-7.45058000E-09	-1.49012000E-08	 5.00000000E+00
					 2.50000000E-01	-1.49012000E-08	 5.00000000E+00
					-7.45058000E-09	-1.49012000E-08	 4.50000000E+00
					-7.45058000E-09	 2.50000000E-01	 5.00000000E+00
					 1.00000000E+00	 5.00000000E-01	 6.00000000E+00
					 1.00000000E+00	 1.00000000E+00	 6.00000000E+00
					 5.00000000E-01	 5.00000000E-01	 6.00000000E+00
					 5.00000000E-01	 1.00000000E+00	 6.00000000E+00
					 1.00000000E+00	 5.00000000E-01	 5.50000000E+00
					 1.00000000E+00	 7.50000000E-01	 6.00000000E+00
					 1.00000000E+00	 1.00000000E+00	 5.50000000E+00
					 7.50000000E-01	 5.00000000E-01	 6.00000000E+00
					 7.50000000E-01	 1.00000000E+00	 6.00000000E+00
					 5.00000000E-01	 5.00000000E-01	 5.50000000E+00
					 5.00000000E-01	 7.50000000E-01	 6.00000000E+00
					 5.00000000E-01	 1.00000000E+00	 5.50000000E+00
					 1.00000000E+00	-1.49012000E-08	 6.00000000E+00
[...]
			<PointData>
				<DataArray type="Float32" Name="U" NumberOfComponents="3" ComponentName0="D1" ComponentName1="D2" ComponentName2="D3" format="ascii">
					 0.00000000E+00	 0.00000000E+00	 0.00000000E+00
					 0.00000000E+00	 0.00000000E+00	 0.00000000E+00
					-1.94837000E-05	-1.90628000E-03	 3.08403000E-06
					-2.04297000E-04	-1.96940000E-03	 1.62045000E-03
					 0.00000000E+00	 0.00000000E+00	 0.00000000E+00
					 0.00000000E+00	 0.00000000E+00	 0.00000000E+00
					-1.25428000E-05	-1.99149000E-03	-1.12485000E-05
					-2.40781000E-05	-2.11037000E-03	 1.63829000E-03
					 0.00000000E+00	 0.00000000E+00	 0.00000000E+00
					 2.23846000E-06	-4.61711000E-04	 2.09704000E-06
					-8.14733000E-05	-1.91474000E-03	 7.66876000E-04
					-2.82792000E-04	-5.88359000E-04	 8.54941000E-04
					 0.00000000E+00	 0.00000000E+00	 0.00000000E+00
					 0.00000000E+00	 0.00000000E+00	 0.00000000E+00
					-2.26760000E-05	-1.97599000E-03	-6.99445000E-06
					-1.07172000E-04	-2.07257000E-03	 1.64976000E-03
					 0.00000000E+00	 0.00000000E+00	 0.00000000E+00
					 4.50549000E-07	-5.51606000E-04	-1.03842000E-05
					-9.08136000E-06	-2.00334000E-03	 7.84287000E-04
					-2.30042000E-05	-7.04885000E-04	 8.26613000E-04
					 0.00000000E+00	 0.00000000E+00	 0.00000000E+00
					 1.75511000E-04	-1.94946000E-03	-1.63038000E-03
					 0.00000000E+00	 0.00000000E+00	 0.00000000E+00
					 8.98574000E-06	-2.08065000E-03	-1.63921000E-03
					 0.00000000E+00	 0.00000000E+00	 0.00000000E+00
					 2.61423000E-04	-5.34545000E-04	-8.68580000E-04
					 7.99786000E-05	-1.91336000E-03	-7.48023000E-04
					 0.00000000E+00	 0.00000000E+00	 0.00000000E+00
					 9.39662000E-05	-2.03819000E-03	-1.64678000E-03
					 0.00000000E+00	 0.00000000E+00	 0.00000000E+00
					 9.49023000E-06	-7.02102000E-04	-8.40397000E-04
					-1.29862000E-05	-1.99923000E-03	-7.90417000E-04
					 0.00000000E+00	 0.00000000E+00	 0.00000000E+00
					 0.00000000E+00	 0.00000000E+00	 0.00000000E+00
					-7.55887000E-06	-1.91427000E-03	-3.27943000E-06
					 2.05758000E-04	-1.97451000E-03	 1.60854000E-03
					 0.00000000E+00	 0.00000000E+00	 0.00000000E+00
					 0.00000000E+00	 0.00000000E+00	 0.00000000E+00
					 8.52160000E-07	-1.99074000E-03	-1.17756000E-05
					 7.30341000E-05	-2.08667000E-03	 1.61891000E-03
					 0.00000000E+00	 0.00000000E+00	 0.00000000E+00
					 3.60909000E-06	-4.74061000E-04	 1.11320000E-05
					 8.94050000E-05	-1.92255000E-03	 7.86165000E-04
					 2.01203000E-04	-6.32854000E-04	 8.59112000E-04
					 0.00000000E+00	 0.00000000E+00	 0.00000000E+00
					-1.91376000E-04	-1.97025000E-03	-1.61555000E-03
					 0.00000000E+00	 0.00000000E+00	 0.00000000E+00
					-9.09587000E-05	-2.05769000E-03	-1.65048000E-03
					 0.00000000E+00	 0.00000000E+00	 0.00000000E+00
					-2.35584000E-04	-6.53150000E-04	-8.28683000E-04
					-8.56882000E-05	-1.90501000E-03	-7.92210000E-04
					 1.58232000E-05	-6.52383000E-03	 5.99864000E-05
					-5.08340000E-05	-6.54887000E-03	 2.53422000E-03
					-7.13010000E-07	-6.50756000E-03	 2.82862000E-05
					 1.92598000E-05	-6.58640000E-03	 2.51559000E-03
					 1.77246000E-05	-3.96764000E-03	 2.84873000E-06
					-3.04018000E-05	-6.52162000E-03	 1.27572000E-03
					-1.29623000E-04	-4.06548000E-03	 2.14884000E-03
					 1.67757000E-05	-6.51586000E-03	 5.19937000E-05
					-1.95249000E-05	-6.56481000E-03	 2.53911000E-03
					 1.78824000E-05	-4.04406000E-03	 1.13603000E-05
					 9.92564000E-06	-6.54654000E-03	 1.23205000E-03
					 9.76106000E-06	-4.13875000E-03	 2.15036000E-03
					 7.58607000E-05	-6.57512000E-03	-2.44274000E-03
					-1.91571000E-05	-6.56772000E-03	-2.51670000E-03
					 1.59142000E-04	-4.05162000E-03	-2.11482000E-03
					 3.53749000E-05	-6.52424000E-03	-1.19005000E-03
					 2.67072000E-05	-6.55899000E-03	-2.47118000E-03
					 2.72659000E-05	-4.08941000E-03	-2.13278000E-03
					 1.56470000E-05	-6.55497000E-03	-1.23931000E-03
					-3.05663000E-07	-6.48599000E-03	-6.86197000E-05
					 8.89935000E-05	-6.52021000E-03	 2.43921000E-03
					 1.74918000E-06	-6.50510000E-03	-2.15882000E-05
					 5.21751000E-05	-6.54718000E-03	 2.47398000E-03
					-6.50252000E-06	-3.98794000E-03	-1.64988000E-05
					 7.78173000E-05	-6.48994000E-03	 1.17447000E-03
					 1.29375000E-04	-4.07157000E-03	 2.10879000E-03
					-7.71868000E-05	-6.52850000E-03	-2.56073000E-03
					-7.08041000E-05	-6.55326000E-03	-2.53559000E-03
					-8.03569000E-05	-4.05503000E-03	-2.16210000E-03
					-3.14783000E-05	-6.48115000E-03	-1.27747000E-03
					 3.90767000E-05	-1.20986000E-02	-5.68737000E-05
					 8.81495000E-05	-1.20698000E-02	 2.62919000E-03
					 3.32580000E-05	-1.20620000E-02	-5.93465000E-05
					 2.77348000E-05	-1.20543000E-02	 2.55095000E-03
					 1.22312000E-05	-9.28240000E-03	 7.14756000E-06
					 6.41763000E-05	-1.21082000E-02	 1.23584000E-03
					 4.65980000E-05	-9.31299000E-03	 2.65106000E-03
					 1.33585000E-05	-1.20667000E-02	-4.35041000E-05
					 7.18286000E-05	-1.20618000E-02	 2.59504000E-03
					 3.71138000E-06	-9.27327000E-03	-2.17687000E-05
					 3.86071000E-05	-1.20504000E-02	 1.23725000E-03
					 3.96859000E-05	-9.23778000E-03	 2.62098000E-03
					-3.09598000E-05	-1.20462000E-02	-2.62823000E-03
					 2.86296000E-05	-1.20514000E-02	-2.69152000E-03
					 1.37059000E-05	-9.31300000E-03	-2.62908000E-03
					 1.44898000E-05	-1.20710000E-02	-1.34448000E-03
					 8.56424000E-06	-1.20428000E-02	-2.64187000E-03
					-1.79539000E-05	-9.27845000E-03	-2.66817000E-03
					 2.33453000E-05	-1.20533000E-02	-1.34001000E-03
					 2.59848000E-05	-1.20288000E-02	-7.28459000E-05
					 2.82295000E-05	-1.20528000E-02	 2.57679000E-03
					 2.65172000E-05	-1.20483000E-02	-8.30224000E-05
					 3.25611000E-05	-1.20663000E-02	 2.60971000E-03
					 2.05654000E-05	-9.23309000E-03	-4.86450000E-05
					 1.81341000E-05	-1.20482000E-02	 1.21121000E-03
					 4.99446000E-05	-9.25103000E-03	 2.55902000E-03
					 1.62541000E-05	-1.20618000E-02	-2.66462000E-03
					 1.95373000E-05	-1.20396000E-02	-2.70470000E-03
					-5.63954000E-05	-9.23753000E-03	-2.64483000E-03
					 1.70484000E-05	-1.20556000E-02	-1.31468000E-03
					 2.55824000E-05	-1.71828000E-02	-4.51609000E-05
					 1.91951000E-04	-1.72029000E-02	 2.11860000E-03
					 3.03842000E-05	-1.70804000E-02	-1.16006000E-05
					 1.14122000E-04	-1.70467000E-02	 2.18865000E-03
					-3.69858000E-06	-1.47410000E-02	-4.16293000E-05
					 9.73634000E-05	-1.71824000E-02	 1.05929000E-03
					 8.63450000E-05	-1.47316000E-02	 2.38859000E-03
					 3.49197000E-05	-1.71184000E-02	-3.55625000E-05
					 1.44183000E-04	-1.70861000E-02	 2.15493000E-03
					 2.72904000E-05	-1.47174000E-02	-2.86466000E-05
					 6.39038000E-05	-1.70882000E-02	 1.10355000E-03
					 3.01145000E-05	-1.46769000E-02	 2.42219000E-03
					-1.41397000E-04	-1.71156000E-02	-2.25511000E-03
					-2.23774000E-05	-1.70466000E-02	-2.18927000E-03
					-1.12212000E-04	-1.47157000E-02	-2.49686000E-03
					-5.60534000E-05	-1.71722000E-02	-1.13010000E-03
					-8.46064000E-05	-1.70895000E-02	-2.24353000E-03
					-2.48890000E-05	-1.46627000E-02	-2.51332000E-03
					-1.04778000E-05	-1.70543000E-02	-1.10850000E-03
					 4.60056000E-05	-1.70512000E-02	 6.68673000E-05
					-2.55161000E-05	-1.70758000E-02	 2.22712000E-03
					 3.65306000E-05	-1.70484000E-02	 2.52335000E-05
					 5.05253000E-05	-1.70172000E-02	 2.17099000E-03
					 1.59343000E-05	-1.46973000E-02	-5.89274000E-06
					 3.34533000E-05	-1.70572000E-02	 1.15696000E-03
					-2.61107000E-05	-1.47180000E-02	 2.46522000E-03
					 8.57059000E-05	-1.70216000E-02	-2.15850000E-03
					 4.93501000E-05	-1.69881000E-02	-2.14445000E-03
					 6.97078000E-05	-1.46867000E-02	-2.44503000E-03
					 3.30520000E-05	-1.70582000E-02	-1.10807000E-03
					-7.12248000E-06	-2.10177000E-02	-1.56356000E-05
					 2.63396000E-04	-2.10667000E-02	 2.04177000E-03
					-2.62517000E-07	-2.07250000E-02	 3.91717000E-05
					 3.52365000E-04	-2.07903000E-02	 2.05654000E-03
					 4.87132000E-05	-1.92078000E-02	-2.92724000E-05
					 1.44639000E-04	-2.10572000E-02	 1.06325000E-03
					 2.59747000E-04	-1.91924000E-02	 1.98448000E-03
					-2.00241000E-06	-2.08924000E-02	 2.65303000E-05
					 3.21116000E-04	-2.09327000E-02	 2.05675000E-03
					 2.56817000E-05	-1.89337000E-02	-4.15860000E-06
					 1.82180000E-04	-2.07257000E-02	 1.09759000E-03
					 2.58661000E-04	-1.90096000E-02	 1.99113000E-03
					-2.58184000E-04	-2.10647000E-02	-2.05796000E-03
					-3.04540000E-04	-2.07375000E-02	-2.00248000E-03
					-2.24586000E-04	-1.91771000E-02	-2.03173000E-03
					-1.31084000E-04	-2.10041000E-02	-1.04386000E-03
					-2.94057000E-04	-2.09024000E-02	-2.08124000E-03
					-1.61502000E-04	-1.89265000E-02	-1.94827000E-03
					-1.64693000E-04	-2.07339000E-02	-1.04548000E-03
					 3.29057000E-05	-2.03632000E-02	 4.81235000E-05
					 4.77287000E-04	-2.03355000E-02	 2.06686000E-03
					 1.65461000E-05	-2.05477000E-02	 4.38037000E-05
					 4.04379000E-04	-2.05670000E-02	 2.05514000E-03
					 4.85889000E-05	-1.87606000E-02	 3.85620000E-05
					 2.27517000E-04	-2.03574000E-02	 1.14974000E-03
					 1.92949000E-04	-1.87950000E-02	 2.02400000E-03
					-3.52710000E-04	-2.03787000E-02	-2.03601000E-03
					-3.27487000E-04	-2.05716000E-02	-2.02597000E-03
					-1.34352000E-04	-1.87825000E-02	-1.95881000E-03
					-1.83315000E-04	-2.03580000E-02	-1.06548000E-03
					 4.04566000E-05	-2.59368000E-02	-1.63988000E-05
					 5.33246000E-04	-2.60214000E-02	 3.10528000E-03
					 2.13503000E-05	-2.53528000E-02	-5.69003000E-05
					 6.86714000E-04	-2.54835000E-02	 3.07545000E-03
					 8.24443000E-06	-2.31629000E-02	-1.23802000E-05
					 2.74354000E-04	-2.59395000E-02	 1.49227000E-03
					 3.95381000E-04	-2.32301000E-02	 2.46393000E-03
					 2.48832000E-05	-2.56810000E-02	-5.28477000E-05
					 6.10270000E-04	-2.57685000E-02	 3.13461000E-03
					 3.85522000E-05	-2.27388000E-02	-1.21244000E-05
					 3.91410000E-04	-2.54063000E-02	 1.52218000E-03
					 5.34500000E-04	-2.28167000E-02	 2.45757000E-03
					-3.46845000E-04	-2.59620000E-02	-3.14553000E-03
					-5.96807000E-04	-2.54324000E-02	-3.14675000E-03
					-2.71862000E-04	-2.31787000E-02	-2.53496000E-03
					-1.62511000E-04	-2.59316000E-02	-1.55223000E-03
					-4.42991000E-04	-2.57622000E-02	-3.16690000E-03
					-4.68666000E-04	-2.28109000E-02	-2.46405000E-03
					-2.97861000E-04	-2.53810000E-02	-1.59245000E-03
					 1.02349000E-05	-2.46175000E-02	-5.69094000E-05
					 9.37474000E-04	-2.46833000E-02	 3.14518000E-03
					 2.25484000E-05	-2.50269000E-02	-6.22577000E-05
					 7.89416000E-04	-2.51283000E-02	 3.08317000E-03
					 5.97556000E-05	-2.21940000E-02	-5.96592000E-07
					 4.81470000E-04	-2.46229000E-02	 1.55081000E-03
					 7.55057000E-04	-2.22295000E-02	 2.46366000E-03
					-9.53284000E-04	-2.46400000E-02	-3.18637000E-03
					-7.80289000E-04	-2.51475000E-02	-3.12844000E-03
					-6.45318000E-04	-2.22514000E-02	-2.43827000E-03
					-4.23890000E-04	-2.45805000E-02	-1.65102000E-03
					 4.33014000E-05	-3.41998000E-02	-1.20504000E-04
					 9.36386000E-04	-3.42242000E-02	 4.14725000E-03
					 8.61717000E-05	-3.32699000E-02	-8.91682000E-05
					 1.01878000E-03	-3.33592000E-02	 4.17139000E-03
					 4.47489000E-05	-2.97527000E-02	-8.69386000E-05
					 4.32482000E-04	-3.41785000E-02	 1.94642000E-03
					 7.06890000E-04	-2.98894000E-02	 3.77478000E-03
					 9.10658000E-05	-3.37272000E-02	-1.04561000E-04
					 9.27093000E-04	-3.37979000E-02	 4.15155000E-03
					 4.20448000E-05	-2.90512000E-02	-6.14602000E-05
					 4.53304000E-04	-3.33210000E-02	 2.02567000E-03
					 8.71613000E-04	-2.90799000E-02	 3.70231000E-03
					-8.65382000E-04	-3.42363000E-02	-4.37132000E-03
					-8.35758000E-04	-3.33449000E-02	-4.38053000E-03
					-6.47970000E-04	-2.99306000E-02	-3.85837000E-03
					-3.45688000E-04	-3.42201000E-02	-2.16890000E-03
					-8.87819000E-04	-3.37340000E-02	-4.37649000E-03
					-7.71417000E-04	-2.90903000E-02	-3.86007000E-03
					-3.68824000E-04	-3.32873000E-02	-2.20191000E-03
					 3.68097000E-05	-3.23770000E-02	-7.63817000E-05
					 1.13704000E-03	-3.23430000E-02	 4.27113000E-03
					 2.88176000E-05	-3.28126000E-02	-7.73363000E-05
					 1.11066000E-03	-3.29180000E-02	 4.23350000E-03
					 2.88234000E-05	-2.80986000E-02	-5.94925000E-05
					 5.48428000E-04	-3.23447000E-02	 2.13160000E-03
					 1.05880000E-03	-2.81946000E-02	 3.75168000E-03
					-8.75344000E-04	-3.24866000E-02	-4.39803000E-03
					-8.30626000E-04	-3.28607000E-02	-4.44477000E-03
					-9.49447000E-04	-2.82229000E-02	-3.84027000E-03
					-4.34375000E-04	-3.24703000E-02	-2.22239000E-03
					 5.23304000E-04	-4.29079000E-02	-4.61880000E-04
					 1.13634000E-03	-4.27063000E-02	 3.31905000E-03
					 2.45790000E-04	-4.25083000E-02	-7.48867000E-05
					 4.31634000E-04	-4.42589000E-02	 5.01338000E-03
					 5.87749000E-05	-3.87813000E-02	-2.84001000E-04
					 9.99260000E-04	-4.27932000E-02	 1.53707000E-03
					 6.05662000E-04	-3.87528000E-02	 3.97076000E-03
					 4.20437000E-04	-4.26854000E-02	-2.16722000E-04
					 7.88199000E-04	-4.34611000E-02	 4.24835000E-03
					 6.01589000E-05	-3.81246000E-02	-1.86715000E-04
					 5.79266000E-04	-4.33461000E-02	 2.19084000E-03
					 5.31072000E-04	-3.82228000E-02	 4.59651000E-03
					-8.93726000E-04	-4.25676000E-02	-3.82607000E-03
					-6.87956000E-04	-4.20866000E-02	-4.29814000E-03
					-6.47422000E-04	-3.87725000E-02	-4.31962000E-03
					-2.19688000E-04	-4.27982000E-02	-2.21711000E-03
					-7.72710000E-04	-4.23355000E-02	-4.08650000E-03
					-6.01279000E-04	-3.80305000E-02	-4.40944000E-03
					-2.94668000E-04	-4.22392000E-02	-2.24185000E-03
					-2.36639000E-04	-4.28202000E-02	-2.60939000E-04
					-3.09129000E-04	-4.55785000E-02	 5.60356000E-03
					 1.35520000E-05	-4.27567000E-02	-1.71206000E-04
					 6.57409000E-05	-4.49668000E-02	 5.68126000E-03
					-4.08297000E-07	-3.75093000E-02	-2.23709000E-04
					-1.65485000E-04	-4.40545000E-02	 2.11654000E-03
					 6.63581000E-04	-3.76428000E-02	 4.70991000E-03
					-9.18932000E-04	-4.18836000E-02	-4.78150000E-03
					-7.48124000E-04	-4.21186000E-02	-4.59707000E-03
					-6.76983000E-04	-3.74868000E-02	-4.70762000E-03
					-5.50492000E-04	-4.22706000E-02	-2.49988000E-03
					 0.00000000E+00	 0.00000000E+00	 0.00000000E+00
					 0.00000000E+00	 0.00000000E+00	 0.00000000E+00
					-1.19941000E-05	-1.63261000E-02	-3.70396000E-04
					-3.40863000E-03	-1.76371000E-02	 1.63568000E-02
					 0.00000000E+00	 0.00000000E+00	 0.00000000E+00
					 0.00000000E+00	 0.00000000E+00	 0.00000000E+00
					 4.81588000E-06	-1.85659000E-02	-5.10648000E-04
					-1.07364000E-03	-1.99539000E-02	 1.64350000E-02
					 0.00000000E+00	 0.00000000E+00	 0.00000000E+00
					 7.05666000E-05	-3.21557000E-03	-1.35479000E-04
					-1.69085000E-03	-1.65764000E-02	 7.95203000E-03
					-3.01753000E-03	-4.83478000E-03	 8.30261000E-03
					 0.00000000E+00	 0.00000000E+00	 0.00000000E+00
					 0.00000000E+00	 0.00000000E+00	 0.00000000E+00
					-1.25336000E-05	-1.78506000E-02	-4.56545000E-04
					-2.21085000E-03	-1.91877000E-02	 1.62513000E-02
					 0.00000000E+00	 0.00000000E+00	 0.00000000E+00
					-1.68074000E-05	-4.93135000E-03	-2.07125000E-04
					-5.57065000E-04	-1.88635000E-02	 7.79093000E-03
					-5.57040000E-04	-6.43021000E-03	 7.99791000E-03
					 0.00000000E+00	 0.00000000E+00	 0.00000000E+00
					 3.33844000E-03	-1.70332000E-02	-1.71409000E-02
					 0.00000000E+00	 0.00000000E+00	 0.00000000E+00
					 1.07796000E-03	-1.93304000E-02	-1.74368000E-02
					 0.00000000E+00	 0.00000000E+00	 0.00000000E+00
					 3.02870000E-03	-4.56195000E-03	-8.55137000E-03
					 1.70129000E-03	-1.62881000E-02	-8.68216000E-03
					 0.00000000E+00	 0.00000000E+00	 0.00000000E+00
					 2.20103000E-03	-1.85356000E-02	-1.71778000E-02
					 0.00000000E+00	 0.00000000E+00	 0.00000000E+00
					 5.34143000E-04	-6.27644000E-03	-8.39940000E-03
					 5.29796000E-04	-1.85473000E-02	-8.76340000E-03
					 0.00000000E+00	 0.00000000E+00	 0.00000000E+00
					 0.00000000E+00	 0.00000000E+00	 0.00000000E+00
					 2.00950000E-05	-1.86587000E-02	-5.17335000E-04
					 1.10341000E-03	-1.98778000E-02	 1.62001000E-02
					 0.00000000E+00	 0.00000000E+00	 0.00000000E+00
					 0.00000000E+00	 0.00000000E+00	 0.00000000E+00
					 2.24342000E-05	-1.89703000E-02	-5.28101000E-04
					 4.86272000E-06	-2.02825000E-02	 1.63927000E-02
					 0.00000000E+00	 0.00000000E+00	 0.00000000E+00
					-1.02654000E-04	-4.38788000E-03	-1.40283000E-04
					 5.94565000E-04	-1.88663000E-02	 7.52910000E-03
					 1.91136000E-03	-5.77890000E-03	 8.28871000E-03
					 0.00000000E+00	 0.00000000E+00	 0.00000000E+00
					-1.10613000E-03	-1.93522000E-02	-1.72897000E-02
					 0.00000000E+00	 0.00000000E+00	 0.00000000E+00
					-2.43085000E-06	-1.97290000E-02	-1.74931000E-02
					 0.00000000E+00	 0.00000000E+00	 0.00000000E+00
					-2.08361000E-03	-5.64742000E-03	-8.61277000E-03
					-5.44434000E-04	-1.86200000E-02	-8.58575000E-03
					-4.17403000E-05	-6.54699000E-02	-1.70383000E-03
					-3.85259000E-03	-6.70598000E-02	 2.82702000E-02
					-3.91942000E-05	-6.84798000E-02	-1.91212000E-03
					-2.32725000E-03	-7.01410000E-02	 2.80183000E-02
					 1.58834000E-05	-3.75138000E-02	-8.68903000E-04
					-1.95387000E-03	-6.61063000E-02	 1.31222000E-02
					-3.65448000E-03	-3.90982000E-02	 2.31146000E-02
					-3.17482000E-05	-6.71506000E-02	-1.79924000E-03
					-3.09222000E-03	-6.87867000E-02	 2.81025000E-02
					 2.25296000E-06	-4.01868000E-02	-1.03828000E-03
					-1.14812000E-03	-6.90967000E-02	 1.28792000E-02
					-1.68583000E-03	-4.17855000E-02	 2.30101000E-02
					 3.69836000E-03	-6.53960000E-02	-3.16962000E-02
					 2.14900000E-03	-6.83023000E-02	-3.20260000E-02
					 3.63681000E-03	-3.79287000E-02	-2.49335000E-02
					 1.83581000E-03	-6.52632000E-02	-1.65490000E-02
					 2.93644000E-03	-6.70274000E-02	-3.18414000E-02
					 1.68742000E-03	-4.06129000E-02	-2.51948000E-02
					 1.04696000E-03	-6.82329000E-02	-1.67920000E-02
					-8.71585000E-05	-6.97931000E-02	-2.17228000E-03
					-6.75334000E-04	-7.15993000E-02	 2.77254000E-02
					-5.15688000E-05	-6.93358000E-02	-2.04507000E-03
					-1.52340000E-03	-7.10826000E-02	 2.79680000E-02
					-5.44103000E-05	-4.08628000E-02	-1.18482000E-03
					-4.01097000E-04	-7.05402000E-02	 1.25488000E-02
					 2.53719000E-04	-4.24461000E-02	 2.27355000E-02
					 5.51834000E-04	-6.97251000E-02	-3.20556000E-02
					 1.32621000E-03	-6.92001000E-02	-3.21965000E-02
					-3.62129000E-04	-4.12792000E-02	-2.51296000E-02
					 2.73074000E-04	-6.95896000E-02	-1.68010000E-02
					 2.61449000E-05	-1.35865000E-01	-4.47078000E-03
					-3.88671000E-03	-1.37673000E-01	 3.36208000E-02
					 2.25172000E-05	-1.39319000E-01	-4.61471000E-03
					-3.06764000E-03	-1.41271000E-01	 3.33970000E-02
					-3.46373000E-05	-9.85635000E-02	-2.91966000E-03
					-1.94709000E-03	-1.36646000E-01	 1.44496000E-02
					-3.91170000E-03	-1.00401000E-01	 3.16134000E-02
					 5.79885000E-06	-1.37732000E-01	-4.53157000E-03
					-3.47622000E-03	-1.39571000E-01	 3.35214000E-02
					-6.11473000E-05	-1.01896000E-01	-3.13211000E-03
					-1.52829000E-03	-1.40181000E-01	 1.42557000E-02
					-2.73442000E-03	-1.03702000E-01	 3.14286000E-02
					 4.03848000E-03	-1.34946000E-01	-4.24735000E-02
					 3.06666000E-03	-1.38390000E-01	-4.28633000E-02
					 3.95262000E-03	-9.79627000E-02	-3.74861000E-02
					 2.00727000E-03	-1.35295000E-01	-2.33279000E-02
					 3.55605000E-03	-1.36797000E-01	-4.26826000E-02
					 2.67497000E-03	-1.01327000E-01	-3.78219000E-02
					 1.54545000E-03	-1.38756000E-01	-2.35948000E-02
					-6.90412000E-05	-1.41982000E-01	-4.74680000E-03
					-2.36124000E-03	-1.44039000E-01	 3.32503000E-02
					-2.69716000E-05	-1.40724000E-01	-4.69780000E-03
					-2.72453000E-03	-1.42677000E-01	 3.33941000E-02
					-4.24658000E-05	-1.03926000E-01	-3.32778000E-03
					-1.19659000E-03	-1.42890000E-01	 1.40552000E-02
					-1.51948000E-03	-1.05764000E-01	 3.12427000E-02
					 2.33463000E-03	-1.40887000E-01	-4.28762000E-02
					 2.71121000E-03	-1.39687000E-01	-4.28873000E-02
					 1.41764000E-03	-1.03382000E-01	-3.79329000E-02
					 1.08482000E-03	-1.41347000E-01	-2.35926000E-02
					 2.88816000E-04	-2.17581000E-01	-7.91940000E-03
					-3.72220000E-03	-2.19369000E-01	 3.36510000E-02