# vtk DataFile Version 3.0

ASCII
DATASET UNSTRUCTURED_GRID

POINTS 522 double
	 1.00000000E+00	 1.00000000E+00	-5.96046000E-08
	 1.00000000E+00	 5.00000000E-01	-5.96046000E-08
	 1.00000000E+00	 5.00000000E-01	 1.00000000E+00
	 1.00000000E+00	 1.00000000E+00	 1.00000000E+00
	 5.00000000E-01	 1.00000000E+00	-5.96046000E-08
	 5.00000000E-01	 5.00000000E-01	-5.96046000E-08
	 5.00000000E-01	 5.00000000E-01	 1.00000000E+00
	 5.00000000E-01	 1.00000000E+00	 1.00000000E+00
	 1.00000000E+00	 7.50000000E-01	-5.96046000E-08
	 1.00000000E+00	 5.00000000E-01	 5.00000000E-01
	 1.00000000E+00	 7.50000000E-01	 1.00000000E+00
	 1.00000000E+00	 1.00000000E+00	 5.00000000E-01
	 7.50000000E-01	 1.00000000E+00	-5.96046000E-08
	 7.50000000E-01	 5.00000000E-01	-5.96046000E-08
	 7.50000000E-01	 5.00000000E-01	 1.00000000E+00
	 7.50000000E-01	 1.00000000E+00	 1.00000000E+00
	 5.00000000E-01	 7.50000000E-01	-5.96046000E-08
	 5.00000000E-01	 5.00000000E-01	 5.00000000E-01
	 5.00000000E-01	 7.50000000E-01	 1.00000000E+00
	 5.00000000E-01	 1.00000000E+00	 5.00000000E-01
	 1.00000000E+00	-1.49012000E-08	-5.96046000E-08
	 1.00000000E+00	-1.49012000E-08	 1.00000000E+00
	 5.00000000E-01	-1.49012000E-08	-5.96046000E-08
	 5.00000000E-01	-1.49012000E-08	 1.00000000E+00
	 1.00000000E+00	 2.50000000E-01	-5.96046000E-08
	 1.00000000E+00	-1.49012000E-08	 5.00000000E-01
	 1.00000000E+00	 2.50000000E-01	 1.00000000E+00
	 7.50000000E-01	-1.49012000E-08	-5.96046000E-08
	 7.50000000E-01	-1.49012000E-08	 1.00000000E+00
	 5.00000000E-01	 2.50000000E-01	-5.96046000E-08
	 5.00000000E-01	-1.49012000E-08	 5.00000000E-01
	 5.00000000E-01	 2.50000000E-01	 1.00000000E+00
	-7.45058000E-09	 1.00000000E+00	-5.96046000E-08
	-7.45058000E-09	 5.00000000E-01	-5.96046000E-08
	-7.45058000E-09	 5.00000000E-01	 1.00000000E+00
	-7.45058000E-09	 1.00000000E+00	 1.00000000E+00
	 2.50000000E-01	 1.00000000E+00	-5.96046000E-08
	 2.50000000E-01	 5.00000000E-01	-5.96046000E-08
	 2.50000000E-01	 5.00000000E-01	 1.00000000E+00
	 2.50000000E-01	 1.00000000E+00	 1.00000000E+00
	-7.45058000E-09	 7.50000000E-01	-5.96046000E-08
	-7.45058000E-09	 5.00000000E-01	 5.00000000E-01
	-7.45058000E-09	 7.50000000E-01	 1.00000000E+00
	-7.45058000E-09	 1.00000000E+00	 5.00000000E-01
	-7.45058000E-09	-1.49012000E-08	-5.96046000E-08
	-7.45058000E-09	-1.49012000E-08	 1.00000000E+00
	 2.50000000E-01	-1.49012000E-08	-5.96046000E-08
	 2.50000000E-01	-1.49012000E-08	 1.00000000E+00
	-7.45058000E-09	 2.50000000E-01	-5.96046000E-08
	-7.45058000E-09	-1.49012000E-08	 5.00000000E-01
	-7.45058000E-09	 2.50000000E-01	 1.00000000E+00
	 1.00000000E+00	 5.00000000E-01	 2.00000000E+00
	 1.00000000E+00	 1.00000000E+00	 2.00000000E+00
	 5.00000000E-01	 5.00000000E-01	 2.00000000E+00
	 5.00000000E-01	 1.00000000E+00	 2.00000000E+00
	 1.00000000E+00	 5.00000000E-01	 1.50000000E+00
	 1.00000000E+00	 7.50000000E-01	 2.00000000E+00
	 1.00000000E+00	 1.00000000E+00	 1.50000000E+00
	 7.50000000E-01	 5.00000000E-01	 2.00000000E+00
	 7.50000000E-01	 1.00000000E+00	 2.00000000E+00
	 5.00000000E-01	 5.00000000E-01	 1.50000000E+00
	 5.00000000E-01	 7.50000000E-01	 2.00000000E+00
	 5.00000000E-01	 1.00000000E+00	 1.50000000E+00
	 1.00000000E+00	-1.49012000E-08	 2.00000000E+00
	 5.00000000E-01	-1.49012000E-08	 2.00000000E+00
	 1.00000000E+00	-1.49012000E-08	 1.50000000E+00
	 1.00000000E+00	 2.50000000E-01	 2.00000000E+00
	 7.50000000E-01	-1.49012000E-08	 2.00000000E+00
	 5.00000000E-01	-1.49012000E-08	 1.50000000E+00
	 5.00000000E-01	 2.50000000E-01	 2.00000000E+00
	-7.45058000E-09	 5.00000000E-01	 2.00000000E+00
	-7.45058000E-09	 1.00000000E+00	 2.00000000E+00
	 2.50000000E-01	 5.00000000E-01	 2.00000000E+00
	 2.50000000E-01	 1.00000000E+00	 2.00000000E+00
	-7.45058000E-09	 5.00000000E-01	 1.50000000E+00
	-7.45058000E-09	 7.50000000E-01	 2.00000000E+00
	-7.45058000E-09	 1.00000000E+00	 1.50000000E+00
	-7.45058000E-09	-1.49012000E-08	 2.00000000E+00
	 2.50000000E-01	-1.49012000E-08	 2.00000000E+00
	-7.45058000E-09	-1.49012000E-08	 1.50000000E+00
	-7.45058000E-09	 2.50000000E-01	 2.00000000E+00
	 1.00000000E+00	 5.00000000E-01	 3.00000000E+00
	 1.00000000E+00	 1.00000000E+00	 3.00000000E+00
	 5.00000000E-01	 5.00000000E-01	 3.00000000E+00
	 5.00000000E-01	 1.00000000E+00	 3.00000000E+00
	 1.00000000E+00	 5.00000000E-01	 2.50000000E+00
	 1.00000000E+00	 7.50000000E-01	 3.00000000E+00
	 1.00000000E+00	 1.00000000E+00	 2.50000000E+00
	 7.50000000E-01	 5.00000000E-01	 3.00000000E+00
	 7.50000000E-01	 1.00000000E+00	 3.00000000E+00
	 5.00000000E-01	 5.00000000E-01	 2.50000000E+00
	 5.00000000E-01	 7.50000000E-01	 3.00000000E+00
	 5.00000000E-01	 1.00000000E+00	 2.50000000E+00
	 1.00000000E+00	-1.49012000E-08	 3.00000000E+00
	 5.00000000E-01	-1.49012000E-08	 3.00000000E+00
	 1.00000000E+00	-1.49012000E-08	 2.50000000E+00
	 1.00000000E+00	 2.50000000E-01	 3.00000000E+00
	 7.50000000E-01	-1.49012000E-08	 3.00000000E+00
	 5.00000000E-01	-1.49012000E-08	 2.50000000E+00
	 5.00000000E-01	 2.50000000E-01	 3.00000000E+00
	-7.45058000E-09	 5.00000000E-01	 3.00000000E+00
	-7.45058000E-09	 1.00000000E+00	 3.00000000E+00
	 2.50000000E-01	 5.00000000E-01	 3.00000000E+00
	 2.50000000E-01	 1.00000000E+00	 3.00000000E+00
	-7.45058000E-09	 5.00000000E-01	 2.50000000E+00
	-7.45058000E-09	 7.50000000E-01	 3.00000000E+00
	-7.45058000E-09	 1.00000000E+00	 2.50000000E+00
	-7.45058000E-09	-1.49012000E-08	 3.00000000E+00
	 2.50000000E-01	-1.49012000E-08	 3.00000000E+00
	-7.45058000E-09	-1.49012000E-08	 2.50000000E+00
	-7.45058000E-09	 2.50000000E-01	 3.00000000E+00
	 1.00000000E+00	 5.00000000E-01	 4.00000000E+00
	 1.00000000E+00	 1.00000000E+00	 4.00000000E+00
	 5.00000000E-01	 5.00000000E-01	 4.00000000E+00
	 5.00000000E-01	 1.00000000E+00	 4.00000000E+00
	 1.00000000E+00	 5.00000000E-01	 3.50000000E+00
	 1.00000000E+00	 7.50000000E-01	 4.00000000E+00
	 1.00000000E+00	 1.00000000E+00	 3.50000000E+00
	 7.50000000E-01	 5.00000000E-01	 4.00000000E+00
	 7.50000000E-01	 1.00000000E+00	 4.00000000E+00
	 5.00000000E-01	 5.00000000E-01	 3.50000000E+00
	 5.00000000E-01	 7.50000000E-01	 4.00000000E+00
	 5.00000000E-01	 1.00000000E+00	 3.50000000E+00
	 1.00000000E+00	-1.49012000E-08	 4.00000000E+00
	 5.00000000E-01	-1.49012000E-08	 4.00000000E+00
	 1.00000000E+00	-1.49012000E-08	 3.50000000E+00
	 1.00000000E+00	 2.50000000E-01	 4.00000000E+00
	 7.50000000E-01	-1.49012000E-08	 4.00000000E+00
	 5.00000000E-01	-1.49012000E-08	 3.50000000E+00
	 5.00000000E-01	 2.50000000E-01	 4.00000000E+00
	-7.45058000E-09	 5.00000000E-01	 4.00000000E+00
	-7.45058000E-09	 1.00000000E+00	 4.00000000E+00
	 2.50000000E-01	 5.00000000E-01	 4.00000000E+00
	 2.50000000E-01	 1.00000000E+00	 4.00000000E+00
	-7.45058000E-09	 5.00000000E-01	 3.50000000E+00
	-7.45058000E-09	 7.50000000E-01	 4.00000000E+00
	-7.45058000E-09	 1.00000000E+00	 3.50000000E+00
	-7.45058000E-09	-1.49012000E-08	 4.00000000E+00
	 2.50000000E-01	-1.49012000E-08	 4.00000000E+00
	-7.45058000E-09	-1.49012000E-08	 3.50000000E+00
	-7.45058000E-09	 2.50000000E-01	 4.00000000E+00
	 1.00000000E+00	 5.00000000E-01	 5.00000000E+00
	 1.00000000E+00	 1.00000000E+00	 5.00000000E+00
	 5.00000000E-01	 5.00000000E-01	 5.00000000E+00
	 5.00000000E-01	 1.00000000E+00	 5.00000000E+00
	 1.00000000E+00	 5.00000000E-01	 4.50000000E+00
	 1.00000000E+00	 7.50000000E-01	 5.00000000E+00
	 1.00000000E+00	 1.00000000E+00	 4.50000000E+00
	 7.50000000E-01	 5.00000000E-01	 5.00000000E+00
	 7.50000000E-01	 1.00000000E+00	 5.00000000E+00
	 5.00000000E-01	 5.00000000E-01	 4.50000000E+00
	 5.00000000E-01	 7.50000000E-01	 5.00000000E+00
	 5.00000000E-01	 1.00000000E+00	 4.50000000E+00
	 1.00000000E+00	-1.49012000E-08	 5.00000000E+00
	 5.00000000E-01	-1.49012000E-08	 5.00000000E+00
	 1.00000000E+00	-1.49012000E-08	 4.50000000E+00
	 1.00000000E+00	 2.50000000E-01	 5.00000000E+00
	 7.50000000E-01	-1.49012000E-08	 5.00000000E+00
	 5.00000000E-01	-1.49012000E-08	 4.50000000E+00
	 5.00000000E-01	 2.50000000E-01	 5.00000000E+00
	-7.45058000E-09	 5.00000000E-01	 5.00000000E+00
	-7.45058000E-09	 1.00000000E+00	 5.00000000E+00
	 2.50000000E-01	 5.00000000E-01	 5.00000000E+00
	 2.50000000E-01	 1.00000000E+00	 5.00000000E+00
	-7.45058000E-09	 5.00000000E-01	 4.50000000E+00
	-7.45058000E-09	 7.50000000E-01	 5.00000000E+00
	-7.45058000E-09	 1.00000000E+00	 4.50000000E+00
	-7.45058000E-09	-1.49012000E-08	 5.00000000E+00
	 2.50000000E-01	-1.49012000E-08	 5.00000000E+00
	-7.45058000E-09	-1.49012000E-08	 4.50000000E+00
	-7.45058000E-09	 2.50000000E-01	 5.00000000E+00
	 1.00000000E+00	 5.00000000E-01	 6.00000000E+00
	 1.00000000E+00	 1.00000000E+00	 6.00000000E+00
	 5.00000000E-01	 5.00000000E-01	 6.00000000E+00
	 5.00000000E-01	 1.00000000E+00	 6.00000000E+00
	 1.00000000E+00	 5.00000000E-01	 5.50000000E+00
	 1.00000000E+00	 7.50000000E-01	 6.00000000E+00
	 1.00000000E+00	 1.00000000E+00	 5.50000000E+00
	 7.50000000E-01	 5.00000000E-01	 6.00000000E+00
	 7.50000000E-01	 1.00000000E+00	 6.00000000E+00
	 5.00000000E-01	 5.00000000E-01	 5.50000000E+00
	 5.00000000E-01	 7.50000000E-01	 6.00000000E+00
	 5.00000000E-01	 1.00000000E+00	 5.50000000E+00
	 1.00000000E+00	-1.49012000E-08	 6.00000000E+00
	 5.00000000E-01	-1.49012000E-08	 6.00000000E+00
	 1.00000000E+00	-1.49012000E-08	 5.50000000E+00
	 1.00000000E+00	 2.50000000E-01	 6.00000000E+00
	 7.50000000E-01	-1.49012000E-08	 6.00000000E+00
	 5.00000000E-01	-1.49012000E-08	 5.50000000E+00
	 5.00000000E-01	 2.50000000E-01	 6.00000000E+00
	-7.45058000E-09	 5.00000000E-01	 6.00000000E+00
	-7.45058000E-09	 1.00000000E+00	 6.00000000E+00
	 2.50000000E-01	 5.00000000E-01	 6.00000000E+00
	 2.50000000E-01	 1.00000000E+00	 6.00000000E+00
	-7.45058000E-09	 5.00000000E-01	 5.50000000E+00
	-7.45058000E-09	 7.50000000E-01	 6.00000000E+00
	-7.45058000E-09	 1.00000000E+00	 5.50000000E+00
	-7.45058000E-09	-1.49012000E-08	 6.00000000E+00
	 2.50000000E-01	-1.49012000E-08	 6.00000000E+00
	-7.45058000E-09	-1.49012000E-08	 5.50000000E+00
	-7.45058000E-09	 2.50000000E-01	 6.00000000E+00
	 1.00000000E+00	 5.00000000E-01	 7.00000000E+00
[...]
POINT_DATA 522
FIELD U 1
	U 3 522 double
		 0.00000000E+00	 0.00000000E+00	 0.00000000E+00
		 0.00000000E+00	 0.00000000E+00	 0.00000000E+00
		-1.15788000E-05	 1.58650000E-03	 5.27240000E-05
		 1.15316000E-03	 1.78688000E-03	-2.81565000E-03
		 0.00000000E+00	 0.00000000E+00	 0.00000000E+00
		 0.00000000E+00	 0.00000000E+00	 0.00000000E+00
		-3.18036000E-06	 2.51766000E-03	 4.31775000E-05
		 7.02931000E-04	 2.72634000E-03	-2.83970000E-03
		 0.00000000E+00	 0.00000000E+00	 0.00000000E+00
		-8.62711000E-06	-3.23540000E-05	 2.54395000E-05
		 5.73494000E-04	 1.61171000E-03	-1.46875000E-03
		 7.41717000E-04	 2.18545000E-04	-1.30192000E-03
		 0.00000000E+00	 0.00000000E+00	 0.00000000E+00
		 0.00000000E+00	 0.00000000E+00	 0.00000000E+00
		-6.99984000E-06	 2.12531000E-03	 4.81601000E-05
		 9.25574000E-04	 2.32648000E-03	-2.74906000E-03
		 0.00000000E+00	 0.00000000E+00	 0.00000000E+00
		-8.00647000E-07	 5.00353000E-04	 1.99280000E-05
		 3.48426000E-04	 2.54419000E-03	-1.40797000E-03
		 3.34263000E-04	 7.37198000E-04	-1.25629000E-03
		 0.00000000E+00	 0.00000000E+00	 0.00000000E+00
		-1.17706000E-03	 1.82562000E-03	 2.91824000E-03
		 0.00000000E+00	 0.00000000E+00	 0.00000000E+00
		-7.08064000E-04	 2.76345000E-03	 2.92318000E-03
		 0.00000000E+00	 0.00000000E+00	 0.00000000E+00
		-7.59656000E-04	 2.42060000E-04	 1.35557000E-03
		-5.97035000E-04	 1.63224000E-03	 1.57228000E-03
		 0.00000000E+00	 0.00000000E+00	 0.00000000E+00
		-9.39249000E-04	 2.36432000E-03	 2.84319000E-03
		 0.00000000E+00	 0.00000000E+00	 0.00000000E+00
		-3.34846000E-04	 7.58554000E-04	 1.29977000E-03
		-3.54629000E-04	 2.56358000E-03	 1.49289000E-03
		 0.00000000E+00	 0.00000000E+00	 0.00000000E+00
		 0.00000000E+00	 0.00000000E+00	 0.00000000E+00
		 3.17850000E-06	 2.99793000E-03	 3.50295000E-05
		 2.36974000E-04	 3.18777000E-03	-2.83333000E-03
		 0.00000000E+00	 0.00000000E+00	 0.00000000E+00
		 0.00000000E+00	 0.00000000E+00	 0.00000000E+00
		 2.95651000E-07	 2.82896000E-03	 3.81390000E-05
		 4.71837000E-04	 3.03058000E-03	-2.89533000E-03
		 0.00000000E+00	 0.00000000E+00	 0.00000000E+00
		 5.07226000E-06	 6.36868000E-04	 1.82293000E-05
		 1.20907000E-04	 3.01716000E-03	-1.35041000E-03
		-1.04315000E-04	 8.61216000E-04	-1.30908000E-03
		 0.00000000E+00	 0.00000000E+00	 0.00000000E+00
		-2.27275000E-04	 3.22041000E-03	 2.90106000E-03
		 0.00000000E+00	 0.00000000E+00	 0.00000000E+00
		-4.69147000E-04	 3.06638000E-03	 2.96833000E-03
		 0.00000000E+00	 0.00000000E+00	 0.00000000E+00
		 1.17161000E-04	 8.79949000E-04	 1.34899000E-03
		-1.13649000E-04	 3.03372000E-03	 1.41982000E-03
		-2.55651000E-05	 9.85293000E-03	 8.09999000E-05
		 2.00024000E-03	 9.99938000E-03	-5.95899000E-03
		-1.56562000E-05	 1.16517000E-02	 4.52490000E-05
		 1.57859000E-03	 1.18133000E-02	-6.01172000E-03
		-1.46591000E-05	 4.85525000E-03	 7.31271000E-05
		 9.83231000E-04	 9.87271000E-03	-2.96014000E-03
		 1.59084000E-03	 5.04892000E-03	-4.42895000E-03
		-1.97668000E-05	 1.08031000E-02	 6.23235000E-05
		 1.79057000E-03	 1.09615000E-02	-5.92875000E-03
		-6.06490000E-06	 6.21914000E-03	 5.29036000E-05
		 7.81303000E-04	 1.16795000E-02	-2.94546000E-03
		 1.12538000E-03	 6.41969000E-03	-4.45661000E-03
		-2.05048000E-03	 1.01023000E-02	 6.11384000E-03
		-1.60661000E-03	 1.19101000E-02	 6.09530000E-03
		-1.62035000E-03	 5.11639000E-03	 4.57093000E-03
		-1.03463000E-03	 9.92525000E-03	 3.12059000E-03
		-1.82810000E-03	 1.10604000E-02	 6.04654000E-03
		-1.13498000E-03	 6.48215000E-03	 4.55759000E-03
		-8.12032000E-04	 1.17279000E-02	 3.03459000E-03
		-1.01295000E-05	 1.30379000E-02	 1.38642000E-05
		 1.15899000E-03	 1.31987000E-02	-6.02558000E-03
		-1.25183000E-05	 1.23966000E-02	 2.91709000E-05
		 1.36925000E-03	 1.25579000E-02	-6.09941000E-03
		-9.29572000E-07	 7.11595000E-03	 3.56344000E-05
		 5.75841000E-04	 1.30670000E-02	-2.88940000E-03
		 6.54846000E-04	 7.31426000E-03	-4.46683000E-03
		-1.17290000E-03	 1.32855000E-02	 6.04709000E-03
		-1.38953000E-03	 1.26523000E-02	 6.15079000E-03
		-6.51038000E-04	 7.36909000E-03	 4.53312000E-03
		-5.94380000E-04	 1.31081000E-02	 2.91617000E-03
		-6.40039000E-05	 2.43189000E-02	 2.51986000E-05
		 2.48181000E-03	 2.43169000E-02	-8.05636000E-03
		-5.29532000E-05	 2.67756000E-02	-2.94130000E-05
		 2.32039000E-03	 2.67802000E-02	-8.14031000E-03
		-4.45917000E-05	 1.64725000E-02	 6.57985000E-05
		 1.20830000E-03	 2.42976000E-02	-3.98035000E-03
		 2.30751000E-03	 1.65468000E-02	-7.19691000E-03
		-5.83041000E-05	 2.55672000E-02	-3.02289000E-06
		 2.40152000E-03	 2.55705000E-02	-8.07668000E-03
		-3.44475000E-05	 1.86604000E-02	 1.69317000E-05
		 1.13476000E-03	 2.67585000E-02	-4.02352000E-03
		 2.00263000E-03	 1.87449000E-02	-7.27507000E-03
		-2.61185000E-03	 2.44709000E-02	 8.10245000E-03
		-2.42682000E-03	 2.69368000E-02	 8.07735000E-03
		-2.39711000E-03	 1.66789000E-02	 7.32078000E-03
		-1.33686000E-03	 2.43733000E-02	 4.02981000E-03
		-2.51955000E-03	 2.57255000E-02	 8.06617000E-03
		-2.06990000E-03	 1.88750000E-02	 7.30198000E-03
		-1.24085000E-03	 2.68350000E-02	 3.96354000E-03
		-4.21871000E-05	 2.90651000E-02	-8.06704000E-05
		 2.17791000E-03	 2.90818000E-02	-8.16194000E-03
		-4.77250000E-05	 2.79422000E-02	-5.50128000E-05
		 2.24976000E-03	 2.79479000E-02	-8.20817000E-03
		-2.67087000E-05	 2.05442000E-02	-2.74947000E-05
		 1.06487000E-03	 2.90553000E-02	-4.00640000E-03
		 1.70878000E-03	 2.06362000E-02	-7.28908000E-03
		-2.26143000E-03	 2.92370000E-02	 7.99663000E-03
		-2.34495000E-03	 2.81060000E-02	 8.09447000E-03
		-1.75818000E-03	 2.07598000E-02	 7.22829000E-03
		-1.14891000E-03	 2.91292000E-02	 3.84366000E-03
		-8.23387000E-05	 4.15651000E-02	-9.06464000E-05
		 2.37615000E-03	 4.14665000E-02	-8.50407000E-03
		-7.06523000E-05	 4.40315000E-02	-1.38702000E-04
		 2.40417000E-03	 4.39372000E-02	-8.56206000E-03
		-7.60995000E-05	 3.28386000E-02	-3.09801000E-05
		 1.14671000E-03	 4.15212000E-02	-4.25295000E-03
		 2.50845000E-03	 3.27798000E-02	-8.42572000E-03
		-7.66325000E-05	 4.27932000E-02	-1.14431000E-04
		 2.39052000E-03	 4.26978000E-02	-8.56042000E-03
		-6.42355000E-05	 3.53916000E-02	-8.38889000E-05
		 1.16793000E-03	 4.39903000E-02	-4.33338000E-03
		 2.46256000E-03	 3.53403000E-02	-8.50023000E-03
		-2.54223000E-03	 4.16304000E-02	 8.32285000E-03
		-2.54654000E-03	 4.41035000E-02	 8.28443000E-03
		-2.66284000E-03	 3.29434000E-02	 8.36249000E-03
		-1.31175000E-03	 4.16016000E-02	 4.07141000E-03
		-2.54509000E-03	 4.28640000E-02	 8.33162000E-03
		-2.59222000E-03	 3.55074000E-02	 8.33074000E-03
		-1.30951000E-03	 4.40730000E-02	 4.05576000E-03
		-5.83394000E-05	 4.65149000E-02	-1.86869000E-04
		 2.45215000E-03	 4.64338000E-02	-8.60117000E-03
		-6.45771000E-05	 4.52702000E-02	-1.62880000E-04
		 2.42866000E-03	 4.51784000E-02	-8.56098000E-03
		-5.20849000E-05	 3.78922000E-02	-1.35304000E-04
		 1.19345000E-03	 4.64800000E-02	-4.39795000E-03
		 2.44527000E-03	 3.78597000E-02	-8.53071000E-03
		-2.56943000E-03	 4.66015000E-02	 8.22659000E-03
		-2.55865000E-03	 4.53448000E-02	 8.23473000E-03
		-2.54974000E-03	 3.80276000E-02	 8.25768000E-03
		-1.31020000E-03	 4.65640000E-02	 4.02382000E-03
		-8.78269000E-05	 5.88557000E-02	-2.09601000E-04
		 1.79615000E-03	 5.87502000E-02	-8.33805000E-03
		-7.97508000E-05	 6.07666000E-02	-2.43582000E-04
		 1.86082000E-03	 6.06638000E-02	-8.37726000E-03
		-8.59815000E-05	 5.02459000E-02	-1.49429000E-04
		 8.53428000E-04	 5.88106000E-02	-4.20961000E-03
		 2.13243000E-03	 5.01420000E-02	-8.44983000E-03
		-8.39630000E-05	 5.98038000E-02	-2.26364000E-04
		 1.82845000E-03	 5.96997000E-02	-8.41129000E-03
		-7.58117000E-05	 5.24807000E-02	-1.91271000E-04
		 8.90707000E-04	 6.07218000E-02	-4.29979000E-03
		 2.17990000E-03	 5.23810000E-02	-8.49551000E-03
		-1.97258000E-03	 5.88966000E-02	 7.91844000E-03
		-2.02168000E-03	 6.08121000E-02	 7.88976000E-03
		-2.30517000E-03	 5.02989000E-02	 8.15072000E-03
		-1.02938000E-03	 5.88816000E-02	 3.79041000E-03
		-1.99732000E-03	 5.98487000E-02	 7.95809000E-03
		-2.33252000E-03	 5.25396000E-02	 8.11266000E-03
		-1.05062000E-03	 6.07955000E-02	 3.81259000E-03
		-7.07024000E-05	 6.27383000E-02	-2.79363000E-04
		 1.93218000E-03	 6.26364000E-02	-8.40815000E-03
		-7.52421000E-05	 6.17458000E-02	-2.61242000E-04
		 1.89648000E-03	 6.16440000E-02	-8.34274000E-03
		-6.47958000E-05	 5.47580000E-02	-2.34264000E-04
		 9.30835000E-04	 6.26934000E-02	-4.38332000E-03
		 2.24049000E-03	 5.46646000E-02	-8.53539000E-03
		-2.07536000E-03	 6.27875000E-02	 7.84919000E-03
		-2.04870000E-03	 6.17920000E-02	 7.82011000E-03
		-2.37105000E-03	 5.48251000E-02	 8.06635000E-03
		-1.07270000E-03	 6.27703000E-02	 3.82444000E-03
		-8.46565000E-05	 7.55100000E-02	-3.33134000E-04
		 1.02781000E-03	 7.53976000E-02	-7.88762000E-03
		-8.10203000E-05	 7.66859000E-02	-3.47663000E-04
		 1.14916000E-03	 7.65677000E-02	-7.90611000E-03
		-8.74165000E-05	 6.73266000E-02	-2.71465000E-04
		 4.72937000E-04	 7.54705000E-02	-4.04447000E-03
		 1.41316000E-03	 6.72169000E-02	-8.15698000E-03
		-8.31520000E-05	 7.60831000E-02	-3.40069000E-04
		 1.08821000E-03	 7.59658000E-02	-7.95118000E-03
		-8.16626000E-05	 6.88712000E-02	-2.96228000E-04
		 5.34018000E-04	 7.66430000E-02	-4.11492000E-03
		 1.50466000E-03	 6.87599000E-02	-8.18815000E-03
		-1.19909000E-03	 7.55151000E-02	 7.22237000E-03
		-1.31361000E-03	 7.66892000E-02	 7.21210000E-03
		-1.58935000E-03	 6.73496000E-02	 7.61396000E-03
		-6.42703000E-04	 7.55270000E-02	 3.37839000E-03
		-1.25665000E-03	 7.60870000E-02	 7.27229000E-03
		-1.66996000E-03	 6.88955000E-02	 7.59591000E-03
		-6.96723000E-04	 7.67031000E-02	 3.41988000E-03
		-7.57931000E-05	 7.79732000E-02	-3.65026000E-04
		 1.26827000E-03	 7.78530000E-02	-7.91921000E-03
		-7.85596000E-05	 7.73147000E-02	-3.55949000E-04
		 1.20828000E-03	 7.71960000E-02	-7.86412000E-03
		-7.46667000E-05	 7.05016000E-02	-3.23264000E-04
		 5.95977000E-04	 7.79280000E-02	-4.17916000E-03
		 1.59697000E-03	 7.03884000E-02	-8.20865000E-03
		-1.42267000E-03	 7.79791000E-02	 7.19065000E-03
		-1.36812000E-03	 7.73182000E-02	 7.15349000E-03
		-1.74883000E-03	 7.05279000E-02	 7.56262000E-03
		-7.48306000E-04	 7.79921000E-02	 3.44956000E-03
		-6.44093000E-05	 9.03647000E-02	-4.41360000E-04
		 4.66389000E-04	 9.02748000E-02	-7.19552000E-03
		-6.34414000E-05	 9.09530000E-02	-4.37405000E-04
		 5.72379000E-04	 9.08551000E-02	-7.18356000E-03
		-7.73961000E-05	 8.32168000E-02	-3.91191000E-04
		 2.02517000E-04	 9.03332000E-02	-3.80429000E-03
		 6.99310000E-04	 8.31163000E-02	-7.53317000E-03
		-6.39899000E-05	 9.06466000E-02	-4.38597000E-04
		 5.19140000E-04	 9.05503000E-02	-7.21719000E-03
		-7.54547000E-05	 8.40630000E-02	-3.95088000E-04
		 2.54121000E-04	 9.09173000E-02	-3.82599000E-03
		 8.27866000E-04	 8.39536000E-02	-7.53528000E-03
		-5.96204000E-04	 9.03679000E-02	 6.31290000E-03
		-7.01309000E-04	 9.09502000E-02	 6.30908000E-03
		-8.56012000E-04	 8.32199000E-02	 6.75245000E-03
		-3.31616000E-04	 9.03798000E-02	 2.92114000E-03
		-6.48452000E-04	 9.06451000E-02	 6.34041000E-03
		-9.80987000E-04	 8.40610000E-02	 6.74679000E-03
		-3.81653000E-04	 9.09654000E-02	 2.95110000E-03
		-6.14505000E-05	 9.16387000E-02	-4.34840000E-04
		 6.68314000E-04	 9.15347000E-02	-7.18899000E-03
		-6.26574000E-05	 9.12825000E-02	-4.36409000E-04
		 6.19713000E-04	 9.11833000E-02	-7.14780000E-03
		-7.20529000E-05	 8.50261000E-02	-4.01897000E-04
		 3.04356000E-04	 9.15987000E-02	-3.86505000E-03
		 9.49903000E-04	 8.49137000E-02	-7.54377000E-03
		-7.94111000E-04	 9.16341000E-02	 6.31986000E-03
		-7.47802000E-04	 9.12791000E-02	 6.27555000E-03
		-1.09646000E-03	 8.50254000E-02	 6.74155000E-03
		-4.28030000E-04	 9.16502000E-02	 2.99535000E-03
		-3.61184000E-05	 1.03459000E-01	-5.23568000E-04
		 3.41268000E-04	 1.03417000E-01	-6.97246000E-03
		-3.19900000E-05	 1.03839000E-01	-5.15794000E-04
		 3.57295000E-04	 1.03791000E-01	-6.95298000E-03
		-4.92264000E-05	 9.70176000E-02	-4.83028000E-04
		 1.54208000E-04	 1.03438000E-01	-3.75805000E-03
		 3.51984000E-04	 9.69588000E-02	-7.00900000E-03
		-3.43800000E-05	 1.03649000E-01	-5.19945000E-04
		 3.47533000E-04	 1.03603000E-01	-6.96172000E-03
		-4.75796000E-05	 9.74491000E-02	-4.76194000E-04
		 1.62164000E-04	 1.03814000E-01	-3.74460000E-03
		 4.07616000E-04	 9.73840000E-02	-6.99090000E-03
		-4.12284000E-04	 1.03494000E-01	 5.92061000E-03
		-4.24970000E-04	 1.03867000E-01	 5.91647000E-03
		-4.49869000E-04	 9.70442000E-02	 6.03915000E-03
		-2.26431000E-04	 1.03476000E-01	 2.70980000E-03
		-4.17078000E-04	 1.03678000E-01	 5.91697000E-03
		-5.05682000E-04	 9.74693000E-02	 6.03534000E-03
		-2.27587000E-04	 1.03851000E-01	 2.71180000E-03
		-2.84729000E-05	 1.04244000E-01	-5.04308000E-04
		 3.53826000E-04	 1.04179000E-01	-6.95502000E-03
		-2.95506000E-05	 1.04041000E-01	-5.10660000E-04
		 3.57017000E-04	 1.03986000E-01	-6.94517000E-03
		-4.59944000E-05	 9.79313000E-02	-4.67468000E-04
		 1.62898000E-04	 1.04210000E-01	-3.74806000E-03
		 4.51164000E-04	 9.78574000E-02	-6.99387000E-03
		-4.18457000E-04	 1.04263000E-01	 5.94148000E-03
		-4.22727000E-04	 1.04065000E-01	 5.91923000E-03
		-5.48692000E-04	 9.79492000E-02	 6.05643000E-03
		-2.22042000E-04	 1.04253000E-01	 2.73797000E-03
		 0.00000000E+00	 0.00000000E+00	 0.00000000E+00
		 0.00000000E+00	 0.00000000E+00	 0.00000000E+00
		 3.62932000E-05	-1.13114000E-03	-1.74532000E-04
		-1.65779000E-03	-1.37279000E-03	 2.93318000E-03
		 0.00000000E+00	 0.00000000E+00	 0.00000000E+00
		 0.00000000E+00	 0.00000000E+00	 0.00000000E+00
		 1.11867000E-05	-2.56055000E-03	-1.80685000E-04
		-1.16332000E-03	-2.80773000E-03	 2.93903000E-03
		 0.00000000E+00	 0.00000000E+00	 0.00000000E+00
		 3.10595000E-05	 3.21383000E-04	-8.20374000E-05
		-8.14637000E-04	-1.17029000E-03	 1.52468000E-03
		-9.72130000E-04	 4.95548000E-05	 1.32435000E-03
		 0.00000000E+00	 0.00000000E+00	 0.00000000E+00
		 0.00000000E+00	 0.00000000E+00	 0.00000000E+00
		 2.42541000E-05	-1.92790000E-03	-1.75916000E-04
		-1.40677000E-03	-2.16745000E-03	 2.81237000E-03
		 0.00000000E+00	 0.00000000E+00	 0.00000000E+00
		 4.38984000E-06	-4.54169000E-04	-7.76691000E-05
		-5.75803000E-04	-2.59926000E-03	 1.39992000E-03
		-5.55004000E-04	-7.01036000E-04	 1.27184000E-03
		 0.00000000E+00	 0.00000000E+00	 0.00000000E+00
		 1.72694000E-03	-1.39500000E-03	-3.28299000E-03
		 0.00000000E+00	 0.00000000E+00	 0.00000000E+00
		 1.18797000E-03	-2.83257000E-03	-3.30145000E-03
		 0.00000000E+00	 0.00000000E+00	 0.00000000E+00
		 1.03255000E-03	 4.43463000E-06	-1.49747000E-03
		 8.85608000E-04	-1.17996000E-03	-1.87367000E-03
		 0.00000000E+00	 0.00000000E+00	 0.00000000E+00
		 1.45445000E-03	-2.19038000E-03	-3.16424000E-03
		 0.00000000E+00	 0.00000000E+00	 0.00000000E+00
		 5.64897000E-04	-7.46468000E-04	-1.43536000E-03
		 5.97469000E-04	-2.61053000E-03	-1.76127000E-03
		 0.00000000E+00	 0.00000000E+00	 0.00000000E+00
		 0.00000000E+00	 0.00000000E+00	 0.00000000E+00
		-1.66461000E-05	-3.48194000E-03	-1.83161000E-04
		-6.54451000E-04	-3.70568000E-03	 2.92574000E-03
		 0.00000000E+00	 0.00000000E+00	 0.00000000E+00
		 0.00000000E+00	 0.00000000E+00	 0.00000000E+00
		-2.45014000E-06	-3.10101000E-03	-1.83413000E-04
		-9.10578000E-04	-3.33387000E-03	 3.02895000E-03
		 0.00000000E+00	 0.00000000E+00	 0.00000000E+00
		-2.35454000E-05	-7.97869000E-04	-8.18389000E-05
		-3.36128000E-04	-3.51035000E-03	 1.29214000E-03
		-9.38862000E-05	-1.02375000E-03	 1.32564000E-03
		 0.00000000E+00	 0.00000000E+00	 0.00000000E+00
		 6.24312000E-04	-3.73028000E-03	-3.29307000E-03
		 0.00000000E+00	 0.00000000E+00	 0.00000000E+00
		 9.07741000E-04	-3.36325000E-03	-3.39743000E-03
		 0.00000000E+00	 0.00000000E+00	 0.00000000E+00
		 4.73125000E-05	-1.06899000E-03	-1.49747000E-03
		 3.04957000E-04	-3.52306000E-03	-1.65778000E-03
		 4.17094000E-05	-9.78351000E-03	-3.71076000E-04
		-3.07011000E-03	-1.00500000E-02	 6.39072000E-03
		 2.39132000E-05	-1.26341000E-02	-4.22054000E-04
		-2.58615000E-03	-1.29010000E-02	 6.35995000E-03
		 4.38018000E-05	-4.44888000E-03	-2.67648000E-04
		-1.51060000E-03	-9.85513000E-03	 3.06385000E-03
		-2.37109000E-03	-4.71682000E-03	 4.70782000E-03
		 3.38932000E-05	-1.12682000E-02	-3.97619000E-04
		-2.82595000E-03	-1.15363000E-02	 6.28054000E-03
		 2.01159000E-05	-6.58626000E-03	-2.89698000E-04
		-1.27678000E-03	-1.27025000E-02	 2.92869000E-03
		-1.84513000E-03	-6.85269000E-03	 4.69101000E-03
		 3.16078000E-03	-9.97607000E-03	-7.14133000E-03
		 2.63760000E-03	-1.28516000E-02	-7.21242000E-03
		 2.46105000E-03	-4.69904000E-03	-5.24806000E-03
		 1.59476000E-03	-9.81504000E-03	-3.80935000E-03
		 2.90140000E-03	-1.14813000E-02	-7.08097000E-03
		 1.88996000E-03	-6.84705000E-03	-5.27639000E-03
		 1.32991000E-03	-1.26774000E-02	-3.77212000E-03
		-8.46066000E-06	-1.50074000E-02	-4.66380000E-04
		-2.09537000E-03	-1.52383000E-02	 6.29314000E-03
		 8.67163000E-06	-1.38779000E-02	-4.44871000E-04
		-2.33951000E-03	-1.41643000E-02	 6.44533000E-03
		-1.01540000E-05	-8.18669000E-03	-3.07326000E-04
		-1.06465000E-03	-1.50555000E-02	 2.75611000E-03
		-1.31673000E-03	-8.43189000E-03	 4.66706000E-03
		 2.11455000E-03	-1.52263000E-02	-7.23525000E-03
		 2.37749000E-03	-1.41021000E-02	-7.34828000E-03
		 1.31239000E-03	-8.44567000E-03	-5.28729000E-03
		 1.05758000E-03	-1.50520000E-02	-3.68602000E-03
		-7.00952000E-06	-2.57687000E-02	-6.48403000E-04
		-4.17474000E-03	-2.58652000E-02	 8.40476000E-03
		-1.44677000E-05	-2.98130000E-02	-7.55110000E-04
		-3.99479000E-03	-3.00202000E-02	 8.33659000E-03
		 2.58231000E-05	-1.70603000E-02	-4.95516000E-04
		-2.08546000E-03	-2.57958000E-02	 3.85058000E-03
		-3.68047000E-03	-1.72680000E-02	 7.68236000E-03
		-8.02352000E-06	-2.78122000E-02	-6.98342000E-04
		-4.08669000E-03	-2.79795000E-02	 8.30512000E-03
		 1.17338000E-05	-2.05746000E-02	-5.79632000E-04
		-2.03081000E-03	-2.99009000E-02	 3.68297000E-03
		-3.33253000E-03	-2.07970000E-02	 7.63966000E-03
		 4.12862000E-03	-2.57593000E-02	-9.68943000E-03
		 3.97006000E-03	-2.98349000E-02	-9.86923000E-03
		 3.73192000E-03	-1.71536000E-02	-8.68094000E-03
		 2.05989000E-03	-2.57469000E-02	-5.13661000E-03
		 4.04938000E-03	-2.78144000E-02	-9.71859000E-03
		 3.36634000E-03	-2.06852000E-02	-8.80790000E-03
		 1.97928000E-03	-2.98129000E-02	-5.21407000E-03
		-3.79615000E-05	-3.37158000E-02	-8.60974000E-04
		-3.94453000E-03	-3.40436000E-02	 8.18894000E-03
		-2.45930000E-05	-3.17977000E-02	-8.10916000E-04
		-3.97167000E-03	-3.19333000E-02	 8.38540000E-03
		-6.22437000E-06	-2.37518000E-02	-6.57923000E-04
		-1.95848000E-03	-3.38679000E-02	 3.43153000E-03
		-3.03585000E-03	-2.39886000E-02	 7.52250000E-03
		 3.83334000E-03	-3.37854000E-02	-9.96019000E-03
		 3.90360000E-03	-3.18191000E-02	-1.00304000E-02
		 2.99578000E-03	-2.38690000E-02	-8.84974000E-03
		 1.88587000E-03	-3.37493000E-02	-5.19915000E-03
		-6.45593000E-05	-4.43532000E-02	-9.80433000E-04
		-4.54728000E-03	-4.42234000E-02	 7.73042000E-03
		-7.19393000E-05	-4.89766000E-02	-1.09950000E-03
		-4.85371000E-03	-4.93045000E-02	 7.62187000E-03
		-6.83927000E-05	-3.51226000E-02	-8.14900000E-04
		-2.30650000E-03	-4.43127000E-02	 3.34209000E-03
		-4.47607000E-03	-3.51956000E-02	 8.30570000E-03
		-6.63205000E-05	-4.66042000E-02	-1.03929000E-03
		-4.69038000E-03	-4.66511000E-02	 7.69320000E-03
		-7.98139000E-05	-3.95893000E-02	-9.77041000E-04
		-2.34119000E-03	-4.91525000E-02	 3.24285000E-03
		-4.58210000E-03	-3.96115000E-02	 8.25741000E-03
		 4.25549000E-03	-4.41969000E-02	-9.68497000E-03
		 4.41803000E-03	-4.86770000E-02	-9.81246000E-03
		 4.31886000E-03	-3.50249000E-02	-9.93117000E-03
		 2.09377000E-03	-4.43076000E-02	-5.30068000E-03
		 4.34131000E-03	-4.64069000E-02	-9.76537000E-03
		 4.35997000E-03	-3.94663000E-02	-1.01049000E-02
		 2.16135000E-03	-4.88326000E-02	-5.44085000E-03
		-2.24892000E-04	-5.38074000E-02	-1.21977000E-03
		-5.05415000E-03	-5.45060000E-02	 7.49441000E-03
		-1.45937000E-04	-5.13300000E-02	-1.16034000E-03
		-4.95250000E-03	-5.23593000E-02	 7.54817000E-03
		-1.23841000E-04	-4.41133000E-02	-1.16594000E-03
		-2.75332000E-03	-5.41546000E-02	 3.12733000E-03
		-4.56849000E-03	-4.40338000E-02	 8.09112000E-03
		 4.61048000E-03	-5.33720000E-02	-9.92268000E-03