<?xml version="1.0"?>
<VTKFile type="UnstructuredGrid" version="0.1" byte_order="LittleEndian">
	<UnstructuredGrid>
		<Piece NumberOfPoints="522" NumberOfCells="64">
			<Points>
				<DataArray type="Float64" NumberOfComponents="3" format="ascii">
					 1.00000000E+00	 1.00000000E+00	-5.96046000E-08
					 1.00000000E+00	 5.00000000E-01	-5.96046000E-08
					 1.00000000E+00	 5.00000000E-01	 1.00000000E+00
					 1.00000000E+00	 1.00000000E+00	 1.00000000E+00
					 5.00000000E-01	 1.00000000E+00	-5.96046000E-08
					 5.00000000E-01	 5.00000000E-01	-5.96046000E-08
					 5.00000000E-01	 5.00000000E-01	 1.00000000E+00
					 5.00000000E-01	 1.00000000E+00	 1.00000000E+00
					 1.00000000E+00	 7.50000000E-01	-5.96046000E-08
					 1.00000000E+00	 5.00000000E-01	 5.00000000E-01
					 1.00000000E+00	 7.50000000E-01	 1.00000000E+00
					 1.00000000E+00	 1.00000000E+00	 5.00000000E-01
					 7.50000000E-01	 1.00000000E+00	-5.96046000E-08
					 7.50000000E-01	 5.00000000E-01	-5.96046000E-08
					 7.50000000E-01	 5.00000000E-01	 1.00000000E+00
					 7.50000000E-01	 1.00000000E+00	 1.00000000E+00
					 5.00000000E-01	 7.50000000E-01	-5.96046000E-08
					 5.00000000E-01	 5.00000000E-01	 5.00000000E-01
					 5.00000000E-01	 7.50000000E-01	 1.00000000E+00
					 5.00000000E-01	 1.00000000E+00	 5.00000000E-01
					 1.00000000E+00	-1.49012000E-08	-5.96046000E-08
					 1.00000000E+00	-1.49012000E-08	 1.00000000E+00
					 5.00000000E-01	-1.49012000E-08	-5.96046000E-08
					 5.00000000E-01	-1.49012000E-08	 1.00000000E+00
					 1.00000000E+00	 2.50000000E-01	-5.96046000E-08
					 1.00000000E+00	-1.49012000E-08	 5.00000000E-01
					 1.00000000E+00	 2.50000000E-01	 1.00000000E+00
					 7.50000000E-01	-1.49012000E-08	-5.96046000E-08
					 7.50000000E-01	-1.49012000E-08	 1.00000000E+00
					 5.00000000E-01	 2.50000000E-01	-5.96046000E-08
					 5.00000000E-01	-1.49012000E-08	 5.00000000E-01
					 5.00000000E-01	 2.50000000E-01	 1.00000000E+00
					-7.45058000E-09	 1.00000000E+00	-5.96046000E-08
					-7.45058000E-09	 5.00000000E-01	-5.96046000E-08
					-7.45058000E-09	 5.00000000E-01	 1.00000000E+00
					-7.45058000E-09	 1.00000000E+00	 1.00000000E+00
					 2.50000000E-01	 1.00000000E+00	-5.96046000E-08
					 2.50000000E-01	 5.00000000E-01	-5.96046000E-08
					 2.50000000E-01	 5.00000000E-01	 1.00000000E+00
					 2.50000000E-01	 1.00000000E+00	 1.00000000E+00
					-7.45058000E-09	 7.50000000E-01	-5.96046000E-08
					-7.45058000E-09	 5.00000000E-01	 5.00000000E-01
					-7.45058000E-09	 7.50000000E-01	 1.00000000E+00
					-7.45058000E-09	 1.00000000E+00	 5.00000000E-01
					-7.45058000E-09	-1.49012000E-08	-5.96046000E-08
					-7.45058000E-09	-1.49012000E-08	 1.00000000E+00
					 2.50000000E-01	-1.49012000E-08	-5.96046000E-08
					 2.50000000E-01	-1.49012000E-08	 1.00000000E+00
					-7.45058000E-09	 2.50000000E-01	-5.96046000E-08
					-7.45058000E-09	-1.49012000E-08	 5.00000000E-01
					-7.45058000E-09	 2.50000000E-01	 1.00000000E+00
					 1.00000000E+00	 5.00000000E-01	 2.00000000E+00
					 1.00000000E+00	 1.00000000E+00	 2.00000000E+00
					 5.00000000E-01	 5.00000000E-01	 2.00000000E+00
					 5.00000000E-01	 1.00000000E+00	 2.00000000E+00
					 1.00000000E+00	 5.00000000E-01	 1.50000000E+00
					 1.00000000E+00	 7.50000000E-01	 2.00000000E+00
					 1.00000000E+00	 1.00000000E+00	 1.50000000E+00
					 7.50000000E-01	 5.00000000E-01	 2.00000000E+00
					 7.50000000E-01	 1.00000000E+00	 2.00000000E+00
					 5.00000000E-01	 5.00000000E-01	 1.50000000E+00
					 5.00000000E-01	 7.50000000E-01	 2.00000000E+00
					 5.00000000E-01	 1.00000000E+00	 1.50000000E+00
					 1.00000000E+00	-1.49012000E-08	 2.00000000E+00
					 5.00000000E-01	-1.49012000E-08	 2.00000000E+00
					 1.00000000E+00	-1.49012000E-08	 1.50000000E+00
					 1.00000000E+00	 2.50000000E-01	 2.00000000E+00
					 7.50000000E-01	-1.49012000E-08	 2.00000000E+00
					 5.00000000E-01	-1.49012000E-08	 1.50000000E+00
					 5.00000000E-01	 2.50000000E-01	 2.00000000E+00
					-7.45058000E-09	 5.00000000E-01	 2.00000000E+00
					-7.45058000E-09	 1.00000000E+00	 2.00000000E+00
					 2.50000000E-01	 5.00000000E-01	 2.00000000E+00
					 2.50000000E-01	 1.00000000E+00	 2.00000000E+00
					-7.45058000E-09	 5.00000000E-01	 1.50000000E+00
					-7.45058000E-09	 7.50000000E-01	 2.00000000E+00
					-7.45058000E-09	 1.00000000E+00	 1.50000000E+00
					-7.45058000E-09	-1.49012000E-08	 2.00000000E+00
					 2.50000000E-01	-1.49012000E-08	 2.00000000E+00
					-7.45058000E-09	-1.49012000E-08	 1.50000000E+00
					-7.45058000E-09	 2.50000000E-01	 2.00000000E+00
					 1.00000000E+00	 5.00000000E-01	 3.00000000E+00
					 1.00000000E+00	 1.00000000E+00	 3.00000000E+00
					 5.00000000E-01	 5.00000000E-01	 3.00000000E+00
					 5.00000000E-01	 1.00000000E+00	 3.00000000E+00
					 1.00000000E+00	 5.00000000E-01	 2.50000000E+00
					 1.00000000E+00	 7.50000000E-01	 3.00000000E+00
					 1.00000000E+00	 1.00000000E+00	 2.50000000E+00
					 7.50000000E-01	 5.00000000E-01	 3.00000000E+00
					 7.50000000E-01	 1.00000000E+00	 3.00000000E+00
					 5.00000000E-01	 5.00000000E-01	 2.50000000E+00
					 5.00000000E-01	 7.50000000E-01	 3.00000000E+00
					 5.00000000E-01	 1.00000000E+00	 2.50000000E+00
					 1.00000000E+00	-1.49012000E-08	 3.00000000E+00
					 5.00000000E-01	-1.49012000E-08	 3.00000000E+00
					 1.00000000E+00	-1.49012000E-08	 2.50000000E+00
					 1.00000000E+00	 2.50000000E-01	 3.00000000E+00
					 7.50000000E-01	-1.49012000E-08	 3.00000000E+00
					 5.00000000E-01	-1.49012000E-08	 2.50000000E+00
					 5.00000000E-01	 2.50000000E-01	 3.00000000E+00
					-7.45058000E-09	 5.00000000E-01	 3.00000000E+00
					-7.45058000E-09	 1.00000000E+00	 3.00000000E+00
					 2.50000000E-01	 5.00000000E-01	 3.00000000E+00
					 2.50000000E-01	 1.00000000E+00	 3.00000000E+00
					-7.45058000E-09	 5.00000000E-01	 2.50000000E+00
					-7.45058000E-09	 7.50000000E-01	 3.00000000E+00
					-7.45058000E-09	 1.00000000E+00	 2.50000000E+00
					-7.45058000E-09	-1.49012000E-08	 3.00000000E+00
					 2.50000000E-01	-1.49012000E-08	 3.00000000E+00
					-7.45058000E-09	-1.49012000E-08	 2.50000000E+00
					-7.45058000E-09	 2.50000000E-01	 3.00000000E+00
					 1.00000000E+00	 5.00000000E-01	 4.00000000E+00
					 1.00000000E+00	 1.00000000E+00	 4.00000000E+00
					 5.00000000E-01	 5.00000000E-01	 4.00000000E+00
					 5.00000000E-01	 1.00000000E+00	 4.00000000E+00
					 1.00000000E+00	 5.00000000E-01	 3.50000000E+00
					 1.00000000E+00	 7.50000000E-01	 4.00000000E+00
					 1.00000000E+00	 1.00000000E+00	 3.50000000E+00
					 7.50000000E-01	 5.00000000E-01	 4.00000000E+00
					 7.50000000E-01	 1.00000000E+00	 4.00000000E+00
					 5.00000000E-01	 5.00000000E-01	 3.50000000E+00
					 5.00000000E-01	 7.50000000E-01	 4.00000000E+00
					 5.00000000E-01	 1.00000000E+00	 3.50000000E+00
					 1.00000000E+00	-1.49012000E-08	 4.00000000E+00
					 5.00000000E-01	-1.49012000E-08	 4.00000000E+00
					 1.00000000E+00	-1.49012000E-08	 3.50000000E+00
					 1.00000000E+00	 2.50000000E-01	 4.00000000E+00
					 7.50000000E-01	-1.49012000E-08	 4.00000000E+00
					 5.00000000E-01	-1.49012000E-08	 3.50000000E+00
					 5.00000000E-01	 2.50000000E-01	 4.00000000E+00
					-7.45058000E-09	 5.00000000E-01	 4.00000000E+00
					-7.45058000E-09	 1.00000000E+00	 4.00000000E+00
					 2.50000000E-01	 5.00000000E-01	 4.00000000E+00
					 2.50000000E-01	 1.00000000E+00	 4.00000000E+00
					-7.45058000E-09	 5.00000000E-01	 3.50000000E+00
					-7.45058000E-09	 7.50000000E-01	 4.00000000E+00
					-7.45058000E-09	 1.00000000E+00	 3.50000000E+00
					-7.45058000E-09	-1.49012000E-08	 4.00000000E+00
					 2.50000000E-01	-1.49012000E-08	 4.00000000E+00
					-7.45058000E-09	-1.49012000E-08	 3.50000000E+00
					-7.45058000E-09	 2.50000000E-01	 4.00000000E+00
					 1.00000000E+00	 5.00000000E-01	 5.00000000E+00
					 1.00000000E+00	 1.00000000E+00	 5.00000000E+00
					 5.00000000E-01	 5.00000000E-01	 5.00000000E+00
					 5.00000000E-01	 1.00000000E+00	 5.00000000E+00
					 1.00000000E+00	 5.00000000E-01	 4.50000000E+00
					 1.00000000E+00	 7.50000000E-01	 5.00000000E+00
					 1.00000000E+00	 1.00000000E+00	 4.50000000E+00
					 7.50000000E-01	 5.00000000E-01	 5.00000000E+00
					 7.50000000E-01	 1.00000000E+00	 5.00000000E+00
					 5.00000000E-01	 5.00000000E-01	 4.50000000E+00
					 5.00000000E-01	 7.50000000E-01	 5.00000000E+00
					 5.00000000E-01	 1.00000000E+00	 4.50000000E+00
					 1.00000000E+00	-1.49012000E-08	 5.00000000E+00
					 5.00000000E-01	-1.49012000E-08	 5.00000000E+00
					 1.00000000E+00	-1.49012000E-08	 4.50000000E+00
					 1.00000000E+00	 2.50000000E-01	 5.00000000E+00
					 7.50000000E-01	-1.49012000E-08	 5.00000000E+00
					 5.00000000E-01	-1.49012000E-08	 4.50000000E+00
					 5.00000000E-01	 2.50000000E-01	 5.00000000E+00
					-7.45058000E-09	 5.00000000E-01	 5.00000000E+00
					-7.45058000E-09	 1.00000000E+00	 5.00000000E+00
					 2.50000000E-01	 5.00000000E-01	 5.00000000E+00
					 2.50000000E-01	 1.00000000E+00	 5.00000000E+00
					-7.45058000E-09	 5.00000000E-01	 4.50000000E+00
					-7.45058000E-09	 7.50000000E-01	 5.00000000E+00
					-7.45058000E-09	 1.00000000E+00	 4.50000000E+00
					-7.45058000E-09	-1.49012000E-08	 5.00000000E+00
					 2.50000000E-01	-1.49012000E-08	 5.00000000E+00
					-7.45058000E-09	-1.49012000E-08	 4.50000000E+00
					-7.45058000E-09	 2.50000000E-01	 5.00000000E+00
					 1.00000000E+00	 5.00000000E-01	 6.00000000E+00
					 1.00000000E+00	 1.00000000E+00	 6.00000000E+00
					 5.00000000E-01	 5.00000000E-01	 6.00000000E+00
					 5.00000000E-01	 1.00000000E+00	 6.00000000E+00
					 1.00000000E+00	 5.00000000E-01	 5.50000000E+00
					 1.00000000E+00	 7.50000000E-01	 6.00000000E+00
					 1.00000000E+00	 1.00000000E+00	 5.50000000E+00
					 7.50000000E-01	 5.00000000E-01	 6.00000000E+00
					 7.50000000E-01	 1.00000000E+00	 6.00000000E+00
					 5.00000000E-01	 5.00000000E-01	 5.50000000E+00
					 5.00000000E-01	 7.50000000E-01	 6.00000000E+00
					 5.00000000E-01	 1.00000000E+00	 5.50000000E+00
					 1.00000000E+00	-1.49012000E-08	 6.00000000E+00
[...]
			<PointData>
				<DataArray type="Float32" Name="U" NumberOfComponents="3" ComponentName0="D1" ComponentName1="D2" ComponentName2="D3" format="ascii">
					 0.00000000E+00	 0.00000000E+00	 0.00000000E+00
					 0.00000000E+00	 0.00000000E+00	 0.00000000E+00
					-4.68336000E-06	-6.49723000E-03	-1.93796000E-05
					 2.56705000E-04	-6.76984000E-03	 4.82104000E-03
					 0.00000000E+00	 0.00000000E+00	 0.00000000E+00
					 0.00000000E+00	 0.00000000E+00	 0.00000000E+00
					-7.84857000E-06	-5.95389000E-03	-9.80349000E-06
					 8.21522000E-04	-6.24412000E-03	 4.90173000E-03
					 0.00000000E+00	 0.00000000E+00	 0.00000000E+00
					-3.95876000E-07	-1.79819000E-03	-4.71992000E-06
					 1.25458000E-04	-6.52963000E-03	 2.23439000E-03
					-3.19288000E-04	-2.20089000E-03	 2.54513000E-03
					 0.00000000E+00	 0.00000000E+00	 0.00000000E+00
					 0.00000000E+00	 0.00000000E+00	 0.00000000E+00
					-6.70853000E-06	-6.32477000E-03	-1.64168000E-05
					 5.42370000E-04	-6.60826000E-03	 4.93698000E-03
					 0.00000000E+00	 0.00000000E+00	 0.00000000E+00
					-5.52060000E-06	-1.68990000E-03	 8.74935000E-07
					 4.05332000E-04	-5.99004000E-03	 2.35172000E-03
					 4.29727000E-04	-2.11359000E-03	 2.48836000E-03
					 0.00000000E+00	 0.00000000E+00	 0.00000000E+00
					-2.56959000E-04	-6.69445000E-03	-4.86789000E-03
					 0.00000000E+00	 0.00000000E+00	 0.00000000E+00
					-8.19652000E-04	-6.18086000E-03	-4.93122000E-03
					 0.00000000E+00	 0.00000000E+00	 0.00000000E+00
					 3.20139000E-04	-2.16921000E-03	-2.55187000E-03
					-1.32072000E-04	-6.48982000E-03	-2.27560000E-03
					 0.00000000E+00	 0.00000000E+00	 0.00000000E+00
					-5.41441000E-04	-6.53744000E-03	-4.97909000E-03
					 0.00000000E+00	 0.00000000E+00	 0.00000000E+00
					-4.30836000E-04	-2.08498000E-03	-2.48865000E-03
					-4.14344000E-04	-5.95822000E-03	-2.37447000E-03
					 0.00000000E+00	 0.00000000E+00	 0.00000000E+00
					 0.00000000E+00	 0.00000000E+00	 0.00000000E+00
					-3.57939000E-06	-4.85546000E-03	 5.46042000E-06
					 1.38948000E-03	-5.11336000E-03	 4.84594000E-03
					 0.00000000E+00	 0.00000000E+00	 0.00000000E+00
					 0.00000000E+00	 0.00000000E+00	 0.00000000E+00
					-7.68742000E-06	-5.50437000E-03	-2.79634000E-06
					 1.10078000E-03	-5.77915000E-03	 4.81658000E-03
					 0.00000000E+00	 0.00000000E+00	 0.00000000E+00
					-4.22796000E-06	-9.38025000E-04	 8.64075000E-06
					 6.91379000E-04	-4.87777000E-03	 2.39416000E-03
					 1.15453000E-03	-1.36219000E-03	 2.55349000E-03
					 0.00000000E+00	 0.00000000E+00	 0.00000000E+00
					-1.37534000E-03	-5.07135000E-03	-4.84357000E-03
					 0.00000000E+00	 0.00000000E+00	 0.00000000E+00
					-1.09493000E-03	-5.72409000E-03	-4.83127000E-03
					 0.00000000E+00	 0.00000000E+00	 0.00000000E+00
					-1.15001000E-03	-1.34362000E-03	-2.54348000E-03
					-6.92546000E-04	-4.86081000E-03	-2.38572000E-03
					 7.13823000E-07	-2.08435000E-02	-1.05762000E-04
					 9.75893000E-04	-2.10489000E-02	 7.60721000E-03
					 6.74275000E-06	-1.97270000E-02	-8.62709000E-05
					 1.27030000E-03	-1.99325000E-02	 7.65307000E-03
					-2.57858000E-06	-1.30469000E-02	-5.18866000E-05
					 4.85719000E-04	-2.09184000E-02	 3.68133000E-03
					 6.85887000E-04	-1.33417000E-02	 6.46448000E-03
					 3.41949000E-06	-2.03158000E-02	-9.58491000E-05
					 1.12120000E-03	-2.05181000E-02	 7.65342000E-03
					-6.98752000E-07	-1.21641000E-02	-3.95880000E-05
					 6.40022000E-04	-1.98049000E-02	 3.73663000E-03
					 1.10713000E-03	-1.24397000E-02	 6.51602000E-03
					-9.82901000E-04	-2.09314000E-02	-7.82877000E-03
					-1.26755000E-03	-1.98024000E-02	-7.83221000E-03
					-6.87381000E-04	-1.32390000E-02	-6.58491000E-03
					-4.86994000E-04	-2.08644000E-02	-3.89400000E-03
					-1.12390000E-03	-2.03932000E-02	-7.85575000E-03
					-1.10071000E-03	-1.23413000E-02	-6.60473000E-03
					-6.30300000E-04	-1.97421000E-02	-3.91048000E-03
					 1.21337000E-05	-1.83057000E-02	-6.18436000E-05
					 1.57498000E-03	-1.85142000E-02	 7.65638000E-03
					 1.00021000E-05	-1.90449000E-02	-7.57108000E-05
					 1.42516000E-03	-1.92527000E-02	 7.66028000E-03
					 4.49328000E-06	-1.08377000E-02	-1.98232000E-05
					 7.94831000E-04	-1.83835000E-02	 3.74498000E-03
					 1.55567000E-03	-1.11014000E-02	 6.50456000E-03
					-1.56211000E-03	-1.83696000E-02	-7.78323000E-03
					-1.41727000E-03	-1.91164000E-02	-7.81328000E-03
					-1.53529000E-03	-1.10125000E-02	-6.54748000E-03
					-7.73709000E-04	-1.83111000E-02	-3.87080000E-03
					 1.64182000E-05	-3.85204000E-02	-2.55945000E-04
					 1.35241000E-03	-3.86792000E-02	 8.80079000E-03
					 2.17901000E-05	-3.71188000E-02	-2.20072000E-04
					 1.48806000E-03	-3.72778000E-02	 8.84583000E-03
					 5.93198000E-06	-2.94023000E-02	-1.76475000E-04
					 6.84077000E-04	-3.85802000E-02	 4.23724000E-03
					 1.16570000E-03	-2.95809000E-02	 8.32606000E-03
					 1.92136000E-05	-3.78371000E-02	-2.37837000E-04
					 1.42131000E-03	-3.79960000E-02	 8.84766000E-03
					 1.26116000E-05	-2.81398000E-02	-1.47264000E-04
					 7.55511000E-04	-3.71798000E-02	 4.30150000E-03
					 1.37201000E-03	-2.83220000E-02	 8.37439000E-03
					-1.32526000E-03	-3.85134000E-02	-9.31390000E-03
					-1.45458000E-03	-3.71046000E-02	-9.28924000E-03
					-1.16510000E-03	-2.94440000E-02	-8.68168000E-03
					-6.52583000E-04	-3.85000000E-02	-4.75042000E-03
					-1.39084000E-03	-3.78253000E-02	-9.32426000E-03
					-1.36184000E-03	-2.81699000E-02	-8.67355000E-03
					-7.15533000E-04	-3.70940000E-02	-4.74310000E-03
					 2.53132000E-05	-3.55786000E-02	-1.83554000E-04
					 1.62510000E-03	-3.57471000E-02	 8.87342000E-03
					 2.41046000E-05	-3.63673000E-02	-2.01699000E-04
					 1.55504000E-03	-3.65273000E-02	 8.84107000E-03
					 1.77619000E-05	-2.66693000E-02	-1.16244000E-04
					 8.29194000E-04	-3.56463000E-02	 4.35320000E-03
					 1.57307000E-03	-2.68704000E-02	 8.38660000E-03
					-1.58541000E-03	-3.55606000E-02	-9.24587000E-03
					-1.51888000E-03	-3.63494000E-02	-9.25088000E-03
					-1.55514000E-03	-2.66976000E-02	-8.62474000E-03
					-7.81442000E-04	-3.55505000E-02	-4.72107000E-03
					 3.68128000E-05	-5.77651000E-02	-4.34597000E-04
					 1.57865000E-03	-5.79460000E-02	 9.52805000E-03
					 3.86269000E-05	-5.61549000E-02	-3.93048000E-04
					 1.72094000E-03	-5.63316000E-02	 9.57176000E-03
					 2.77792000E-05	-4.79731000E-02	-3.41184000E-04
					 8.06765000E-04	-5.78379000E-02	 4.54633000E-03
					 1.50214000E-03	-4.81418000E-02	 9.16802000E-03
					 3.76220000E-05	-5.69790000E-02	-4.14897000E-04
					 1.65007000E-03	-5.71561000E-02	 9.55155000E-03
					 3.01030000E-05	-4.64350000E-02	-3.01649000E-04
					 8.80645000E-04	-5.62246000E-02	 4.59313000E-03
					 1.63253000E-03	-4.66019000E-02	 9.20551000E-03
					-1.50425000E-03	-5.77379000E-02	-1.04023000E-02
					-1.64252000E-03	-5.61233000E-02	-1.03637000E-02
					-1.45125000E-03	-4.79561000E-02	-9.85253000E-03
					-7.33021000E-04	-5.77326000E-02	-5.41743000E-03
					-1.57382000E-03	-5.69479000E-02	-1.03860000E-02
					-1.57643000E-03	-4.64110000E-02	-9.81214000E-03
					-8.02925000E-04	-5.61194000E-02	-5.38071000E-03
					 4.28823000E-05	-5.44039000E-02	-3.45725000E-04
					 1.88005000E-03	-5.45704000E-02	 9.61815000E-03
					 4.00109000E-05	-5.52967000E-02	-3.69971000E-04
					 1.80061000E-03	-5.54718000E-02	 9.58902000E-03
					 3.27504000E-05	-4.47662000E-02	-2.60024000E-04
					 9.58708000E-04	-5.44678000E-02	 4.64553000E-03
					 1.77115000E-03	-4.49326000E-02	 9.24989000E-03
					-1.79342000E-03	-5.43618000E-02	-1.03155000E-02
					-1.71895000E-03	-5.52629000E-02	-1.03351000E-02
					-1.70711000E-03	-4.47383000E-02	-9.77545000E-03
					-8.73254000E-04	-5.43637000E-02	-5.33840000E-03
					 5.77863000E-05	-7.85765000E-02	-6.47637000E-04
					 1.37017000E-03	-7.87174000E-02	 1.00789000E-02
					 6.65772000E-05	-7.72471000E-02	-6.10589000E-04
					 1.41736000E-03	-7.73808000E-02	 1.01389000E-02
					 4.44153000E-05	-6.79876000E-02	-5.36856000E-04
					 7.13420000E-04	-7.86392000E-02	 4.71333000E-03
					 1.53944000E-03	-6.81575000E-02	 9.88531000E-03
					 6.09728000E-05	-7.79195000E-02	-6.27997000E-04
					 1.39327000E-03	-7.80547000E-02	 1.00734000E-02
					 5.05772000E-05	-6.64430000E-02	-4.95898000E-04
					 7.42344000E-04	-7.73040000E-02	 4.72379000E-03
					 1.65176000E-03	-6.66027000E-02	 9.93984000E-03
					-1.25100000E-03	-7.84877000E-02	-1.13808000E-02
					-1.28389000E-03	-7.71569000E-02	-1.13650000E-02
					-1.44426000E-03	-6.79314000E-02	-1.09681000E-02
					-5.97678000E-04	-7.85254000E-02	-6.01017000E-03
					-1.26847000E-03	-7.78304000E-02	-1.13359000E-02
					-1.54696000E-03	-6.63832000E-02	-1.09404000E-02
					-6.09487000E-04	-7.71958000E-02	-5.94594000E-03
					 7.37050000E-05	-7.58756000E-02	-5.73924000E-04
					 1.47728000E-03	-7.59988000E-02	 1.01595000E-02
					 7.18045000E-05	-7.65670000E-02	-5.93457000E-04
					 1.44906000E-03	-7.67001000E-02	 1.02087000E-02
					 5.77124000E-05	-6.47875000E-02	-4.47727000E-04
					 7.72261000E-04	-7.59264000E-02	 4.69501000E-03
					 1.78851000E-03	-6.49306000E-02	 9.97874000E-03
					-1.33402000E-03	-7.57728000E-02	-1.13104000E-02
					-1.30834000E-03	-7.64745000E-02	-1.13986000E-02
					-1.67279000E-03	-6.47113000E-02	-1.08811000E-02
					-6.25411000E-04	-7.58188000E-02	-5.84357000E-03
					 7.66057000E-05	-9.97486000E-02	-8.77167000E-04
					 7.98084000E-04	-9.97808000E-02	 9.48269000E-03
					 7.31369000E-05	-9.91100000E-02	-8.61159000E-04
					 6.37621000E-04	-9.91424000E-02	 9.51363000E-03
					 7.08247000E-05	-8.93034000E-02	-7.62630000E-04
					 4.37112000E-04	-9.97854000E-02	 4.32691000E-03
					 1.12433000E-03	-8.93903000E-02	 9.93131000E-03
					 7.57793000E-05	-9.94073000E-02	-8.67782000E-04
					 7.18773000E-04	-9.94380000E-02	 9.43973000E-03
					 7.49848000E-05	-8.82867000E-02	-7.35287000E-04
					 3.56621000E-04	-9.91476000E-02	 4.28850000E-03
					 1.06564000E-03	-8.83688000E-02	 9.98540000E-03
					-6.52765000E-04	-9.95748000E-02	-1.12191000E-02
					-4.92247000E-04	-9.89283000E-02	-1.12183000E-02
					-9.84047000E-04	-8.91703000E-02	-1.14544000E-02
					-2.85186000E-04	-9.96846000E-02	-6.07482000E-03
					-5.73603000E-04	-9.92280000E-02	-1.11588000E-02
					-9.18007000E-04	-8.81486000E-02	-1.14513000E-02
					-2.10544000E-04	-9.90424000E-02	-6.00600000E-03
					 6.84479000E-05	-9.86238000E-02	-8.57895000E-04
					 4.76863000E-04	-9.86582000E-02	 9.50188000E-03
					 7.04527000E-05	-9.88470000E-02	-8.58246000E-04
					 5.56840000E-04	-9.88804000E-02	 9.58621000E-03
					 7.69244000E-05	-8.73249000E-02	-7.17442000E-04
					 2.74975000E-04	-9.86598000E-02	 4.20855000E-03
					 1.01388000E-03	-8.74032000E-02	 9.98152000E-03
					-3.33178000E-04	-9.84513000E-02	-1.12009000E-02
					-4.11438000E-04	-9.86645000E-02	-1.12874000E-02
					-8.63825000E-04	-8.71815000E-02	-1.14105000E-02
					-1.36562000E-04	-9.85626000E-02	-5.91811000E-03
					 8.23678000E-05	-1.18503000E-01	-1.04386000E-03
					-4.15156000E-05	-1.18523000E-01	 8.10628000E-03
					 6.36517000E-05	-1.18702000E-01	-1.04963000E-03
					-2.01388000E-04	-1.18730000E-01	 8.08133000E-03
					 8.08651000E-05	-1.09497000E-01	-9.75601000E-04
					 2.35707000E-05	-1.18540000E-01	 3.60406000E-03
					 3.74577000E-04	-1.09518000E-01	 8.79115000E-03
					 7.61170000E-05	-1.18579000E-01	-1.04562000E-03
					-1.19125000E-04	-1.18606000E-01	 8.04058000E-03
					 7.01067000E-05	-1.09294000E-01	-9.68711000E-04
					-6.82575000E-05	-1.18744000E-01	 3.53366000E-03
					 1.85912000E-04	-1.09322000E-01	 8.79488000E-03
					 1.95575000E-04	-1.18315000E-01	-1.01906000E-02
					 3.41845000E-04	-1.18516000E-01	-1.01795000E-02
					-2.30746000E-04	-1.09318000E-01	-1.07160000E-02
					 1.38027000E-04	-1.18423000E-01	-5.69523000E-03
					 2.70167000E-04	-1.18393000E-01	-1.01268000E-02
					-4.09852000E-05	-1.09107000E-01	-1.07090000E-02
					 2.00493000E-04	-1.18624000E-01	-5.63508000E-03
					 4.75189000E-05	-1.19056000E-01	-1.06795000E-03
					-3.74942000E-04	-1.19077000E-01	 8.06890000E-03
					 5.16874000E-05	-1.18861000E-01	-1.05711000E-03
					-2.90317000E-04	-1.18885000E-01	 8.11484000E-03
					 5.99450000E-05	-1.09279000E-01	-9.77936000E-04
					-1.63268000E-04	-1.19092000E-01	 3.47639000E-03
					-1.16271000E-05	-1.09305000E-01	 8.78442000E-03
					 5.03138000E-04	-1.18897000E-01	-1.02068000E-02
					 4.20985000E-04	-1.18681000E-01	-1.02299000E-02
					 1.57096000E-04	-1.09115000E-01	-1.07198000E-02
					 2.68153000E-04	-1.18996000E-01	-5.61589000E-03
					 1.86386000E-05	-1.35467000E-01	-1.14907000E-03
					-5.49165000E-04	-1.35500000E-01	 7.47593000E-03
					 3.10327000E-05	-1.36015000E-01	-1.20184000E-03
					-5.43119000E-04	-1.36046000E-01	 7.38943000E-03
					 6.65160000E-05	-1.26985000E-01	-1.09050000E-03
					-2.71478000E-04	-1.35483000E-01	 3.19521000E-03
					-3.63114000E-04	-1.27041000E-01	 7.67269000E-03
					 2.56411000E-05	-1.35743000E-01	-1.18142000E-03
					-5.43406000E-04	-1.35773000E-01	 7.42184000E-03
					 4.91946000E-05	-1.27453000E-01	-1.12104000E-03
					-2.61972000E-04	-1.36026000E-01	 3.11816000E-03
					-4.46082000E-04	-1.27508000E-01	 7.61049000E-03
					 6.28963000E-04	-1.35378000E-01	-9.86061000E-03
					 6.34099000E-04	-1.35952000E-01	-9.86397000E-03
					 5.15756000E-04	-1.26839000E-01	-9.90478000E-03
					 3.22213000E-04	-1.35420000E-01	-5.52090000E-03
					 6.30450000E-04	-1.35673000E-01	-9.86185000E-03
					 5.66723000E-04	-1.27326000E-01	-9.90067000E-03
					 3.35692000E-04	-1.35983000E-01	-5.54193000E-03
					 4.77723000E-05	-1.36608000E-01	-1.20780000E-03
					-5.59414000E-04	-1.36632000E-01	 7.38376000E-03
					 3.68532000E-05	-1.36309000E-01	-1.20922000E-03
					-5.55165000E-04	-1.36333000E-01	 7.37367000E-03
					 3.69352000E-05	-1.28003000E-01	-1.13385000E-03
					-2.54932000E-04	-1.36616000E-01	 3.11578000E-03
					-5.51539000E-04	-1.28054000E-01	 7.59993000E-03
					 6.67276000E-04	-1.36562000E-01	-9.87119000E-03
					 6.52352000E-04	-1.36252000E-01	-9.86159000E-03
					 6.47075000E-04	-1.27899000E-01	-9.91982000E-03
					 3.54380000E-04	-1.36589000E-01	-5.55242000E-03
					 0.00000000E+00	 0.00000000E+00	 0.00000000E+00
					 0.00000000E+00	 0.00000000E+00	 0.00000000E+00
					 5.61983000E-06	-1.13556000E-02	-2.40107000E-04
					-3.13564000E-03	-1.22245000E-02	 1.18957000E-02
					 0.00000000E+00	 0.00000000E+00	 0.00000000E+00
					 0.00000000E+00	 0.00000000E+00	 0.00000000E+00
					-2.37353000E-05	-1.36820000E-02	-3.07934000E-04
					-1.55954000E-03	-1.45951000E-02	 1.19623000E-02
					 0.00000000E+00	 0.00000000E+00	 0.00000000E+00
					 3.35244000E-05	-2.08753000E-03	-8.84196000E-05
					-1.56934000E-03	-1.15138000E-02	 5.83031000E-03
					-2.56525000E-03	-3.18413000E-03	 6.06539000E-03
					 0.00000000E+00	 0.00000000E+00	 0.00000000E+00
					 0.00000000E+00	 0.00000000E+00	 0.00000000E+00
					-7.11393000E-06	-1.27879000E-02	-2.81106000E-04
					-2.33235000E-03	-1.36760000E-02	 1.17910000E-02
					 0.00000000E+00	 0.00000000E+00	 0.00000000E+00
					-7.80063000E-06	-3.68870000E-03	-1.11765000E-04
					-7.94206000E-04	-1.38473000E-02	 5.68962000E-03
					-7.84842000E-04	-4.76068000E-03	 5.87188000E-03
					 0.00000000E+00	 0.00000000E+00	 0.00000000E+00
					 3.14008000E-03	-1.18915000E-02	-1.24249000E-02
					 0.00000000E+00	 0.00000000E+00	 0.00000000E+00
					 1.53940000E-03	-1.42828000E-02	-1.26294000E-02
					 0.00000000E+00	 0.00000000E+00	 0.00000000E+00
					 2.62576000E-03	-3.09188000E-03	-6.26187000E-03
					 1.57673000E-03	-1.13377000E-02	-6.32678000E-03
					 0.00000000E+00	 0.00000000E+00	 0.00000000E+00
					 2.33236000E-03	-1.33522000E-02	-1.24007000E-02
					 0.00000000E+00	 0.00000000E+00	 0.00000000E+00
					 7.88344000E-04	-4.69015000E-03	-6.11200000E-03
					 7.54503000E-04	-1.36891000E-02	-6.32178000E-03
					 0.00000000E+00	 0.00000000E+00	 0.00000000E+00
					 0.00000000E+00	 0.00000000E+00	 0.00000000E+00
					-5.31057000E-05	-1.44525000E-02	-3.29117000E-04
					 2.00698000E-05	-1.52835000E-02	 1.18135000E-02
					 0.00000000E+00	 0.00000000E+00	 0.00000000E+00
					 0.00000000E+00	 0.00000000E+00	 0.00000000E+00
					-3.96608000E-05	-1.43347000E-02	-3.24265000E-04
					-7.82115000E-04	-1.52089000E-02	 1.20160000E-02
					 0.00000000E+00	 0.00000000E+00	 0.00000000E+00
					-5.10808000E-05	-3.65859000E-03	-1.21835000E-04
					-1.95692000E-05	-1.45809000E-02	 5.47691000E-03
					 1.04361000E-03	-4.67760000E-03	 6.03016000E-03
					 0.00000000E+00	 0.00000000E+00	 0.00000000E+00
					-7.59529000E-05	-1.50123000E-02	-1.25101000E-02
					 0.00000000E+00	 0.00000000E+00	 0.00000000E+00
					 7.39690000E-04	-1.49097000E-02	-1.27124000E-02
					 0.00000000E+00	 0.00000000E+00	 0.00000000E+00
					-1.11119000E-03	-4.63100000E-03	-6.29771000E-03
					-6.98218000E-05	-1.44569000E-02	-6.14394000E-03
					 8.87095000E-06	-4.64053000E-02	-9.94930000E-04
					-3.90684000E-03	-4.74404000E-02	 2.07540000E-02
					 5.39967000E-06	-4.97072000E-02	-1.10545000E-03
					-2.73285000E-03	-5.07629000E-02	 2.07007000E-02
					-1.79521000E-07	-2.63090000E-02	-5.27687000E-04
					-1.94641000E-03	-4.67883000E-02	 9.79673000E-03
					-3.65069000E-03	-2.73462000E-02	 1.68177000E-02
					 6.76310000E-06	-4.81850000E-02	-1.05951000E-03
					-3.31892000E-03	-4.92314000E-02	 2.06948000E-02
					-2.22139000E-05	-2.92235000E-02	-6.25991000E-04
					-1.35849000E-03	-5.01013000E-02	 9.68903000E-03
					-2.22270000E-03	-3.02694000E-02	 1.67828000E-02
					 3.91260000E-03	-4.64810000E-02	-2.28073000E-02
					 2.73062000E-03	-4.98016000E-02	-2.29725000E-02
					 3.64151000E-03	-2.67204000E-02	-1.79472000E-02
					 1.95840000E-03	-4.63174000E-02	-1.17998000E-02
					 3.32305000E-03	-4.82773000E-02	-2.28761000E-02
					 2.19166000E-03	-2.96553000E-02	-1.81010000E-02
					 1.36933000E-03	-4.96304000E-02	-1.19110000E-02
					-7.76946000E-06	-5.18678000E-02	-1.15589000E-03
					-1.55488000E-03	-5.29014000E-02	 2.05927000E-02
					-2.27532000E-07	-5.09159000E-02	-1.13740000E-03
					-2.14404000E-03	-5.19951000E-02	 2.07305000E-02
					-4.73925000E-05	-3.07247000E-02	-6.65245000E-04
					-7.86331000E-04	-5.22449000E-02	 9.52275000E-03
					-8.21427000E-04	-3.17632000E-02	 1.66882000E-02
					 1.56230000E-03	-5.19529000E-02	-2.29606000E-02
					 2.14732000E-03	-5.10045000E-02	-2.30630000E-02
					 7.70704000E-04	-3.11853000E-02	-1.80743000E-02
					 7.78313000E-04	-5.17856000E-02	-1.18450000E-02
					 1.70479000E-04	-9.76906000E-02	-2.42940000E-03
					-4.04965000E-03	-9.86981000E-02	 2.51835000E-02
					 1.80783000E-04	-1.01576000E-01	-2.50488000E-03
					-3.42915000E-03	-1.02705000E-01	 2.51683000E-02
					 6.47932000E-05	-7.05516000E-02	-1.63834000E-03
					-1.93289000E-03	-9.81105000E-02	 1.12767000E-02
					-4.00436000E-03	-7.16143000E-02	 2.35096000E-02
					 1.76396000E-04	-9.97140000E-02	-2.46848000E-03
					-3.74371000E-03	-1.00794000E-01	 2.51337000E-02
					 6.76224000E-05	-7.41621000E-02	-1.73868000E-03
					-1.64708000E-03	-1.02059000E-01	 1.11782000E-02
					-3.11251000E-03	-7.52450000E-02	 2.34736000E-02
					 4.34190000E-03	-9.72058000E-02	-3.00579000E-02
					 3.77521000E-03	-1.01098000E-01	-3.02309000E-02
					 4.10997000E-03	-7.03565000E-02	-2.68342000E-02
					 2.25868000E-03	-9.73795000E-02	-1.61334000E-02
					 4.05796000E-03	-9.92259000E-02	-3.01147000E-02
					 3.23407000E-03	-7.39514000E-02	-2.70004000E-02
					 1.98085000E-03	-1.01274000E-01	-1.62165000E-02
					 1.86753000E-04	-1.04885000E-01	-2.54791000E-03
					-2.91090000E-03	-1.06139000E-01	 2.50529000E-02
					 1.84496000E-04	-1.03320000E-01	-2.53216000E-03
					-3.17188000E-03	-1.04388000E-01	 2.52239000E-02
					 7.45261000E-05	-7.68929000E-02	-1.79004000E-03
					-1.33131000E-03	-1.05431000E-01	 1.09836000E-02
					-2.24935000E-03	-7.80073000E-02	 2.33564000E-02
					 3.22652000E-03	-1.04426000E-01	-3.02308000E-02
					 3.49892000E-03	-1.02828000E-01	-3.03474000E-02
					 2.34573000E-03	-7.66685000E-02	-2.69877000E-02
					 1.70194000E-03	-1.04605000E-01	-1.61302000E-02
					 5.95072000E-04	-1.56624000E-01	-4.27193000E-03
					-3.72736000E-03	-1.57341000E-01	 2.49039000E-02