<?xml version="1.0"?>
<VTKFile type="UnstructuredGrid" version="0.1" byte_order="LittleEndian">
	<UnstructuredGrid>
		<Piece NumberOfPoints="522" NumberOfCells="64">
			<Points>
				<DataArray type="Float64" NumberOfComponents="3" format="ascii">
					 1.00000000E+00	 1.00000000E+00	-5.96046000E-08
					 1.00000000E+00	 5.00000000E-01	-5.96046000E-08
					 1.00000000E+00	 5.00000000E-01	 1.00000000E+00
					 1.00000000E+00	 1.00000000E+00	 1.00000000E+00
					 5.00000000E-01	 1.00000000E+00	-5.96046000E-08
					 5.00000000E-01	 5.00000000E-01	-5.96046000E-08
					 5.00000000E-01	 5.00000000E-01	 1.00000000E+00
					 5.00000000E-01	 1.00000000E+00	 1.00000000E+00
					 1.00000000E+00	 7.50000000E-01	-5.96046000E-08
					 1.00000000E+00	 5.00000000E-01	 5.00000000E-01
					 1.00000000E+00	 7.50000000E-01	 1.00000000E+00
					 1.00000000E+00	 1.00000000E+00	 5.00000000E-01
					 7.50000000E-01	 1.00000000E+00	-5.96046000E-08
					 7.50000000E-01	 5.00000000E-01	-5.96046000E-08
					 7.50000000E-01	 5.00000000E-01	 1.00000000E+00
					 7.50000000E-01	 1.00000000E+00	 1.00000000E+00
					 5.00000000E-01	 7.50000000E-01	-5.96046000E-08
					 5.00000000E-01	 5.00000000E-01	 5.00000000E-01
					 5.00000000E-01	 7.50000000E-01	 1.00000000E+00
					 5.00000000E-01	 1.00000000E+00	 5.00000000E-01
					 1.00000000E+00	-1.49012000E-08	-5.96046000E-08
					 1.00000000E+00	-1.49012000E-08	 1.00000000E+00
					 5.00000000E-01	-1.49012000E-08	-5.96046000E-08
					 5.00000000E-01	-1.49012000E-08	 1.00000000E+00
					 1.00000000E+00	 2.50000000E-01	-5.96046000E-08
					 1.00000000E+00	-1.49012000E-08	 5.00000000E-01
					 1.00000000E+00	 2.50000000E-01	 1.00000000E+00
					 7.50000000E-01	-1.49012000E-08	-5.96046000E-08
					 7.50000000E-01	-1.49012000E-08	 1.00000000E+00
					 5.00000000E-01	 2.50000000E-01	-5.96046000E-08
					 5.00000000E-01	-1.49012000E-08	 5.00000000E-01
					 5.00000000E-01	 2.50000000E-01	 1.00000000E+00
					-7.45058000E-09	 1.00000000E+00	-5.96046000E-08
					-7.45058000E-09	 5.00000000E-01	-5.96046000E-08
					-7.45058000E-09	 5.00000000E-01	 1.00000000E+00
					-7.45058000E-09	 1.00000000E+00	 1.00000000E+00
					 2.50000000E-01	 1.00000000E+00	-5.96046000E-08
					 2.50000000E-01	 5.00000000E-01	-5.96046000E-08
					 2.50000000E-01	 5.00000000E-01	 1.00000000E+00
					 2.50000000E-01	 1.00000000E+00	 1.00000000E+00
					-7.45058000E-09	 7.50000000E-01	-5.96046000E-08
					-7.45058000E-09	 5.00000000E-01	 5.00000000E-01
					-7.45058000E-09	 7.50000000E-01	 1.00000000E+00
					-7.45058000E-09	 1.00000000E+00	 5.00000000E-01
					-7.45058000E-09	-1.49012000E-08	-5.96046000E-08
					-7.45058000E-09	-1.49012000E-08	 1.00000000E+00
					 2.50000000E-01	-1.49012000E-08	-5.96046000E-08
					 2.50000000E-01	-1.49012000E-08	 1.00000000E+00
					-7.45058000E-09	 2.50000000E-01	-5.96046000E-08
					-7.45058000E-09	-1.49012000E-08	 5.00000000E-01
					-7.45058000E-09	 2.50000000E-01	 1.00000000E+00
					 1.00000000E+00	 5.00000000E-01	 2.00000000E+00
					 1.00000000E+00	 1.00000000E+00	 2.00000000E+00
					 5.00000000E-01	 5.00000000E-01	 2.00000000E+00
					 5.00000000E-01	 1.00000000E+00	 2.00000000E+00
					 1.00000000E+00	 5.00000000E-01	 1.50000000E+00
					 1.00000000E+00	 7.50000000E-01	 2.00000000E+00
					 1.00000000E+00	 1.00000000E+00	 1.50000000E+00
					 7.50000000E-01	 5.00000000E-01	 2.00000000E+00
					 7.50000000E-01	 1.00000000E+00	 2.00000000E+00
					 5.00000000E-01	 5.00000000E-01	 1.50000000E+00
					 5.00000000E-01	 7.50000000E-01	 2.00000000E+00
					 5.00000000E-01	 1.00000000E+00	 1.50000000E+00
					 1.00000000E+00	-1.49012000E-08	 2.00000000E+00
					 5.00000000E-01	-1.49012000E-08	 2.00000000E+00
					 1.00000000E+00	-1.49012000E-08	 1.50000000E+00
					 1.00000000E+00	 2.50000000E-01	 2.00000000E+00
					 7.50000000E-01	-1.49012000E-08	 2.00000000E+00
					 5.00000000E-01	-1.49012000E-08	 1.50000000E+00
					 5.00000000E-01	 2.50000000E-01	 2.00000000E+00
					-7.45058000E-09	 5.00000000E-01	 2.00000000E+00
					-7.45058000E-09	 1.00000000E+00	 2.00000000E+00
					 2.50000000E-01	 5.00000000E-01	 2.00000000E+00
					 2.50000000E-01	 1.00000000E+00	 2.00000000E+00
					-7.45058000E-09	 5.00000000E-01	 1.50000000E+00
					-7.45058000E-09	 7.50000000E-01	 2.00000000E+00
					-7.45058000E-09	 1.00000000E+00	 1.50000000E+00
					-7.45058000E-09	-1.49012000E-08	 2.00000000E+00
					 2.50000000E-01	-1.49012000E-08	 2.00000000E+00
					-7.45058000E-09	-1.49012000E-08	 1.50000000E+00
					-7.45058000E-09	 2.50000000E-01	 2.00000000E+00
					 1.00000000E+00	 5.00000000E-01	 3.00000000E+00
					 1.00000000E+00	 1.00000000E+00	 3.00000000E+00
					 5.00000000E-01	 5.00000000E-01	 3.00000000E+00
					 5.00000000E-01	 1.00000000E+00	 3.00000000E+00
					 1.00000000E+00	 5.00000000E-01	 2.50000000E+00
					 1.00000000E+00	 7.50000000E-01	 3.00000000E+00
					 1.00000000E+00	 1.00000000E+00	 2.50000000E+00
					 7.50000000E-01	 5.00000000E-01	 3.00000000E+00
					 7.50000000E-01	 1.00000000E+00	 3.00000000E+00
					 5.00000000E-01	 5.00000000E-01	 2.50000000E+00
					 5.00000000E-01	 7.50000000E-01	 3.00000000E+00
					 5.00000000E-01	 1.00000000E+00	 2.50000000E+00
					 1.00000000E+00	-1.49012000E-08	 3.00000000E+00
					 5.00000000E-01	-1.49012000E-08	 3.00000000E+00
					 1.00000000E+00	-1.49012000E-08	 2.50000000E+00
					 1.00000000E+00	 2.50000000E-01	 3.00000000E+00
					 7.50000000E-01	-1.49012000E-08	 3.00000000E+00
					 5.00000000E-01	-1.49012000E-08	 2.50000000E+00
					 5.00000000E-01	 2.50000000E-01	 3.00000000E+00
					-7.45058000E-09	 5.00000000E-01	 3.00000000E+00
					-7.45058000E-09	 1.00000000E+00	 3.00000000E+00
					 2.50000000E-01	 5.00000000E-01	 3.00000000E+00
					 2.50000000E-01	 1.00000000E+00	 3.00000000E+00
					-7.45058000E-09	 5.00000000E-01	 2.50000000E+00
					-7.45058000E-09	 7.50000000E-01	 3.00000000E+00
					-7.45058000E-09	 1.00000000E+00	 2.50000000E+00
					-7.45058000E-09	-1.49012000E-08	 3.00000000E+00
					 2.50000000E-01	-1.49012000E-08	 3.00000000E+00
					-7.45058000E-09	-1.49012000E-08	 2.50000000E+00
					-7.45058000E-09	 2.50000000E-01	 3.00000000E+00
					 1.00000000E+00	 5.00000000E-01	 4.00000000E+00
					 1.00000000E+00	 1.00000000E+00	 4.00000000E+00
					 5.00000000E-01	 5.00000000E-01	 4.00000000E+00
					 5.00000000E-01	 1.00000000E+00	 4.00000000E+00
					 1.00000000E+00	 5.00000000E-01	 3.50000000E+00
					 1.00000000E+00	 7.50000000E-01	 4.00000000E+00
					 1.00000000E+00	 1.00000000E+00	 3.50000000E+00
					 7.50000000E-01	 5.00000000E-01	 4.00000000E+00
					 7.50000000E-01	 1.00000000E+00	 4.00000000E+00
					 5.00000000E-01	 5.00000000E-01	 3.50000000E+00
					 5.00000000E-01	 7.50000000E-01	 4.00000000E+00
					 5.00000000E-01	 1.00000000E+00	 3.50000000E+00
					 1.00000000E+00	-1.49012000E-08	 4.00000000E+00
					 5.00000000E-01	-1.49012000E-08	 4.00000000E+00
					 1.00000000E+00	-1.49012000E-08	 3.50000000E+00
					 1.00000000E+00	 2.50000000E-01	 4.00000000E+00
					 7.50000000E-01	-1.49012000E-08	 4.00000000E+00
					 5.00000000E-01	-1.49012000E-08	 3.50000000E+00
					 5.00000000E-01	 2.50000000E-01	 4.00000000E+00
					-7.45058000E-09	 5.00000000E-01	 4.00000000E+00
					-7.45058000E-09	 1.00000000E+00	 4.00000000E+00
					 2.50000000E-01	 5.00000000E-01	 4.00000000E+00
					 2.50000000E-01	 1.00000000E+00	 4.00000000E+00
					-7.45058000E-09	 5.00000000E-01	 3.50000000E+00
					-7.45058000E-09	 7.50000000E-01	 4.00000000E+00
					-7.45058000E-09	 1.00000000E+00	 3.50000000E+00
					-7.45058000E-09	-1.49012000E-08	 4.00000000E+00
					 2.50000000E-01	-1.49012000E-08	 4.00000000E+00
					-7.45058000E-09	-1.49012000E-08	 3.50000000E+00
					-7.45058000E-09	 2.50000000E-01	 4.00000000E+00
					 1.00000000E+00	 5.00000000E-01	 5.00000000E+00
					 1.00000000E+00	 1.00000000E+00	 5.00000000E+00
					 5.00000000E-01	 5.00000000E-01	 5.00000000E+00
					 5.00000000E-01	 1.00000000E+00	 5.00000000E+00
					 1.00000000E+00	 5.00000000E-01	 4.50000000E+00
					 1.00000000E+00	 7.50000000E-01	 5.00000000E+00
					 1.00000000E+00	 1.00000000E+00	 4.50000000E+00
					 7.50000000E-01	 5.00000000E-01	 5.00000000E+00
					 7.50000000E-01	 1.00000000E+00	 5.00000000E+00
					 5.00000000E-01	 5.00000000E-01	 4.50000000E+00
					 5.00000000E-01	 7.50000000E-01	 5.00000000E+00
					 5.00000000E-01	 1.00000000E+00	 4.50000000E+00
					 1.00000000E+00	-1.49012000E-08	 5.00000000E+00
					 5.00000000E-01	-1.49012000E-08	 5.00000000E+00
					 1.00000000E+00	-1.49012000E-08	 4.50000000E+00
					 1.00000000E+00	 2.50000000E-01	 5.00000000E+00
					 7.50000000E-01	-1.49012000E-08	 5.00000000E+00
					 5.00000000E-01	-1.49012000E-08	 4.50000000E+00
					 5.00000000E-01	 2.50000000E-01	 5.00000000E+00
					-7.45058000E-09	 5.00000000E-01	 5.00000000E+00
					-7.45058000E-09	 1.00000000E+00	 5.00000000E+00
					 2.50000000E-01	 5.00000000E-01	 5.00000000E+00
					 2.50000000E-01	 1.00000000E+00	 5.00000000E+00
					-7.45058000E-09	 5.00000000E-01	 4.50000000E+00
					-7.45058000E-09	 7.50000000E-01	 5.00000000E+00
					-7.45058000E-09	 1.00000000E+00	 4.50000000E+00
					-7.45058000E-09	-1.49012000E-08	 5.00000000E+00
					 2.50000000E-01	-1.49012000E-08	 5.00000000E+00
					-7.45058000E-09	-1.49012000E-08	 4.50000000E+00
					-7.45058000E-09	 2.50000000E-01	 5.00000000E+00
					 1.00000000E+00	 5.00000000E-01	 6.00000000E+00
					 1.00000000E+00	 1.00000000E+00	 6.00000000E+00
					 5.00000000E-01	 5.00000000E-01	 6.00000000E+00
					 5.00000000E-01	 1.00000000E+00	 6.00000000E+00
					 1.00000000E+00	 5.00000000E-01	 5.50000000E+00
					 1.00000000E+00	 7.50000000E-01	 6.00000000E+00
					 1.00000000E+00	 1.00000000E+00	 5.50000000E+00
					 7.50000000E-01	 5.00000000E-01	 6.00000000E+00
					 7.50000000E-01	 1.00000000E+00	 6.00000000E+00
					 5.00000000E-01	 5.00000000E-01	 5.50000000E+00
					 5.00000000E-01	 7.50000000E-01	 6.00000000E+00
					 5.00000000E-01	 1.00000000E+00	 5.50000000E+00
					 1.00000000E+00	-1.49012000E-08	 6.00000000E+00
[...]
			<PointData>
				<DataArray type="Float32" Name="U" NumberOfComponents="3" ComponentName0="D1" ComponentName1="D2" ComponentName2="D3" format="ascii">
					 0.00000000E+00	 0.00000000E+00	 0.00000000E+00
					 0.00000000E+00	 0.00000000E+00	 0.00000000E+00
					-6.22048000E-06	-1.37567000E-03	-2.86470000E-05
					 1.51055000E-04	-1.53654000E-03	 1.73903000E-03
					 0.00000000E+00	 0.00000000E+00	 0.00000000E+00
					 0.00000000E+00	 0.00000000E+00	 0.00000000E+00
					-1.04641000E-05	-1.03487000E-03	-3.19413000E-05
					 4.92795000E-04	-1.20863000E-03	 1.73145000E-03
					 0.00000000E+00	 0.00000000E+00	 0.00000000E+00
					-1.42725000E-06	-1.29842000E-04	-1.06525000E-05
					 7.20253000E-05	-1.40438000E-03	 8.49282000E-04
					-4.85365000E-05	-2.71798000E-04	 7.19426000E-04
					 0.00000000E+00	 0.00000000E+00	 0.00000000E+00
					 0.00000000E+00	 0.00000000E+00	 0.00000000E+00
					-8.01043000E-06	-1.25458000E-03	-3.04096000E-05
					 3.23440000E-04	-1.42243000E-03	 1.77340000E-03
					 0.00000000E+00	 0.00000000E+00	 0.00000000E+00
					-5.37082000E-06	-2.63931000E-05	-1.35673000E-05
					 2.40813000E-04	-1.06970000E-03	 8.84305000E-04
					 2.21551000E-04	-1.77147000E-04	 6.79488000E-04
					 0.00000000E+00	 0.00000000E+00	 0.00000000E+00
					-1.69623000E-04	-1.54369000E-03	-1.79417000E-03
					 0.00000000E+00	 0.00000000E+00	 0.00000000E+00
					-5.19673000E-04	-1.20941000E-03	-1.79358000E-03
					 0.00000000E+00	 0.00000000E+00	 0.00000000E+00
					 4.27419000E-05	-2.81906000E-04	-7.43045000E-04
					-8.65461000E-05	-1.40942000E-03	-9.05721000E-04
					 0.00000000E+00	 0.00000000E+00	 0.00000000E+00
					-3.45549000E-04	-1.42571000E-03	-1.83256000E-03
					 0.00000000E+00	 0.00000000E+00	 0.00000000E+00
					-2.35965000E-04	-1.84938000E-04	-7.07575000E-04
					-2.63968000E-04	-1.07016000E-03	-9.47692000E-04
					 0.00000000E+00	 0.00000000E+00	 0.00000000E+00
					 0.00000000E+00	 0.00000000E+00	 0.00000000E+00
					-1.52865000E-05	-3.61903000E-04	-3.37506000E-05
					 8.29251000E-04	-5.34802000E-04	 1.73434000E-03
					 0.00000000E+00	 0.00000000E+00	 0.00000000E+00
					 0.00000000E+00	 0.00000000E+00	 0.00000000E+00
					-1.26755000E-05	-7.48342000E-04	-3.28105000E-05
					 6.59026000E-04	-9.18838000E-04	 1.66938000E-03
					 0.00000000E+00	 0.00000000E+00	 0.00000000E+00
					-1.10357000E-05	 3.28147000E-04	-1.79246000E-05
					 4.09937000E-04	-3.98706000E-04	 9.47095000E-04
					 4.69125000E-04	 1.61942000E-04	 7.13570000E-04
					 0.00000000E+00	 0.00000000E+00	 0.00000000E+00
					-8.64011000E-04	-5.28360000E-04	-1.80022000E-03
					 0.00000000E+00	 0.00000000E+00	 0.00000000E+00
					-6.90194000E-04	-9.16628000E-04	-1.73299000E-03
					 0.00000000E+00	 0.00000000E+00	 0.00000000E+00
					-4.93888000E-04	 1.56970000E-04	-7.49296000E-04
					-4.41625000E-04	-3.93842000E-04	-1.01435000E-03
					-2.79177000E-05	-7.68753000E-03	-6.67974000E-05
					 5.43137000E-04	-7.92482000E-03	 4.37792000E-03
					-3.03970000E-05	-6.89194000E-03	-7.14694000E-05
					 9.81495000E-04	-7.13122000E-03	 4.36705000E-03
					-1.25695000E-05	-3.86688000E-03	-4.71596000E-05
					 2.58046000E-04	-7.75295000E-03	 2.14311000E-03
					 3.78129000E-04	-4.07473000E-03	 2.99616000E-03
					-2.93775000E-05	-7.34442000E-03	-7.11060000E-05
					 7.62491000E-04	-7.58263000E-03	 4.39347000E-03
					-1.64765000E-05	-3.27686000E-03	-5.05888000E-05
					 4.75775000E-04	-6.95794000E-03	 2.15929000E-03
					 7.69381000E-04	-3.48244000E-03	 2.98347000E-03
					-6.00078000E-04	-7.88095000E-03	-4.51563000E-03
					-1.04245000E-03	-7.08727000E-03	-4.51421000E-03
					-4.07213000E-04	-4.06047000E-03	-3.08689000E-03
					-3.14483000E-04	-7.72950000E-03	-2.27794000E-03
					-8.21430000E-04	-7.53825000E-03	-4.53947000E-03
					-8.05589000E-04	-3.46504000E-03	-3.08289000E-03
					-5.36604000E-04	-6.93459000E-03	-2.30334000E-03
					-3.15208000E-05	-5.66201000E-03	-7.00979000E-05
					 1.42514000E-03	-5.89529000E-03	 4.37686000E-03
					-3.11478000E-05	-6.32965000E-03	-7.03017000E-05
					 1.20336000E-03	-6.56912000E-03	 4.34519000E-03
					-2.04392000E-05	-2.29001000E-03	-5.04777000E-05
					 6.93651000E-04	-5.72467000E-03	 2.19201000E-03
					 1.17160000E-03	-2.49001000E-03	 2.99259000E-03
					-1.48745000E-03	-5.84964000E-03	-4.52128000E-03
					-1.26570000E-03	-6.52474000E-03	-4.49026000E-03
					-1.21445000E-03	-2.46875000E-03	-3.09352000E-03
					-7.56312000E-04	-5.70034000E-03	-2.33329000E-03
					-5.30702000E-05	-1.99474000E-02	-1.71615000E-04
					 8.84063000E-04	-2.02103000E-02	 7.28225000E-03
					-5.40157000E-05	-1.87771000E-02	-1.58189000E-04
					 1.33417000E-03	-1.90518000E-02	 7.30356000E-03
					-4.47262000E-05	-1.30055000E-02	-1.04776000E-04
					 4.18293000E-04	-2.00201000E-02	 3.51504000E-03
					 6.91729000E-04	-1.32591000E-02	 5.83786000E-03
					-5.45792000E-05	-1.94181000E-02	-1.65255000E-04
					 1.10822000E-03	-1.96900000E-02	 7.32395000E-03
					-4.63417000E-05	-1.20372000E-02	-1.03805000E-04
					 6.40180000E-04	-1.88560000E-02	 3.56394000E-03
					 1.14591000E-03	-1.22956000E-02	 5.84024000E-03
					-9.93758000E-04	-2.01100000E-02	-7.63507000E-03
					-1.44741000E-03	-1.89445000E-02	-7.62889000E-03
					-7.81966000E-04	-1.31907000E-02	-6.05853000E-03
					-5.25525000E-04	-1.99719000E-02	-3.86006000E-03
					-1.22093000E-03	-1.95858000E-02	-7.66483000E-03
					-1.23989000E-03	-1.22248000E-02	-6.05769000E-03
					-7.49597000E-04	-1.88038000E-02	-3.88248000E-03
					-5.08739000E-05	-1.71668000E-02	-1.38128000E-04
					 1.77780000E-03	-1.74499000E-02	 7.31914000E-03
					-5.25497000E-05	-1.80295000E-02	-1.49457000E-04
					 1.55510000E-03	-1.83066000E-02	 7.28371000E-03
					-4.50838000E-05	-1.06185000E-02	-9.57534000E-05
					 8.64740000E-04	-1.72514000E-02	 3.60918000E-03
					 1.60147000E-03	-1.08776000E-02	 5.85129000E-03
					-1.88655000E-03	-1.73299000E-02	-7.60336000E-03
					-1.66716000E-03	-1.81943000E-02	-7.58984000E-03
					-1.69316000E-03	-1.08009000E-02	-6.05130000E-03
					-9.68050000E-04	-1.71914000E-02	-3.88807000E-03
					-4.90581000E-05	-3.87285000E-02	-3.87735000E-04
					 1.70881000E-03	-3.89848000E-02	 9.72296000E-03
					-4.73779000E-05	-3.67940000E-02	-3.40730000E-04
					 2.04852000E-03	-3.70639000E-02	 9.78735000E-03
					-5.22448000E-05	-2.85586000E-02	-2.66754000E-04
					 8.33043000E-04	-3.88114000E-02	 4.54916000E-03
					 1.20861000E-03	-2.88128000E-02	 8.60568000E-03
					-4.87741000E-05	-3.78022000E-02	-3.65243000E-04
					 1.87746000E-03	-3.80702000E-02	 9.83886000E-03
					-5.28353000E-05	-2.70834000E-02	-2.37991000E-04
					 1.00066000E-03	-3.68857000E-02	 4.68764000E-03
					 1.61907000E-03	-2.73556000E-02	 8.64690000E-03
					-1.81332000E-03	-3.87843000E-02	-1.05016000E-02
					-2.15050000E-03	-3.68524000E-02	-1.04728000E-02
					-1.31929000E-03	-2.86670000E-02	-9.14426000E-03
					-9.32877000E-04	-3.87165000E-02	-5.32488000E-03
					-1.98174000E-03	-3.78606000E-02	-1.05733000E-02
					-1.73261000E-03	-2.71996000E-02	-9.12816000E-03
					-1.09755000E-03	-3.67815000E-02	-5.36994000E-03
					-4.28185000E-05	-3.45313000E-02	-2.87296000E-04
					 2.37990000E-03	-3.48102000E-02	 9.82066000E-03
					-4.52772000E-05	-3.57051000E-02	-3.14737000E-04
					 2.21373000E-03	-3.59770000E-02	 9.73981000E-03
					-4.96896000E-05	-2.52101000E-02	-2.02461000E-04
					 1.16976000E-03	-3.46299000E-02	 4.79624000E-03
					 2.01287000E-03	-2.54966000E-02	 8.67009000E-03
					-2.47257000E-03	-3.45872000E-02	-1.04001000E-02
					-2.31203000E-03	-3.57627000E-02	-1.03740000E-02
					-2.12179000E-03	-2.53255000E-02	-9.08027000E-03
					-1.25696000E-03	-3.45164000E-02	-5.37164000E-03
					-3.26196000E-05	-6.24948000E-02	-6.92060000E-04
					 3.07477000E-03	-6.27035000E-02	 1.09385000E-02
					-2.63110000E-05	-5.93282000E-02	-6.02925000E-04
					 3.20329000E-03	-5.95384000E-02	 1.10465000E-02
					-4.32320000E-05	-5.02069000E-02	-5.32282000E-04
					 1.52028000E-03	-6.25820000E-02	 4.99024000E-03
					 2.36740000E-03	-5.04414000E-02	 1.04986000E-02
					-2.89696000E-05	-6.09262000E-02	-6.47192000E-04
					 3.13940000E-03	-6.11370000E-02	 1.10903000E-02
					-3.92351000E-05	-4.76760000E-02	-4.63630000E-04
					 1.58894000E-03	-5.94193000E-02	 5.18382000E-03
					 2.60317000E-03	-4.79192000E-02	 1.05903000E-02
					-3.14848000E-03	-6.24181000E-02	-1.23226000E-02
					-3.25889000E-03	-5.92423000E-02	-1.22532000E-02
					-2.46123000E-03	-5.01940000E-02	-1.15652000E-02
					-1.58818000E-03	-6.24457000E-02	-6.37399000E-03
					-3.20416000E-03	-6.08403000E-02	-1.23851000E-02
					-2.68678000E-03	-4.76600000E-02	-1.15208000E-02
					-1.64262000E-03	-5.92718000E-02	-6.38967000E-03
					-1.86950000E-05	-5.60359000E-02	-5.13101000E-04
					 3.33543000E-03	-5.62475000E-02	 1.11164000E-02
					-2.32453000E-05	-5.76966000E-02	-5.58693000E-04
					 3.26882000E-03	-5.79057000E-02	 1.10053000E-02
					-3.30207000E-05	-4.49177000E-02	-3.91679000E-04
					 1.65899000E-03	-5.61285000E-02	 5.34086000E-03
					 2.83630000E-03	-4.51661000E-02	 1.06365000E-02
					-3.36994000E-03	-5.59531000E-02	-1.21444000E-02
					-3.31441000E-03	-5.76127000E-02	-1.21244000E-02
					-2.90441000E-03	-4.49022000E-02	-1.14243000E-02
					-1.69572000E-03	-5.59793000E-02	-6.36700000E-03
					-1.58198000E-05	-8.76324000E-02	-1.00773000E-03
					 4.22489000E-03	-8.78200000E-02	 1.10374000E-02
					-2.23411000E-06	-8.33820000E-02	-8.95867000E-04
					 4.26739000E-03	-8.35688000E-02	 1.11517000E-02
					-2.10230000E-05	-7.50593000E-02	-8.51607000E-04
					 2.10447000E-03	-8.77216000E-02	 4.94453000E-03
					 3.70717000E-03	-7.52594000E-02	 1.10568000E-02
					-7.84123000E-06	-8.55101000E-02	-9.52267000E-04
					 4.24711000E-03	-8.56983000E-02	 1.11598000E-02
					-1.10429000E-05	-7.13088000E-02	-7.49294000E-04
					 2.13404000E-03	-8.34734000E-02	 5.12315000E-03
					 3.77145000E-03	-7.15055000E-02	 1.11693000E-02
					-4.26733000E-03	-8.74930000E-02	-1.30508000E-02
					-4.27293000E-03	-8.32312000E-02	-1.29413000E-02
					-3.75835000E-03	-7.49489000E-02	-1.27590000E-02
					-2.13898000E-03	-8.75615000E-02	-6.95907000E-03
					-4.27065000E-03	-8.53604000E-02	-1.30623000E-02
					-3.79503000E-03	-7.11860000E-02	-1.26670000E-02
					-2.13892000E-03	-8.33024000E-02	-6.91436000E-03
					 1.04727000E-05	-7.90997000E-02	-7.86081000E-04
					 4.32004000E-03	-7.92794000E-02	 1.12587000E-02
					 3.17776000E-06	-8.12447000E-02	-8.40187000E-04
					 4.29341000E-03	-8.14276000E-02	 1.11399000E-02
					-1.21276000E-06	-6.74980000E-02	-6.47308000E-04
					 2.16492000E-03	-7.91881000E-02	 5.29696000E-03
					 3.84594000E-03	-6.76907000E-02	 1.12613000E-02
					-4.28983000E-03	-7.89513000E-02	-1.28289000E-02
					-4.28123000E-03	-8.10957000E-02	-1.28186000E-02
					-3.84150000E-03	-6.73783000E-02	-1.25553000E-02
					-2.14149000E-03	-7.90202000E-02	-6.86850000E-03
					-7.28983000E-06	-1.12763000E-01	-1.32215000E-03
					 4.99200000E-03	-1.12962000E-01	 1.09353000E-02
					 9.40716000E-06	-1.07762000E-01	-1.19226000E-03
					 5.03024000E-03	-1.07957000E-01	 1.10587000E-02
					-1.31789000E-05	-1.00181000E-01	-1.16549000E-03
					 2.49382000E-03	-1.12859000E-01	 4.75829000E-03
					 4.64444000E-03	-1.00373000E-01	 1.09939000E-02
					 2.87861000E-06	-1.10264000E-01	-1.25682000E-03
					 5.01294000E-03	-1.10462000E-01	 1.10414000E-02
					 1.12663000E-06	-9.55142000E-02	-1.04260000E-03
					 2.52273000E-03	-1.07858000E-01	 4.92518000E-03
					 4.68903000E-03	-9.57067000E-02	 1.11148000E-02
					-5.01504000E-03	-1.12602000E-01	-1.35813000E-02
					-5.00813000E-03	-1.07590000E-01	-1.34450000E-02
					-4.68287000E-03	-1.00031000E-01	-1.33227000E-02
					-2.51058000E-03	-1.12679000E-01	-7.40406000E-03
					-5.01138000E-03	-1.10094000E-01	-1.35560000E-02
					-4.68658000E-03	-9.53520000E-02	-1.31987000E-02
					-2.50265000E-03	-1.07671000E-01	-7.31033000E-03
					 2.77979000E-05	-1.02738000E-01	-1.05740000E-03
					 5.08329000E-03	-1.02919000E-01	 1.11827000E-02
					 1.61879000E-05	-1.05255000E-01	-1.12561000E-03
					 5.05646000E-03	-1.05444000E-01	 1.10789000E-02
					 1.61759000E-05	-9.08191000E-02	-9.21475000E-04
					 2.55434000E-03	-1.02826000E-01	 5.09284000E-03
					 4.74544000E-03	-9.10010000E-02	 1.12335000E-02
					-5.01435000E-03	-1.02565000E-01	-1.32991000E-02
					-5.01361000E-03	-1.05083000E-01	-1.33318000E-02
					-4.70190000E-03	-9.06571000E-02	-1.30761000E-02
					-2.49485000E-03	-1.02648000E-01	-7.20811000E-03
					-5.54330000E-06	-1.37725000E-01	-1.61863000E-03
					 5.28415000E-03	-1.37919000E-01	 1.07113000E-02
					 3.09248000E-05	-1.32414000E-01	-1.49099000E-03
					 5.31503000E-03	-1.32592000E-01	 1.08103000E-02
					-1.99322000E-06	-1.25308000E-01	-1.47078000E-03
					 2.63276000E-03	-1.37823000E-01	 4.54445000E-03
					 5.22103000E-03	-1.25509000E-01	 1.08416000E-02
					 1.21627000E-05	-1.35077000E-01	-1.55636000E-03
					 5.29859000E-03	-1.35258000E-01	 1.07652000E-02
					 2.22208000E-05	-1.20088000E-01	-1.34241000E-03
					 2.66694000E-03	-1.32504000E-01	 4.65843000E-03
					 5.25272000E-03	-1.20276000E-01	 1.09511000E-02
					-5.29576000E-03	-1.37568000E-01	-1.39656000E-02
					-5.25341000E-03	-1.32240000E-01	-1.38047000E-02
					-5.22741000E-03	-1.25141000E-01	-1.37946000E-02
					-2.64503000E-03	-1.37648000E-01	-7.78662000E-03
					-5.27533000E-03	-1.34907000E-01	-1.38936000E-02
					-5.20650000E-03	-1.19909000E-01	-1.36439000E-02
					-2.60495000E-03	-1.32328000E-01	-7.64385000E-03
					 6.62510000E-05	-1.27099000E-01	-1.34580000E-03
					 5.35666000E-03	-1.27265000E-01	 1.09233000E-02
					 4.95609000E-05	-1.29749000E-01	-1.42050000E-03
					 5.33788000E-03	-1.29925000E-01	 1.08612000E-02
					 4.65196000E-05	-1.14857000E-01	-1.19903000E-03
					 2.70583000E-03	-1.27182000E-01	 4.78592000E-03
					 5.29406000E-03	-1.15029000E-01	 1.10712000E-02
					-5.22233000E-03	-1.26910000E-01	-1.36209000E-02
					-5.23775000E-03	-1.29571000E-01	-1.37097000E-02
					-5.19303000E-03	-1.14671000E-01	-1.34733000E-02
					-2.57234000E-03	-1.27005000E-01	-7.47973000E-03
					 0.00000000E+00	 0.00000000E+00	 0.00000000E+00
					 0.00000000E+00	 0.00000000E+00	 0.00000000E+00
					 7.84133000E-05	-8.23134000E-03	-4.69923000E-06
					-1.42671000E-03	-8.69373000E-03	 7.60281000E-03
					 0.00000000E+00	 0.00000000E+00	 0.00000000E+00
					 0.00000000E+00	 0.00000000E+00	 0.00000000E+00
					 9.11740000E-05	-9.26465000E-03	 4.92636000E-05
					-4.96141000E-04	-9.77508000E-03	 7.75678000E-03
					 0.00000000E+00	 0.00000000E+00	 0.00000000E+00
					 1.98853000E-05	-1.90999000E-03	 9.54701000E-06
					-6.72817000E-04	-8.29324000E-03	 3.72676000E-03
					-1.38625000E-03	-2.58661000E-03	 3.98659000E-03
					 0.00000000E+00	 0.00000000E+00	 0.00000000E+00
					 0.00000000E+00	 0.00000000E+00	 0.00000000E+00
					 8.41128000E-05	-8.90854000E-03	 2.23635000E-05
					-9.55354000E-04	-9.39485000E-03	 7.63046000E-03
					 0.00000000E+00	 0.00000000E+00	 0.00000000E+00
					 2.77607000E-05	-2.67315000E-03	 3.32706000E-05
					-2.01170000E-04	-9.34392000E-03	 3.77325000E-03
					-2.34515000E-04	-3.36030000E-03	 3.91513000E-03
					 0.00000000E+00	 0.00000000E+00	 0.00000000E+00
					 1.56307000E-03	-8.55142000E-03	-7.63211000E-03
					 0.00000000E+00	 0.00000000E+00	 0.00000000E+00
					 6.66341000E-04	-9.60604000E-03	-7.68291000E-03
					 0.00000000E+00	 0.00000000E+00	 0.00000000E+00
					 1.40875000E-03	-2.52553000E-03	-3.97423000E-03
					 8.24467000E-04	-8.22356000E-03	-3.74276000E-03
					 0.00000000E+00	 0.00000000E+00	 0.00000000E+00
					 1.10778000E-03	-9.23723000E-03	-7.60769000E-03
					 0.00000000E+00	 0.00000000E+00	 0.00000000E+00
					 2.77914000E-04	-3.27827000E-03	-3.84932000E-03
					 3.79333000E-04	-9.26049000E-03	-3.68364000E-03
					 0.00000000E+00	 0.00000000E+00	 0.00000000E+00
					 0.00000000E+00	 0.00000000E+00	 0.00000000E+00
					 1.07790000E-04	-9.39654000E-03	 1.15312000E-04
					 4.42938000E-04	-9.87710000E-03	 7.72079000E-03
					 0.00000000E+00	 0.00000000E+00	 0.00000000E+00
					 0.00000000E+00	 0.00000000E+00	 0.00000000E+00
					 9.85076000E-05	-9.49127000E-03	 7.73606000E-05
					-3.43695000E-05	-9.98319000E-03	 7.80415000E-03
					 0.00000000E+00	 0.00000000E+00	 0.00000000E+00
					 4.42259000E-05	-2.42310000E-03	 7.30018000E-05
					 2.77496000E-04	-9.46747000E-03	 3.72428000E-03
					 9.49404000E-04	-3.09957000E-03	 4.05334000E-03
					 0.00000000E+00	 0.00000000E+00	 0.00000000E+00
					-2.35284000E-04	-9.69115000E-03	-7.51310000E-03
					 0.00000000E+00	 0.00000000E+00	 0.00000000E+00
					 2.19290000E-04	-9.80861000E-03	-7.67410000E-03
					 0.00000000E+00	 0.00000000E+00	 0.00000000E+00
					-8.69982000E-04	-2.99155000E-03	-3.90694000E-03
					-6.23321000E-05	-9.37661000E-03	-3.50107000E-03
					 2.69318000E-04	-2.98062000E-02	-1.76474000E-04
					-1.52858000E-03	-3.02391000E-02	 1.24684000E-02
					 2.81704000E-04	-3.13393000E-02	-1.11054000E-04
					-9.88210000E-04	-3.17729000E-02	 1.25781000E-02
					 1.70065000E-04	-1.77033000E-02	-6.35958000E-05
					-6.30800000E-04	-2.99676000E-02	 6.07425000E-03
					-1.52625000E-03	-1.82206000E-02	 1.04141000E-02
					 2.75228000E-04	-3.06278000E-02	-1.46983000E-04
					-1.25837000E-03	-3.10586000E-02	 1.25065000E-02
					 1.79048000E-04	-1.90216000E-02	 7.17246000E-07
					-3.47445000E-04	-3.15006000E-02	 6.14620000E-03
					-7.63308000E-04	-1.95439000E-02	 1.05259000E-02
					 2.06913000E-03	-2.98810000E-02	-1.28435000E-02
					 1.54652000E-03	-3.14205000E-02	-1.28223000E-02
					 1.85343000E-03	-1.79705000E-02	-1.05644000E-02
					 1.16898000E-03	-2.97907000E-02	-6.43374000E-03
					 1.80976000E-03	-3.07087000E-02	-1.28189000E-02
					 1.11408000E-03	-1.92829000E-02	-1.05511000E-02
					 9.13943000E-04	-3.13287000E-02	-6.37080000E-03
					 2.90655000E-04	-3.23472000E-02	-3.05370000E-05
					-4.24323000E-04	-3.27587000E-02	 1.26086000E-02
					 2.85846000E-04	-3.18963000E-02	-7.09192000E-05
					-7.05232000E-04	-3.23523000E-02	 1.26591000E-02
					 1.91055000E-04	-1.95885000E-02	 7.86743000E-05
					-7.29762000E-05	-3.24922000E-02	 6.13846000E-03
					 4.48940000E-06	-2.01122000E-02	 1.05508000E-02
					 1.02892000E-03	-3.24236000E-02	-1.26939000E-02
					 1.28654000E-03	-3.19773000E-02	-1.28280000E-02
					 3.86126000E-04	-1.98519000E-02	-1.04210000E-02
					 6.60407000E-04	-3.23321000E-02	-6.20075000E-03
					 5.18475000E-04	-5.84462000E-02	-5.48161000E-04
					-1.57514000E-03	-5.86997000E-02	 1.42371000E-02
					 5.33642000E-04	-6.04504000E-02	-4.60826000E-04
					-1.41758000E-03	-6.08055000E-02	 1.43582000E-02
					 3.84272000E-04	-4.36507000E-02	-3.40882000E-04
					-5.26215000E-04	-5.85532000E-02	 6.80376000E-03
					-1.52258000E-03	-4.40225000E-02	 1.36892000E-02
					 5.26418000E-04	-5.94703000E-02	-5.00247000E-04
					-1.49920000E-03	-5.97834000E-02	 1.42563000E-02
					 3.97248000E-04	-4.53978000E-02	-2.70172000E-04
					-4.65118000E-04	-6.06116000E-02	 6.85235000E-03
					-1.18722000E-03	-4.57750000E-02	 1.38070000E-02
					 2.57436000E-03	-5.82973000E-02	-1.53253000E-02
					 2.47842000E-03	-6.03047000E-02	-1.53048000E-02
					 2.28659000E-03	-4.36102000E-02	-1.43893000E-02
					 1.55070000E-03	-5.83584000E-02	-7.89067000E-03
					 2.52371000E-03	-5.93135000E-02	-1.52773000E-02
					 1.98343000E-03	-4.53471000E-02	-1.43653000E-02
					 1.50752000E-03	-6.03697000E-02	-7.79556000E-03
					 5.44255000E-04	-6.23329000E-02	-3.73087000E-04
					-1.34585000E-03	-6.28066000E-02	 1.44067000E-02
					 5.39821000E-04	-6.14212000E-02	-4.20450000E-04
					-1.38395000E-03	-6.17082000E-02	 1.44723000E-02
					 4.17798000E-04	-4.68216000E-02	-1.88836000E-04
					-3.68835000E-04	-6.25565000E-02	 6.82696000E-03
					-8.74402000E-04	-4.72256000E-02	 1.38415000E-02
					 2.38222000E-03	-6.22064000E-02	-1.52036000E-02
					 2.43028000E-03	-6.12658000E-02	-1.53383000E-02
					 1.66911000E-03	-4.67670000E-02	-1.42388000E-02
					 1.45630000E-03	-6.22705000E-02	-7.61891000E-03
					 8.92631000E-04	-8.79351000E-02	-9.74730000E-04
					-2.00123000E-03	-8.79809000E-02	 1.35137000E-02