# vtk DataFile Version 3.0

ASCII
DATASET UNSTRUCTURED_GRID

POINTS 522 double
	 1.00000000E+00	 1.00000000E+00	-5.96046000E-08
	 1.00000000E+00	 5.00000000E-01	-5.96046000E-08
	 1.00000000E+00	 5.00000000E-01	 1.00000000E+00
	 1.00000000E+00	 1.00000000E+00	 1.00000000E+00
	 5.00000000E-01	 1.00000000E+00	-5.96046000E-08
	 5.00000000E-01	 5.00000000E-01	-5.96046000E-08
	 5.00000000E-01	 5.00000000E-01	 1.00000000E+00
	 5.00000000E-01	 1.00000000E+00	 1.00000000E+00
	 1.00000000E+00	 7.50000000E-01	-5.96046000E-08
	 1.00000000E+00	 5.00000000E-01	 5.00000000E-01
	 1.00000000E+00	 7.50000000E-01	 1.00000000E+00
	 1.00000000E+00	 1.00000000E+00	 5.00000000E-01
	 7.50000000E-01	 1.00000000E+00	-5.96046000E-08
	 7.50000000E-01	 5.00000000E-01	-5.96046000E-08
	 7.50000000E-01	 5.00000000E-01	 1.00000000E+00
	 7.50000000E-01	 1.00000000E+00	 1.00000000E+00
	 5.00000000E-01	 7.50000000E-01	-5.96046000E-08
	 5.00000000E-01	 5.00000000E-01	 5.00000000E-01
	 5.00000000E-01	 7.50000000E-01	 1.00000000E+00
	 5.00000000E-01	 1.00000000E+00	 5.00000000E-01
	 1.00000000E+00	-1.49012000E-08	-5.96046000E-08
	 1.00000000E+00	-1.49012000E-08	 1.00000000E+00
	 5.00000000E-01	-1.49012000E-08	-5.96046000E-08
	 5.00000000E-01	-1.49012000E-08	 1.00000000E+00
	 1.00000000E+00	 2.50000000E-01	-5.96046000E-08
	 1.00000000E+00	-1.49012000E-08	 5.00000000E-01
	 1.00000000E+00	 2.50000000E-01	 1.00000000E+00
	 7.50000000E-01	-1.49012000E-08	-5.96046000E-08
	 7.50000000E-01	-1.49012000E-08	 1.00000000E+00
	 5.00000000E-01	 2.50000000E-01	-5.96046000E-08
	 5.00000000E-01	-1.49012000E-08	 5.00000000E-01
	 5.00000000E-01	 2.50000000E-01	 1.00000000E+00
	-7.45058000E-09	 1.00000000E+00	-5.96046000E-08
	-7.45058000E-09	 5.00000000E-01	-5.96046000E-08
	-7.45058000E-09	 5.00000000E-01	 1.00000000E+00
	-7.45058000E-09	 1.00000000E+00	 1.00000000E+00
	 2.50000000E-01	 1.00000000E+00	-5.96046000E-08
	 2.50000000E-01	 5.00000000E-01	-5.96046000E-08
	 2.50000000E-01	 5.00000000E-01	 1.00000000E+00
	 2.50000000E-01	 1.00000000E+00	 1.00000000E+00
	-7.45058000E-09	 7.50000000E-01	-5.96046000E-08
	-7.45058000E-09	 5.00000000E-01	 5.00000000E-01
	-7.45058000E-09	 7.50000000E-01	 1.00000000E+00
	-7.45058000E-09	 1.00000000E+00	 5.00000000E-01
	-7.45058000E-09	-1.49012000E-08	-5.96046000E-08
	-7.45058000E-09	-1.49012000E-08	 1.00000000E+00
	 2.50000000E-01	-1.49012000E-08	-5.96046000E-08
	 2.50000000E-01	-1.49012000E-08	 1.00000000E+00
	-7.45058000E-09	 2.50000000E-01	-5.96046000E-08
	-7.45058000E-09	-1.49012000E-08	 5.00000000E-01
	-7.45058000E-09	 2.50000000E-01	 1.00000000E+00
	 1.00000000E+00	 5.00000000E-01	 2.00000000E+00
	 1.00000000E+00	 1.00000000E+00	 2.00000000E+00
	 5.00000000E-01	 5.00000000E-01	 2.00000000E+00
	 5.00000000E-01	 1.00000000E+00	 2.00000000E+00
	 1.00000000E+00	 5.00000000E-01	 1.50000000E+00
	 1.00000000E+00	 7.50000000E-01	 2.00000000E+00
	 1.00000000E+00	 1.00000000E+00	 1.50000000E+00
	 7.50000000E-01	 5.00000000E-01	 2.00000000E+00
	 7.50000000E-01	 1.00000000E+00	 2.00000000E+00
	 5.00000000E-01	 5.00000000E-01	 1.50000000E+00
	 5.00000000E-01	 7.50000000E-01	 2.00000000E+00
	 5.00000000E-01	 1.00000000E+00	 1.50000000E+00
	 1.00000000E+00	-1.49012000E-08	 2.00000000E+00
	 5.00000000E-01	-1.49012000E-08	 2.00000000E+00
	 1.00000000E+00	-1.49012000E-08	 1.50000000E+00
	 1.00000000E+00	 2.50000000E-01	 2.00000000E+00
	 7.50000000E-01	-1.49012000E-08	 2.00000000E+00
	 5.00000000E-01	-1.49012000E-08	 1.50000000E+00
	 5.00000000E-01	 2.50000000E-01	 2.00000000E+00
	-7.45058000E-09	 5.00000000E-01	 2.00000000E+00
	-7.45058000E-09	 1.00000000E+00	 2.00000000E+00
	 2.50000000E-01	 5.00000000E-01	 2.00000000E+00
	 2.50000000E-01	 1.00000000E+00	 2.00000000E+00
	-7.45058000E-09	 5.00000000E-01	 1.50000000E+00
	-7.45058000E-09	 7.50000000E-01	 2.00000000E+00
	-7.45058000E-09	 1.00000000E+00	 1.50000000E+00
	-7.45058000E-09	-1.49012000E-08	 2.00000000E+00
	 2.50000000E-01	-1.49012000E-08	 2.00000000E+00
	-7.45058000E-09	-1.49012000E-08	 1.50000000E+00
	-7.45058000E-09	 2.50000000E-01	 2.00000000E+00
	 1.00000000E+00	 5.00000000E-01	 3.00000000E+00
	 1.00000000E+00	 1.00000000E+00	 3.00000000E+00
	 5.00000000E-01	 5.00000000E-01	 3.00000000E+00
	 5.00000000E-01	 1.00000000E+00	 3.00000000E+00
	 1.00000000E+00	 5.00000000E-01	 2.50000000E+00
	 1.00000000E+00	 7.50000000E-01	 3.00000000E+00
	 1.00000000E+00	 1.00000000E+00	 2.50000000E+00
	 7.50000000E-01	 5.00000000E-01	 3.00000000E+00
	 7.50000000E-01	 1.00000000E+00	 3.00000000E+00
	 5.00000000E-01	 5.00000000E-01	 2.50000000E+00
	 5.00000000E-01	 7.50000000E-01	 3.00000000E+00
	 5.00000000E-01	 1.00000000E+00	 2.50000000E+00
	 1.00000000E+00	-1.49012000E-08	 3.00000000E+00
	 5.00000000E-01	-1.49012000E-08	 3.00000000E+00
	 1.00000000E+00	-1.49012000E-08	 2.50000000E+00
	 1.00000000E+00	 2.50000000E-01	 3.00000000E+00
	 7.50000000E-01	-1.49012000E-08	 3.00000000E+00
	 5.00000000E-01	-1.49012000E-08	 2.50000000E+00
	 5.00000000E-01	 2.50000000E-01	 3.00000000E+00
	-7.45058000E-09	 5.00000000E-01	 3.00000000E+00
	-7.45058000E-09	 1.00000000E+00	 3.00000000E+00
	 2.50000000E-01	 5.00000000E-01	 3.00000000E+00
	 2.50000000E-01	 1.00000000E+00	 3.00000000E+00
	-7.45058000E-09	 5.00000000E-01	 2.50000000E+00
	-7.45058000E-09	 7.50000000E-01	 3.00000000E+00
	-7.45058000E-09	 1.00000000E+00	 2.50000000E+00
	-7.45058000E-09	-1.49012000E-08	 3.00000000E+00
	 2.50000000E-01	-1.49012000E-08	 3.00000000E+00
	-7.45058000E-09	-1.49012000E-08	 2.50000000E+00
	-7.45058000E-09	 2.50000000E-01	 3.00000000E+00
	 1.00000000E+00	 5.00000000E-01	 4.00000000E+00
	 1.00000000E+00	 1.00000000E+00	 4.00000000E+00
	 5.00000000E-01	 5.00000000E-01	 4.00000000E+00
	 5.00000000E-01	 1.00000000E+00	 4.00000000E+00
	 1.00000000E+00	 5.00000000E-01	 3.50000000E+00
	 1.00000000E+00	 7.50000000E-01	 4.00000000E+00
	 1.00000000E+00	 1.00000000E+00	 3.50000000E+00
	 7.50000000E-01	 5.00000000E-01	 4.00000000E+00
	 7.50000000E-01	 1.00000000E+00	 4.00000000E+00
	 5.00000000E-01	 5.00000000E-01	 3.50000000E+00
	 5.00000000E-01	 7.50000000E-01	 4.00000000E+00
	 5.00000000E-01	 1.00000000E+00	 3.50000000E+00
	 1.00000000E+00	-1.49012000E-08	 4.00000000E+00
	 5.00000000E-01	-1.49012000E-08	 4.00000000E+00
	 1.00000000E+00	-1.49012000E-08	 3.50000000E+00
	 1.00000000E+00	 2.50000000E-01	 4.00000000E+00
	 7.50000000E-01	-1.49012000E-08	 4.00000000E+00
	 5.00000000E-01	-1.49012000E-08	 3.50000000E+00
	 5.00000000E-01	 2.50000000E-01	 4.00000000E+00
	-7.45058000E-09	 5.00000000E-01	 4.00000000E+00
	-7.45058000E-09	 1.00000000E+00	 4.00000000E+00
	 2.50000000E-01	 5.00000000E-01	 4.00000000E+00
	 2.50000000E-01	 1.00000000E+00	 4.00000000E+00
	-7.45058000E-09	 5.00000000E-01	 3.50000000E+00
	-7.45058000E-09	 7.50000000E-01	 4.00000000E+00
	-7.45058000E-09	 1.00000000E+00	 3.50000000E+00
	-7.45058000E-09	-1.49012000E-08	 4.00000000E+00
	 2.50000000E-01	-1.49012000E-08	 4.00000000E+00
	-7.45058000E-09	-1.49012000E-08	 3.50000000E+00
	-7.45058000E-09	 2.50000000E-01	 4.00000000E+00
	 1.00000000E+00	 5.00000000E-01	 5.00000000E+00
	 1.00000000E+00	 1.00000000E+00	 5.00000000E+00
	 5.00000000E-01	 5.00000000E-01	 5.00000000E+00
	 5.00000000E-01	 1.00000000E+00	 5.00000000E+00
	 1.00000000E+00	 5.00000000E-01	 4.50000000E+00
	 1.00000000E+00	 7.50000000E-01	 5.00000000E+00
	 1.00000000E+00	 1.00000000E+00	 4.50000000E+00
	 7.50000000E-01	 5.00000000E-01	 5.00000000E+00
	 7.50000000E-01	 1.00000000E+00	 5.00000000E+00
	 5.00000000E-01	 5.00000000E-01	 4.50000000E+00
	 5.00000000E-01	 7.50000000E-01	 5.00000000E+00
	 5.00000000E-01	 1.00000000E+00	 4.50000000E+00
	 1.00000000E+00	-1.49012000E-08	 5.00000000E+00
	 5.00000000E-01	-1.49012000E-08	 5.00000000E+00
	 1.00000000E+00	-1.49012000E-08	 4.50000000E+00
	 1.00000000E+00	 2.50000000E-01	 5.00000000E+00
	 7.50000000E-01	-1.49012000E-08	 5.00000000E+00
	 5.00000000E-01	-1.49012000E-08	 4.50000000E+00
	 5.00000000E-01	 2.50000000E-01	 5.00000000E+00
	-7.45058000E-09	 5.00000000E-01	 5.00000000E+00
	-7.45058000E-09	 1.00000000E+00	 5.00000000E+00
	 2.50000000E-01	 5.00000000E-01	 5.00000000E+00
	 2.50000000E-01	 1.00000000E+00	 5.00000000E+00
	-7.45058000E-09	 5.00000000E-01	 4.50000000E+00
	-7.45058000E-09	 7.50000000E-01	 5.00000000E+00
	-7.45058000E-09	 1.00000000E+00	 4.50000000E+00
	-7.45058000E-09	-1.49012000E-08	 5.00000000E+00
	 2.50000000E-01	-1.49012000E-08	 5.00000000E+00
	-7.45058000E-09	-1.49012000E-08	 4.50000000E+00
	-7.45058000E-09	 2.50000000E-01	 5.00000000E+00
	 1.00000000E+00	 5.00000000E-01	 6.00000000E+00
	 1.00000000E+00	 1.00000000E+00	 6.00000000E+00
	 5.00000000E-01	 5.00000000E-01	 6.00000000E+00
	 5.00000000E-01	 1.00000000E+00	 6.00000000E+00
	 1.00000000E+00	 5.00000000E-01	 5.50000000E+00
	 1.00000000E+00	 7.50000000E-01	 6.00000000E+00
	 1.00000000E+00	 1.00000000E+00	 5.50000000E+00
	 7.50000000E-01	 5.00000000E-01	 6.00000000E+00
	 7.50000000E-01	 1.00000000E+00	 6.00000000E+00
	 5.00000000E-01	 5.00000000E-01	 5.50000000E+00
	 5.00000000E-01	 7.50000000E-01	 6.00000000E+00
	 5.00000000E-01	 1.00000000E+00	 5.50000000E+00
	 1.00000000E+00	-1.49012000E-08	 6.00000000E+00
	 5.00000000E-01	-1.49012000E-08	 6.00000000E+00
	 1.00000000E+00	-1.49012000E-08	 5.50000000E+00
	 1.00000000E+00	 2.50000000E-01	 6.00000000E+00
	 7.50000000E-01	-1.49012000E-08	 6.00000000E+00
	 5.00000000E-01	-1.49012000E-08	 5.50000000E+00
	 5.00000000E-01	 2.50000000E-01	 6.00000000E+00
	-7.45058000E-09	 5.00000000E-01	 6.00000000E+00
	-7.45058000E-09	 1.00000000E+00	 6.00000000E+00
	 2.50000000E-01	 5.00000000E-01	 6.00000000E+00
	 2.50000000E-01	 1.00000000E+00	 6.00000000E+00
	-7.45058000E-09	 5.00000000E-01	 5.50000000E+00
	-7.45058000E-09	 7.50000000E-01	 6.00000000E+00
	-7.45058000E-09	 1.00000000E+00	 5.50000000E+00
	-7.45058000E-09	-1.49012000E-08	 6.00000000E+00
	 2.50000000E-01	-1.49012000E-08	 6.00000000E+00
	-7.45058000E-09	-1.49012000E-08	 5.50000000E+00
	-7.45058000E-09	 2.50000000E-01	 6.00000000E+00
	 1.00000000E+00	 5.00000000E-01	 7.00000000E+00
[...]
POINT_DATA 522
FIELD U 1
	U 3 522 double
		 0.00000000E+00	 0.00000000E+00	 0.00000000E+00
		 0.00000000E+00	 0.00000000E+00	 0.00000000E+00
		-2.59613000E-06	-3.78604000E-03	-3.17021000E-05
		 9.25499000E-04	-3.96255000E-03	 2.68226000E-03
		 0.00000000E+00	 0.00000000E+00	 0.00000000E+00
		 0.00000000E+00	 0.00000000E+00	 0.00000000E+00
		-1.00767000E-05	-2.64544000E-03	-2.59851000E-05
		 1.33689000E-03	-2.84176000E-03	 2.71212000E-03
		 0.00000000E+00	 0.00000000E+00	 0.00000000E+00
		 6.07037000E-06	-1.06223000E-03	-1.00876000E-05
		 4.64566000E-04	-3.80621000E-03	 1.19606000E-03
		 2.24087000E-04	-1.26033000E-03	 1.29152000E-03
		 0.00000000E+00	 0.00000000E+00	 0.00000000E+00
		 0.00000000E+00	 0.00000000E+00	 0.00000000E+00
		-5.30595000E-06	-3.27929000E-03	-3.17353000E-05
		 1.13143000E-03	-3.47077000E-03	 2.81277000E-03
		 0.00000000E+00	 0.00000000E+00	 0.00000000E+00
		-1.00800000E-06	-5.81800000E-04	-4.70713000E-06
		 6.62714000E-04	-2.67567000E-03	 1.33129000E-03
		 6.63598000E-04	-8.16780000E-04	 1.25211000E-03
		 0.00000000E+00	 0.00000000E+00	 0.00000000E+00
		-9.36423000E-04	-3.95720000E-03	-2.74745000E-03
		 0.00000000E+00	 0.00000000E+00	 0.00000000E+00
		-1.35741000E-03	-2.83300000E-03	-2.77152000E-03
		 0.00000000E+00	 0.00000000E+00	 0.00000000E+00
		-2.31948000E-04	-1.27074000E-03	-1.31789000E-03
		-4.71096000E-04	-3.80582000E-03	-1.26100000E-03
		 0.00000000E+00	 0.00000000E+00	 0.00000000E+00
		-1.14528000E-03	-3.46105000E-03	-2.87767000E-03
		 0.00000000E+00	 0.00000000E+00	 0.00000000E+00
		-6.83219000E-04	-8.05484000E-04	-1.26860000E-03
		-6.82562000E-04	-2.67154000E-03	-1.38518000E-03
		 0.00000000E+00	 0.00000000E+00	 0.00000000E+00
		 0.00000000E+00	 0.00000000E+00	 0.00000000E+00
		-1.64650000E-05	-1.09564000E-03	-1.05147000E-05
		 1.73762000E-03	-1.28633000E-03	 2.70279000E-03
		 0.00000000E+00	 0.00000000E+00	 0.00000000E+00
		 0.00000000E+00	 0.00000000E+00	 0.00000000E+00
		-1.43940000E-05	-1.93735000E-03	-1.71259000E-05
		 1.53544000E-03	-2.12688000E-03	 2.58394000E-03
		 0.00000000E+00	 0.00000000E+00	 0.00000000E+00
		-8.85807000E-06	 2.90554000E-04	-1.03573000E-06
		 8.63289000E-04	-1.12597000E-03	 1.45940000E-03
		 1.05084000E-03	 2.13376000E-05	 1.30217000E-03
		 0.00000000E+00	 0.00000000E+00	 0.00000000E+00
		-1.76601000E-03	-1.27878000E-03	-2.73573000E-03
		 0.00000000E+00	 0.00000000E+00	 0.00000000E+00
		-1.56214000E-03	-2.11940000E-03	-2.63087000E-03
		 0.00000000E+00	 0.00000000E+00	 0.00000000E+00
		-1.08629000E-03	 5.04611000E-05	-1.31190000E-03
		-8.94008000E-04	-1.12115000E-03	-1.48227000E-03
		-1.88104000E-05	-1.31930000E-02	-1.10849000E-04
		 2.13663000E-03	-1.33984000E-02	 5.12669000E-03
		-1.43088000E-05	-1.08778000E-02	-8.75119000E-05
		 2.46816000E-03	-1.10769000E-02	 5.16230000E-03
		-1.59231000E-05	-7.90579000E-03	-6.64550000E-05
		 1.05575000E-03	-1.32580000E-02	 2.42654000E-03
		 1.59429000E-03	-8.12863000E-03	 3.97769000E-03
		-1.91908000E-05	-1.20760000E-02	-9.79959000E-05
		 2.30184000E-03	-1.22742000E-02	 5.21063000E-03
		-1.56752000E-05	-6.12802000E-03	-5.80652000E-05
		 1.22849000E-03	-1.09381000E-02	 2.52382000E-03
		 1.95842000E-03	-6.33312000E-03	 3.99937000E-03
		-2.16994000E-03	-1.33332000E-02	-5.35324000E-03
		-2.49460000E-03	-1.10122000E-02	-5.33930000E-03
		-1.61345000E-03	-8.08732000E-03	-4.10735000E-03
		-1.09309000E-03	-1.32240000E-02	-2.64717000E-03
		-2.33471000E-03	-1.22100000E-02	-5.41427000E-03
		-1.97933000E-03	-6.30300000E-03	-4.11396000E-03
		-1.25582000E-03	-1.09061000E-02	-2.69932000E-03
		-3.76819000E-06	-8.22807000E-03	-6.42085000E-05
		 2.82595000E-03	-8.41515000E-03	 5.18227000E-03
		-8.44750000E-06	-9.59030000E-03	-7.67124000E-05
		 2.64765000E-03	-9.78776000E-03	 5.12042000E-03
		-1.18041000E-05	-3.97143000E-03	-3.61167000E-05
		 1.40804000E-03	-8.28156000E-03	 2.59929000E-03
		 2.35306000E-03	-4.16071000E-03	 4.00988000E-03
		-2.83374000E-03	-8.34687000E-03	-5.30671000E-03
		-2.66485000E-03	-9.72294000E-03	-5.26835000E-03
		-2.36447000E-03	-4.14063000E-03	-4.08301000E-03
		-1.41481000E-03	-8.24717000E-03	-2.72907000E-03
		-3.32762000E-06	-2.66340000E-02	-2.57000000E-04
		 2.88606000E-03	-2.68086000E-02	 6.90916000E-03
		-5.00279000E-06	-2.36306000E-02	-2.01700000E-04
		 3.10609000E-03	-2.38073000E-02	 6.97239000E-03
		-1.19997000E-05	-1.95001000E-02	-1.73604000E-04
		 1.44110000E-03	-2.66903000E-02	 3.27917000E-03
		 2.57557000E-03	-1.96899000E-02	 6.09825000E-03
		-2.27289000E-06	-2.51616000E-02	-2.30678000E-04
		 2.99840000E-03	-2.53362000E-02	 6.97147000E-03
		-1.34771000E-05	-1.67673000E-02	-1.31279000E-04
		 1.55211000E-03	-2.36907000E-02	 3.36891000E-03
		 2.85158000E-03	-1.69576000E-02	 6.15946000E-03
		-2.91515000E-03	-2.67241000E-02	-7.42507000E-03
		-3.13174000E-03	-2.36950000E-02	-7.37953000E-03
		-2.61402000E-03	-1.96185000E-02	-6.45766000E-03
		-1.45326000E-03	-2.66537000E-02	-3.79419000E-03
		-3.02475000E-03	-2.52333000E-02	-7.43375000E-03
		-2.89247000E-03	-1.68677000E-02	-6.42983000E-03
		-1.56731000E-03	-2.36343000E-02	-3.77355000E-03
		-6.05605000E-06	-2.03983000E-02	-1.38268000E-04
		 3.34175000E-03	-2.05769000E-02	 7.02841000E-03
		-7.06359000E-06	-2.20421000E-02	-1.70335000E-04
		 3.22174000E-03	-2.22193000E-02	 6.97695000E-03
		-9.93243000E-06	-1.37545000E-02	-9.35254000E-05
		 1.66959000E-03	-2.04602000E-02	 3.45472000E-03
		 3.14584000E-03	-1.39500000E-02	 6.18952000E-03
		-3.36116000E-03	-2.04507000E-02	-7.31413000E-03
		-3.24625000E-03	-2.21002000E-02	-7.32700000E-03
		-3.18372000E-03	-1.38336000E-02	-6.37849000E-03
		-1.68352000E-03	-2.03947000E-02	-3.73217000E-03
		 1.40936000E-07	-4.24023000E-02	-4.07393000E-04
		 2.91548000E-03	-4.26391000E-02	 8.31175000E-03
		 1.03985000E-05	-3.93583000E-02	-3.48139000E-04
		 3.20448000E-03	-3.95801000E-02	 8.35605000E-03
		 2.69489000E-06	-3.43047000E-02	-3.34891000E-04
		 1.45394000E-03	-4.24893000E-02	 4.01352000E-03
		 3.00521000E-03	-3.45100000E-02	 7.57799000E-03
		 3.54164000E-06	-4.09173000E-02	-3.78855000E-04
		 3.05783000E-03	-4.11411000E-02	 8.30587000E-03
		 9.94695000E-06	-3.12005000E-02	-2.76545000E-04
		 1.60817000E-03	-3.94364000E-02	 4.04092000E-03
		 3.23381000E-03	-3.13958000E-02	 7.62551000E-03
		-2.90357000E-03	-4.24687000E-02	-9.13615000E-03
		-3.18444000E-03	-3.94168000E-02	-9.06032000E-03
		-3.00694000E-03	-3.43789000E-02	-8.24468000E-03
		-1.45045000E-03	-4.24000000E-02	-4.83240000E-03
		-3.04359000E-03	-4.09783000E-02	-9.07183000E-03
		-3.21811000E-03	-3.12533000E-02	-8.17714000E-03
		-1.58807000E-03	-3.93542000E-02	-4.73897000E-03
		 2.37505000E-05	-3.60135000E-02	-2.93271000E-04
		 3.51495000E-03	-3.62337000E-02	 8.42809000E-03
		 1.77700000E-05	-3.77207000E-02	-3.20387000E-04
		 3.36214000E-03	-3.79444000E-02	 8.39749000E-03
		 1.63976000E-05	-2.78545000E-02	-2.10960000E-04
		 1.76733000E-03	-3.60890000E-02	 4.09575000E-03
		 3.48260000E-03	-2.80417000E-02	 7.69842000E-03
		-3.47847000E-03	-3.60602000E-02	-9.01754000E-03
		-3.33375000E-03	-3.77760000E-02	-9.04251000E-03
		-3.44483000E-03	-2.79061000E-02	-8.12518000E-03
		-1.72581000E-03	-3.60025000E-02	-4.68297000E-03
		 2.75378000E-05	-6.13303000E-02	-6.39485000E-04
		 2.32692000E-03	-6.16488000E-02	 1.05254000E-02
		 2.34226000E-05	-5.88122000E-02	-5.77055000E-04
		 2.73374000E-03	-5.91463000E-02	 1.05914000E-02
		 9.53048000E-06	-5.12298000E-02	-5.08082000E-04
		 1.18230000E-03	-6.14351000E-02	 4.99563000E-03
		 2.65984000E-03	-5.15110000E-02	 9.33729000E-03
		 2.56265000E-05	-6.01236000E-02	-6.08155000E-04
		 2.53206000E-03	-6.04527000E-02	 1.05047000E-02
		 9.30736000E-06	-4.84012000E-02	-4.44158000E-04
		 1.37962000E-03	-5.89219000E-02	 5.00579000E-03
		 3.02227000E-03	-4.86776000E-02	 9.38964000E-03
		-2.28361000E-03	-6.14064000E-02	-1.18183000E-02
		-2.69259000E-03	-5.88912000E-02	-1.17559000E-02
		-2.63731000E-03	-5.13117000E-02	-1.03682000E-02
		-1.12968000E-03	-6.13119000E-02	-6.27875000E-03
		-2.48958000E-03	-6.02038000E-02	-1.17351000E-02
		-3.00190000E-03	-4.84803000E-02	-1.02922000E-02
		-1.33402000E-03	-5.87943000E-02	-6.16456000E-03
		 2.53426000E-05	-5.59052000E-02	-5.04076000E-04
		 3.14583000E-03	-5.62340000E-02	 1.06595000E-02
		 2.25651000E-05	-5.74109000E-02	-5.42930000E-04
		 2.93680000E-03	-5.77457000E-02	 1.06775000E-02
		 1.56577000E-05	-4.52075000E-02	-3.83669000E-04
		 1.58376000E-03	-5.60128000E-02	 5.02106000E-03
		 3.40617000E-03	-4.54766000E-02	 9.46406000E-03
		-3.10174000E-03	-5.59673000E-02	-1.16792000E-02
		-2.89734000E-03	-5.74841000E-02	-1.17739000E-02
		-3.37752000E-03	-4.52685000E-02	-1.02373000E-02
		-1.53352000E-03	-5.58814000E-02	-6.03418000E-03
		 5.01390000E-05	-8.61124000E-02	-9.97230000E-04
		 1.90649000E-03	-8.64148000E-02	 1.25194000E-02
		 5.20742000E-05	-8.41290000E-02	-9.21976000E-04
		 2.16062000E-03	-8.44362000E-02	 1.26166000E-02
		 3.55250000E-05	-7.30009000E-02	-8.02178000E-04
		 9.78679000E-04	-8.62317000E-02	 5.72239000E-03
		 2.04668000E-03	-7.33100000E-02	 1.16637000E-02
		 4.94964000E-05	-8.51511000E-02	-9.61325000E-04
		 2.03257000E-03	-8.54567000E-02	 1.25550000E-02
		 3.33557000E-05	-7.07952000E-02	-7.37200000E-04
		 1.10538000E-03	-8.42494000E-02	 5.79328000E-03
		 2.40507000E-03	-7.11258000E-02	 1.17476000E-02
		-1.79470000E-03	-8.60416000E-02	-1.45357000E-02
		-2.05000000E-03	-8.40699000E-02	-1.44903000E-02
		-1.98466000E-03	-7.30054000E-02	-1.32825000E-02
		-8.75100000E-04	-8.60442000E-02	-7.72619000E-03
		-1.92296000E-03	-8.50904000E-02	-1.44987000E-02
		-2.34501000E-03	-7.08030000E-02	-1.32373000E-02
		-9.98039000E-04	-8.40689000E-02	-7.64620000E-03
		 6.25966000E-05	-8.19041000E-02	-8.30178000E-04
		 2.40712000E-03	-8.22193000E-02	 1.26795000E-02
		 5.69791000E-05	-8.30486000E-02	-8.78381000E-04
		 2.28254000E-03	-8.33581000E-02	 1.26899000E-02
		 3.90653000E-05	-6.82528000E-02	-6.53703000E-04
		 1.23717000E-03	-8.20276000E-02	 5.82906000E-03
		 2.75651000E-03	-6.85891000E-02	 1.18068000E-02
		-2.28387000E-03	-8.18498000E-02	-1.43753000E-02
		-2.16670000E-03	-8.29888000E-02	-1.44810000E-02
		-2.69105000E-03	-6.82524000E-02	-1.31369000E-02
		-1.11161000E-03	-8.18489000E-02	-7.50131000E-03
		 9.17795000E-05	-1.14923000E-01	-1.45252000E-03
		 2.13353000E-03	-1.15134000E-01	 1.29110000E-02
		 1.11377000E-04	-1.12881000E-01	-1.36296000E-03
		 2.17512000E-03	-1.13085000E-01	 1.30284000E-02
		 7.35299000E-05	-1.00285000E-01	-1.21441000E-03
		 1.11001000E-03	-1.15021000E-01	 5.67509000E-03
		 1.95570000E-03	-1.00540000E-01	 1.28917000E-02
		 9.73530000E-05	-1.13906000E-01	-1.40870000E-03
		 2.14990000E-03	-1.14112000E-01	 1.29915000E-02
		 8.40244000E-05	-9.83446000E-02	-1.13602000E-03
		 1.14018000E-03	-1.12976000E-01	 5.80556000E-03
		 2.09404000E-03	-9.85968000E-02	 1.29957000E-02
		-1.93106000E-03	-1.14742000E-01	-1.57974000E-02
		-1.94662000E-03	-1.12709000E-01	-1.57350000E-02
		-1.78317000E-03	-1.00145000E-01	-1.53399000E-02
		-9.21087000E-04	-1.14838000E-01	-8.56802000E-03
		-1.94068000E-03	-1.13731000E-01	-1.57924000E-02
		-1.91531000E-03	-9.82290000E-02	-1.52900000E-02
		-9.15412000E-04	-1.12801000E-01	-8.52321000E-03
		 1.34412000E-04	-1.10798000E-01	-1.27533000E-03
		 2.21900000E-03	-1.11012000E-01	 1.31120000E-02
		 1.26229000E-04	-1.11841000E-01	-1.31944000E-03
		 2.19903000E-03	-1.12048000E-01	 1.30603000E-02
		 1.00198000E-04	-9.62709000E-02	-1.04331000E-03
		 1.17645000E-03	-1.10897000E-01	 5.90602000E-03
		 2.21950000E-03	-9.65368000E-02	 1.30635000E-02
		-1.95962000E-03	-1.10628000E-01	-1.56488000E-02
		-1.94926000E-03	-1.11671000E-01	-1.56845000E-02
		-2.02227000E-03	-9.61657000E-02	-1.51766000E-02
		-9.11418000E-04	-1.10717000E-01	-8.44896000E-03
		 2.28439000E-04	-1.43955000E-01	-1.91157000E-03
		 2.45181000E-03	-1.44210000E-01	 1.24566000E-02
		 1.75740000E-04	-1.41786000E-01	-1.77452000E-03
		 2.40809000E-03	-1.42056000E-01	 1.26340000E-02
		 1.38662000E-04	-1.29531000E-01	-1.69596000E-03
		 1.35239000E-03	-1.44091000E-01	 5.25949000E-03
		 2.30285000E-03	-1.29742000E-01	 1.27026000E-02
		 2.06230000E-04	-1.42856000E-01	-1.83213000E-03
		 2.43296000E-03	-1.43129000E-01	 1.25521000E-02
		 1.42376000E-04	-1.27377000E-01	-1.57494000E-03
		 1.30314000E-03	-1.41930000E-01	 5.42302000E-03
		 2.30597000E-03	-1.27599000E-01	 1.28567000E-02
		-2.03886000E-03	-1.43696000E-01	-1.61768000E-02
		-2.02379000E-03	-1.41518000E-01	-1.61013000E-02
		-2.04203000E-03	-1.29334000E-01	-1.60148000E-02
		-9.04547000E-04	-1.43821000E-01	-9.05273000E-03
		-2.03245000E-03	-1.42587000E-01	-1.61248000E-02
		-2.00194000E-03	-1.27171000E-01	-1.59404000E-02
		-9.38788000E-04	-1.41644000E-01	-8.95100000E-03
		 1.31238000E-04	-1.39629000E-01	-1.72732000E-03
		 2.39521000E-03	-1.39866000E-01	 1.27469000E-02
		 1.47157000E-04	-1.40717000E-01	-1.74166000E-03
		 2.39910000E-03	-1.40973000E-01	 1.26938000E-02
		 1.50932000E-04	-1.25227000E-01	-1.50650000E-03
		 1.26587000E-03	-1.39750000E-01	 5.51365000E-03
		 2.32918000E-03	-1.25436000E-01	 1.29585000E-02
		-2.02788000E-03	-1.39412000E-01	-1.60974000E-02
		-2.02608000E-03	-1.40459000E-01	-1.60959000E-02
		-1.98388000E-03	-1.25051000E-01	-1.59023000E-02
		-9.69680000E-04	-1.39520000E-01	-8.92978000E-03
		 0.00000000E+00	 0.00000000E+00	 0.00000000E+00
		 0.00000000E+00	 0.00000000E+00	 0.00000000E+00
		 8.23808000E-05	-1.19313000E-02	-1.92451000E-04
		-3.86805000E-03	-1.29003000E-02	 1.30166000E-02
		 0.00000000E+00	 0.00000000E+00	 0.00000000E+00
		 0.00000000E+00	 0.00000000E+00	 0.00000000E+00
		 7.38164000E-05	-1.50002000E-02	-2.40149000E-04
		-2.15936000E-03	-1.60191000E-02	 1.31060000E-02
		 0.00000000E+00	 0.00000000E+00	 0.00000000E+00
		 6.40592000E-05	-2.09245000E-03	-6.79853000E-05
		-1.89802000E-03	-1.21153000E-02	 6.46573000E-03
		-3.01368000E-03	-3.30977000E-03	 6.64827000E-03
		 0.00000000E+00	 0.00000000E+00	 0.00000000E+00
		 0.00000000E+00	 0.00000000E+00	 0.00000000E+00
		 8.16391000E-05	-1.37572000E-02	-2.23616000E-04
		-2.99367000E-03	-1.47444000E-02	 1.28594000E-02
		 0.00000000E+00	 0.00000000E+00	 0.00000000E+00
		 3.43210000E-05	-4.08393000E-03	-7.47398000E-05
		-1.04288000E-03	-1.51928000E-02	 6.28083000E-03
		-1.08604000E-03	-5.28217000E-03	 6.46318000E-03
		 0.00000000E+00	 0.00000000E+00	 0.00000000E+00
		 4.00503000E-03	-1.24929000E-02	-1.34574000E-02
		 0.00000000E+00	 0.00000000E+00	 0.00000000E+00
		 2.31675000E-03	-1.56146000E-02	-1.36524000E-02
		 0.00000000E+00	 0.00000000E+00	 0.00000000E+00
		 3.10235000E-03	-3.19235000E-03	-6.81641000E-03
		 2.05389000E-03	-1.19052000E-02	-6.87321000E-03
		 0.00000000E+00	 0.00000000E+00	 0.00000000E+00
		 3.15174000E-03	-1.43373000E-02	-1.33577000E-02
		 0.00000000E+00	 0.00000000E+00	 0.00000000E+00
		 1.13831000E-03	-5.14964000E-03	-6.63404000E-03
		 1.19282000E-03	-1.49906000E-02	-6.78264000E-03
		 0.00000000E+00	 0.00000000E+00	 0.00000000E+00
		 0.00000000E+00	 0.00000000E+00	 0.00000000E+00
		 5.45212000E-05	-1.64024000E-02	-2.21104000E-04
		-4.44769000E-04	-1.73354000E-02	 1.29822000E-02
		 0.00000000E+00	 0.00000000E+00	 0.00000000E+00
		 0.00000000E+00	 0.00000000E+00	 0.00000000E+00
		 6.37433000E-05	-1.59884000E-02	-2.40847000E-04
		-1.31725000E-03	-1.69692000E-02	 1.32311000E-02
		 0.00000000E+00	 0.00000000E+00	 0.00000000E+00
		-1.01940000E-06	-4.32455000E-03	-5.46101000E-05
		-1.96532000E-04	-1.65583000E-02	 6.03809000E-03
		 9.14748000E-04	-5.47624000E-03	 6.66304000E-03
		 0.00000000E+00	 0.00000000E+00	 0.00000000E+00
		 5.93814000E-04	-1.69601000E-02	-1.34835000E-02
		 0.00000000E+00	 0.00000000E+00	 0.00000000E+00
		 1.46458000E-03	-1.65705000E-02	-1.37859000E-02
		 0.00000000E+00	 0.00000000E+00	 0.00000000E+00
		-9.19257000E-04	-5.32241000E-03	-6.79571000E-03
		 3.22089000E-04	-1.63819000E-02	-6.49185000E-03
		 1.94733000E-04	-4.91132000E-02	-8.88571000E-04
		-5.38316000E-03	-5.03672000E-02	 2.28091000E-02
		 2.27793000E-04	-5.40136000E-02	-1.03491000E-03
		-4.00856000E-03	-5.52679000E-02	 2.27094000E-02
		 1.26122000E-04	-2.77723000E-02	-4.51013000E-04
		-2.59539000E-03	-4.95974000E-02	 1.09561000E-02
		-4.75554000E-03	-2.89714000E-02	 1.84006000E-02
		 2.10365000E-04	-5.17093000E-02	-9.69275000E-04
		-4.69705000E-03	-5.29610000E-02	 2.26648000E-02
		 1.34001000E-04	-3.18594000E-02	-5.52345000E-04
		-1.88894000E-03	-5.44947000E-02	 1.07425000E-02
		-3.16195000E-03	-3.30532000E-02	 1.83509000E-02
		 5.78590000E-03	-4.91165000E-02	-2.46551000E-02
		 4.47951000E-03	-5.40560000E-02	-2.48470000E-02
		 5.01151000E-03	-2.81679000E-02	-1.93678000E-02
		 2.98404000E-03	-4.89676000E-02	-1.27483000E-02
		 5.13767000E-03	-5.17451000E-02	-2.46718000E-02
		 3.45498000E-03	-3.22832000E-02	-1.95238000E-02
		 2.35331000E-03	-5.38975000E-02	-1.28257000E-02
		 2.45381000E-04	-5.76025000E-02	-1.11396000E-03
		-2.64808000E-03	-5.88234000E-02	 2.25827000E-02
		 2.39237000E-04	-5.59546000E-02	-1.08349000E-03
		-3.32496000E-03	-5.72273000E-02	 2.27815000E-02
		 1.31739000E-04	-3.43878000E-02	-5.73169000E-04
		-1.20691000E-03	-5.80546000E-02	 1.04956000E-02
		-1.60212000E-03	-3.55669000E-02	 1.82731000E-02
		 3.19149000E-03	-5.76674000E-02	-2.48722000E-02
		 3.83606000E-03	-5.59996000E-02	-2.50122000E-02
		 1.92636000E-03	-3.48549000E-02	-1.94882000E-02
		 1.71384000E-03	-5.75010000E-02	-1.27358000E-02
		 4.58204000E-04	-1.04572000E-01	-2.37339000E-03
		-6.16603000E-03	-1.05974000E-01	 2.86505000E-02
		 5.04875000E-04	-1.10687000E-01	-2.58004000E-03
		-5.17335000E-03	-1.12212000E-01	 2.84856000E-02
		 3.12781000E-04	-7.49418000E-02	-1.52324000E-03
		-2.84424000E-03	-1.05150000E-01	 1.31107000E-02
		-5.85317000E-03	-7.63042000E-02	 2.61745000E-02
		 4.86502000E-04	-1.07750000E-01	-2.48215000E-03
		-5.67170000E-03	-1.09229000E-01	 2.84941000E-02
		 3.46743000E-04	-8.05390000E-02	-1.70654000E-03
		-2.35906000E-03	-1.11330000E-01	 1.28472000E-02
		-4.69194000E-03	-8.19115000E-02	 2.60393000E-02
		 7.03016000E-03	-1.03986000E-01	-3.34378000E-02
		 6.18065000E-03	-1.10125000E-01	-3.37252000E-02
		 6.46613000E-03	-7.46618000E-02	-2.92963000E-02
		 3.74420000E-03	-1.04166000E-01	-1.78603000E-02
		 6.60848000E-03	-1.07173000E-01	-3.35275000E-02
		 5.39034000E-03	-8.02666000E-02	-2.95223000E-02
		 3.34416000E-03	-1.10298000E-01	-1.80415000E-02
		 5.31691000E-04	-1.15913000E-01	-2.72359000E-03
		-4.31165000E-03	-1.17548000E-01	 2.82834000E-02
		 5.19118000E-04	-1.13431000E-01	-2.66142000E-03
		-4.74335000E-03	-1.14890000E-01	 2.84960000E-02
		 3.76048000E-04	-8.50189000E-02	-1.83000000E-03
		-1.86176000E-03	-1.16610000E-01	 1.25534000E-02
		-3.59064000E-03	-8.64245000E-02	 2.58703000E-02
		 5.34302000E-03	-1.15391000E-01	-3.38446000E-02
		 5.76129000E-03	-1.12863000E-01	-3.39090000E-02
		 4.30957000E-03	-8.47606000E-02	-2.95958000E-02
		 2.92901000E-03	-1.15558000E-01	-1.80572000E-02
		 9.09341000E-04	-1.72625000E-01	-4.60936000E-03
		-5.87212000E-03	-1.73955000E-01	 3.05007000E-02
		 9.68368000E-04	-1.79315000E-01	-4.81844000E-03
		-5.64682000E-03	-1.81105000E-01	 3.03571000E-02
		 6.29683000E-04	-1.37386000E-01	-3.40977000E-03
		-2.48203000E-03	-1.73243000E-01	 1.28046000E-02
		-6.18762000E-03	-1.38874000E-01	 3.00966000E-02
		 9.39151000E-04	-1.75968000E-01	-4.71357000E-03
		-5.74789000E-03	-1.77479000E-01	 3.04563000E-02
		 6.82327000E-04	-1.43912000E-01	-3.66844000E-03
		-2.21851000E-03	-1.80147000E-01	 1.26433000E-02
		-5.55693000E-03	-1.45367000E-01	 2.99888000E-02
		 7.54766000E-03	-1.71480000E-01	-3.97494000E-02
		 7.29522000E-03	-1.78040000E-01	-4.00162000E-02
		 7.42050000E-03	-1.36491000E-01	-3.69547000E-02
		 4.22251000E-03	-1.72032000E-01	-2.20283000E-02
		 7.42331000E-03	-1.74792000E-01	-3.99139000E-02
		 6.85774000E-03	-1.42995000E-01	-3.72641000E-02
		 4.11917000E-03	-1.78629000E-01	-2.22886000E-02
		 8.81325000E-04	-1.85755000E-01	-5.02630000E-03
		-5.31541000E-03	-1.87907000E-01	 3.00987000E-02
		 9.28956000E-04	-1.82532000E-01	-4.92760000E-03
		-5.47997000E-03	-1.85024000E-01	 3.02698000E-02
		 6.96032000E-04	-1.49841000E-01	-3.91270000E-03
		-2.33192000E-03	-1.86753000E-01	 1.23654000E-02
		-4.78778000E-03	-1.51165000E-01	 2.97370000E-02
		 7.07193000E-03	-1.84341000E-01	-4.01553000E-02