# vtk DataFile Version 3.0

ASCII
DATASET UNSTRUCTURED_GRID

POINTS 522 double
	 1.00000000E+00	 1.00000000E+00	-5.96046000E-08
	 1.00000000E+00	 5.00000000E-01	-5.96046000E-08
	 1.00000000E+00	 5.00000000E-01	 1.00000000E+00
	 1.00000000E+00	 1.00000000E+00	 1.00000000E+00
	 5.00000000E-01	 1.00000000E+00	-5.96046000E-08
	 5.00000000E-01	 5.00000000E-01	-5.96046000E-08
	 5.00000000E-01	 5.00000000E-01	 1.00000000E+00
	 5.00000000E-01	 1.00000000E+00	 1.00000000E+00
	 1.00000000E+00	 7.50000000E-01	-5.96046000E-08
	 1.00000000E+00	 5.00000000E-01	 5.00000000E-01
	 1.00000000E+00	 7.50000000E-01	 1.00000000E+00
	 1.00000000E+00	 1.00000000E+00	 5.00000000E-01
	 7.50000000E-01	 1.00000000E+00	-5.96046000E-08
	 7.50000000E-01	 5.00000000E-01	-5.96046000E-08
	 7.50000000E-01	 5.00000000E-01	 1.00000000E+00
	 7.50000000E-01	 1.00000000E+00	 1.00000000E+00
	 5.00000000E-01	 7.50000000E-01	-5.96046000E-08
	 5.00000000E-01	 5.00000000E-01	 5.00000000E-01
	 5.00000000E-01	 7.50000000E-01	 1.00000000E+00
	 5.00000000E-01	 1.00000000E+00	 5.00000000E-01
	 1.00000000E+00	-1.49012000E-08	-5.96046000E-08
	 1.00000000E+00	-1.49012000E-08	 1.00000000E+00
	 5.00000000E-01	-1.49012000E-08	-5.96046000E-08
	 5.00000000E-01	-1.49012000E-08	 1.00000000E+00
	 1.00000000E+00	 2.50000000E-01	-5.96046000E-08
	 1.00000000E+00	-1.49012000E-08	 5.00000000E-01
	 1.00000000E+00	 2.50000000E-01	 1.00000000E+00
	 7.50000000E-01	-1.49012000E-08	-5.96046000E-08
	 7.50000000E-01	-1.49012000E-08	 1.00000000E+00
	 5.00000000E-01	 2.50000000E-01	-5.96046000E-08
	 5.00000000E-01	-1.49012000E-08	 5.00000000E-01
	 5.00000000E-01	 2.50000000E-01	 1.00000000E+00
	-7.45058000E-09	 1.00000000E+00	-5.96046000E-08
	-7.45058000E-09	 5.00000000E-01	-5.96046000E-08
	-7.45058000E-09	 5.00000000E-01	 1.00000000E+00
	-7.45058000E-09	 1.00000000E+00	 1.00000000E+00
	 2.50000000E-01	 1.00000000E+00	-5.96046000E-08
	 2.50000000E-01	 5.00000000E-01	-5.96046000E-08
	 2.50000000E-01	 5.00000000E-01	 1.00000000E+00
	 2.50000000E-01	 1.00000000E+00	 1.00000000E+00
	-7.45058000E-09	 7.50000000E-01	-5.96046000E-08
	-7.45058000E-09	 5.00000000E-01	 5.00000000E-01
	-7.45058000E-09	 7.50000000E-01	 1.00000000E+00
	-7.45058000E-09	 1.00000000E+00	 5.00000000E-01
	-7.45058000E-09	-1.49012000E-08	-5.96046000E-08
	-7.45058000E-09	-1.49012000E-08	 1.00000000E+00
	 2.50000000E-01	-1.49012000E-08	-5.96046000E-08
	 2.50000000E-01	-1.49012000E-08	 1.00000000E+00
	-7.45058000E-09	 2.50000000E-01	-5.96046000E-08
	-7.45058000E-09	-1.49012000E-08	 5.00000000E-01
	-7.45058000E-09	 2.50000000E-01	 1.00000000E+00
	 1.00000000E+00	 5.00000000E-01	 2.00000000E+00
	 1.00000000E+00	 1.00000000E+00	 2.00000000E+00
	 5.00000000E-01	 5.00000000E-01	 2.00000000E+00
	 5.00000000E-01	 1.00000000E+00	 2.00000000E+00
	 1.00000000E+00	 5.00000000E-01	 1.50000000E+00
	 1.00000000E+00	 7.50000000E-01	 2.00000000E+00
	 1.00000000E+00	 1.00000000E+00	 1.50000000E+00
	 7.50000000E-01	 5.00000000E-01	 2.00000000E+00
	 7.50000000E-01	 1.00000000E+00	 2.00000000E+00
	 5.00000000E-01	 5.00000000E-01	 1.50000000E+00
	 5.00000000E-01	 7.50000000E-01	 2.00000000E+00
	 5.00000000E-01	 1.00000000E+00	 1.50000000E+00
	 1.00000000E+00	-1.49012000E-08	 2.00000000E+00
	 5.00000000E-01	-1.49012000E-08	 2.00000000E+00
	 1.00000000E+00	-1.49012000E-08	 1.50000000E+00
	 1.00000000E+00	 2.50000000E-01	 2.00000000E+00
	 7.50000000E-01	-1.49012000E-08	 2.00000000E+00
	 5.00000000E-01	-1.49012000E-08	 1.50000000E+00
	 5.00000000E-01	 2.50000000E-01	 2.00000000E+00
	-7.45058000E-09	 5.00000000E-01	 2.00000000E+00
	-7.45058000E-09	 1.00000000E+00	 2.00000000E+00
	 2.50000000E-01	 5.00000000E-01	 2.00000000E+00
	 2.50000000E-01	 1.00000000E+00	 2.00000000E+00
	-7.45058000E-09	 5.00000000E-01	 1.50000000E+00
	-7.45058000E-09	 7.50000000E-01	 2.00000000E+00
	-7.45058000E-09	 1.00000000E+00	 1.50000000E+00
	-7.45058000E-09	-1.49012000E-08	 2.00000000E+00
	 2.50000000E-01	-1.49012000E-08	 2.00000000E+00
	-7.45058000E-09	-1.49012000E-08	 1.50000000E+00
	-7.45058000E-09	 2.50000000E-01	 2.00000000E+00
	 1.00000000E+00	 5.00000000E-01	 3.00000000E+00
	 1.00000000E+00	 1.00000000E+00	 3.00000000E+00
	 5.00000000E-01	 5.00000000E-01	 3.00000000E+00
	 5.00000000E-01	 1.00000000E+00	 3.00000000E+00
	 1.00000000E+00	 5.00000000E-01	 2.50000000E+00
	 1.00000000E+00	 7.50000000E-01	 3.00000000E+00
	 1.00000000E+00	 1.00000000E+00	 2.50000000E+00
	 7.50000000E-01	 5.00000000E-01	 3.00000000E+00
	 7.50000000E-01	 1.00000000E+00	 3.00000000E+00
	 5.00000000E-01	 5.00000000E-01	 2.50000000E+00
	 5.00000000E-01	 7.50000000E-01	 3.00000000E+00
	 5.00000000E-01	 1.00000000E+00	 2.50000000E+00
	 1.00000000E+00	-1.49012000E-08	 3.00000000E+00
	 5.00000000E-01	-1.49012000E-08	 3.00000000E+00
	 1.00000000E+00	-1.49012000E-08	 2.50000000E+00
	 1.00000000E+00	 2.50000000E-01	 3.00000000E+00
	 7.50000000E-01	-1.49012000E-08	 3.00000000E+00
	 5.00000000E-01	-1.49012000E-08	 2.50000000E+00
	 5.00000000E-01	 2.50000000E-01	 3.00000000E+00
	-7.45058000E-09	 5.00000000E-01	 3.00000000E+00
	-7.45058000E-09	 1.00000000E+00	 3.00000000E+00
	 2.50000000E-01	 5.00000000E-01	 3.00000000E+00
	 2.50000000E-01	 1.00000000E+00	 3.00000000E+00
	-7.45058000E-09	 5.00000000E-01	 2.50000000E+00
	-7.45058000E-09	 7.50000000E-01	 3.00000000E+00
	-7.45058000E-09	 1.00000000E+00	 2.50000000E+00
	-7.45058000E-09	-1.49012000E-08	 3.00000000E+00
	 2.50000000E-01	-1.49012000E-08	 3.00000000E+00
	-7.45058000E-09	-1.49012000E-08	 2.50000000E+00
	-7.45058000E-09	 2.50000000E-01	 3.00000000E+00
	 1.00000000E+00	 5.00000000E-01	 4.00000000E+00
	 1.00000000E+00	 1.00000000E+00	 4.00000000E+00
	 5.00000000E-01	 5.00000000E-01	 4.00000000E+00
	 5.00000000E-01	 1.00000000E+00	 4.00000000E+00
	 1.00000000E+00	 5.00000000E-01	 3.50000000E+00
	 1.00000000E+00	 7.50000000E-01	 4.00000000E+00
	 1.00000000E+00	 1.00000000E+00	 3.50000000E+00
	 7.50000000E-01	 5.00000000E-01	 4.00000000E+00
	 7.50000000E-01	 1.00000000E+00	 4.00000000E+00
	 5.00000000E-01	 5.00000000E-01	 3.50000000E+00
	 5.00000000E-01	 7.50000000E-01	 4.00000000E+00
	 5.00000000E-01	 1.00000000E+00	 3.50000000E+00
	 1.00000000E+00	-1.49012000E-08	 4.00000000E+00
	 5.00000000E-01	-1.49012000E-08	 4.00000000E+00
	 1.00000000E+00	-1.49012000E-08	 3.50000000E+00
	 1.00000000E+00	 2.50000000E-01	 4.00000000E+00
	 7.50000000E-01	-1.49012000E-08	 4.00000000E+00
	 5.00000000E-01	-1.49012000E-08	 3.50000000E+00
	 5.00000000E-01	 2.50000000E-01	 4.00000000E+00
	-7.45058000E-09	 5.00000000E-01	 4.00000000E+00
	-7.45058000E-09	 1.00000000E+00	 4.00000000E+00
	 2.50000000E-01	 5.00000000E-01	 4.00000000E+00
	 2.50000000E-01	 1.00000000E+00	 4.00000000E+00
	-7.45058000E-09	 5.00000000E-01	 3.50000000E+00
	-7.45058000E-09	 7.50000000E-01	 4.00000000E+00
	-7.45058000E-09	 1.00000000E+00	 3.50000000E+00
	-7.45058000E-09	-1.49012000E-08	 4.00000000E+00
	 2.50000000E-01	-1.49012000E-08	 4.00000000E+00
	-7.45058000E-09	-1.49012000E-08	 3.50000000E+00
	-7.45058000E-09	 2.50000000E-01	 4.00000000E+00
	 1.00000000E+00	 5.00000000E-01	 5.00000000E+00
	 1.00000000E+00	 1.00000000E+00	 5.00000000E+00
	 5.00000000E-01	 5.00000000E-01	 5.00000000E+00
	 5.00000000E-01	 1.00000000E+00	 5.00000000E+00
	 1.00000000E+00	 5.00000000E-01	 4.50000000E+00
	 1.00000000E+00	 7.50000000E-01	 5.00000000E+00
	 1.00000000E+00	 1.00000000E+00	 4.50000000E+00
	 7.50000000E-01	 5.00000000E-01	 5.00000000E+00
	 7.50000000E-01	 1.00000000E+00	 5.00000000E+00
	 5.00000000E-01	 5.00000000E-01	 4.50000000E+00
	 5.00000000E-01	 7.50000000E-01	 5.00000000E+00
	 5.00000000E-01	 1.00000000E+00	 4.50000000E+00
	 1.00000000E+00	-1.49012000E-08	 5.00000000E+00
	 5.00000000E-01	-1.49012000E-08	 5.00000000E+00
	 1.00000000E+00	-1.49012000E-08	 4.50000000E+00
	 1.00000000E+00	 2.50000000E-01	 5.00000000E+00
	 7.50000000E-01	-1.49012000E-08	 5.00000000E+00
	 5.00000000E-01	-1.49012000E-08	 4.50000000E+00
	 5.00000000E-01	 2.50000000E-01	 5.00000000E+00
	-7.45058000E-09	 5.00000000E-01	 5.00000000E+00
	-7.45058000E-09	 1.00000000E+00	 5.00000000E+00
	 2.50000000E-01	 5.00000000E-01	 5.00000000E+00
	 2.50000000E-01	 1.00000000E+00	 5.00000000E+00
	-7.45058000E-09	 5.00000000E-01	 4.50000000E+00
	-7.45058000E-09	 7.50000000E-01	 5.00000000E+00
	-7.45058000E-09	 1.00000000E+00	 4.50000000E+00
	-7.45058000E-09	-1.49012000E-08	 5.00000000E+00
	 2.50000000E-01	-1.49012000E-08	 5.00000000E+00
	-7.45058000E-09	-1.49012000E-08	 4.50000000E+00
	-7.45058000E-09	 2.50000000E-01	 5.00000000E+00
	 1.00000000E+00	 5.00000000E-01	 6.00000000E+00
	 1.00000000E+00	 1.00000000E+00	 6.00000000E+00
	 5.00000000E-01	 5.00000000E-01	 6.00000000E+00
	 5.00000000E-01	 1.00000000E+00	 6.00000000E+00
	 1.00000000E+00	 5.00000000E-01	 5.50000000E+00
	 1.00000000E+00	 7.50000000E-01	 6.00000000E+00
	 1.00000000E+00	 1.00000000E+00	 5.50000000E+00
	 7.50000000E-01	 5.00000000E-01	 6.00000000E+00
	 7.50000000E-01	 1.00000000E+00	 6.00000000E+00
	 5.00000000E-01	 5.00000000E-01	 5.50000000E+00
	 5.00000000E-01	 7.50000000E-01	 6.00000000E+00
	 5.00000000E-01	 1.00000000E+00	 5.50000000E+00
	 1.00000000E+00	-1.49012000E-08	 6.00000000E+00
	 5.00000000E-01	-1.49012000E-08	 6.00000000E+00
	 1.00000000E+00	-1.49012000E-08	 5.50000000E+00
	 1.00000000E+00	 2.50000000E-01	 6.00000000E+00
	 7.50000000E-01	-1.49012000E-08	 6.00000000E+00
	 5.00000000E-01	-1.49012000E-08	 5.50000000E+00
	 5.00000000E-01	 2.50000000E-01	 6.00000000E+00
	-7.45058000E-09	 5.00000000E-01	 6.00000000E+00
	-7.45058000E-09	 1.00000000E+00	 6.00000000E+00
	 2.50000000E-01	 5.00000000E-01	 6.00000000E+00
	 2.50000000E-01	 1.00000000E+00	 6.00000000E+00
	-7.45058000E-09	 5.00000000E-01	 5.50000000E+00
	-7.45058000E-09	 7.50000000E-01	 6.00000000E+00
	-7.45058000E-09	 1.00000000E+00	 5.50000000E+00
	-7.45058000E-09	-1.49012000E-08	 6.00000000E+00
	 2.50000000E-01	-1.49012000E-08	 6.00000000E+00
	-7.45058000E-09	-1.49012000E-08	 5.50000000E+00
	-7.45058000E-09	 2.50000000E-01	 6.00000000E+00
	 1.00000000E+00	 5.00000000E-01	 7.00000000E+00
[...]
POINT_DATA 522
FIELD U 1
	U 3 522 double
		 0.00000000E+00	 0.00000000E+00	 0.00000000E+00
		 0.00000000E+00	 0.00000000E+00	 0.00000000E+00
		 7.46737000E-06	-3.55894000E-03	 1.05635000E-06
		 6.62045000E-04	-3.68759000E-03	 2.36364000E-03
		 0.00000000E+00	 0.00000000E+00	 0.00000000E+00
		 0.00000000E+00	 0.00000000E+00	 0.00000000E+00
		 6.21244000E-06	-2.74433000E-03	 9.53148000E-06
		 9.66323000E-04	-2.89162000E-03	 2.40018000E-03
		 0.00000000E+00	 0.00000000E+00	 0.00000000E+00
		-1.21510000E-06	-1.07031000E-03	 6.24898000E-06
		 3.36774000E-04	-3.56800000E-03	 1.06452000E-03
		 9.27923000E-05	-1.25381000E-03	 1.21954000E-03
		 0.00000000E+00	 0.00000000E+00	 0.00000000E+00
		 0.00000000E+00	 0.00000000E+00	 0.00000000E+00
		 7.06878000E-06	-3.20234000E-03	 5.15308000E-06
		 8.15264000E-04	-3.34348000E-03	 2.46981000E-03
		 0.00000000E+00	 0.00000000E+00	 0.00000000E+00
		-2.33550000E-07	-7.58629000E-04	 9.24067000E-06
		 4.85648000E-04	-2.76219000E-03	 1.17366000E-03
		 4.70750000E-04	-9.64741000E-04	 1.19072000E-03
		 0.00000000E+00	 0.00000000E+00	 0.00000000E+00
		-6.51740000E-04	-3.67965000E-03	-2.36406000E-03
		 0.00000000E+00	 0.00000000E+00	 0.00000000E+00
		-9.58599000E-04	-2.87619000E-03	-2.38451000E-03
		 0.00000000E+00	 0.00000000E+00	 0.00000000E+00
		-9.61212000E-05	-1.24627000E-03	-1.20993000E-03
		-3.22886000E-04	-3.56635000E-03	-1.06289000E-03
		 0.00000000E+00	 0.00000000E+00	 0.00000000E+00
		-8.05838000E-04	-3.33070000E-03	-2.46296000E-03
		 0.00000000E+00	 0.00000000E+00	 0.00000000E+00
		-4.73183000E-04	-9.54148000E-04	-1.17365000E-03
		-4.74547000E-04	-2.75500000E-03	-1.15579000E-03
		 0.00000000E+00	 0.00000000E+00	 0.00000000E+00
		 0.00000000E+00	 0.00000000E+00	 0.00000000E+00
		 6.58197000E-06	-1.63118000E-03	 2.13196000E-05
		 1.26418000E-03	-1.77608000E-03	 2.38425000E-03
		 0.00000000E+00	 0.00000000E+00	 0.00000000E+00
		 0.00000000E+00	 0.00000000E+00	 0.00000000E+00
		 5.73221000E-06	-2.23986000E-03	 1.46498000E-05
		 1.11265000E-03	-2.38341000E-03	 2.30577000E-03
		 0.00000000E+00	 0.00000000E+00	 0.00000000E+00
		 1.66889000E-06	-1.27180000E-04	 1.14083000E-05
		 6.37326000E-04	-1.65105000E-03	 1.25924000E-03
		 8.13655000E-04	-3.50428000E-04	 1.22584000E-03
		 0.00000000E+00	 0.00000000E+00	 0.00000000E+00
		-1.25492000E-03	-1.75259000E-03	-2.34474000E-03
		 0.00000000E+00	 0.00000000E+00	 0.00000000E+00
		-1.10565000E-03	-2.36440000E-03	-2.27973000E-03
		 0.00000000E+00	 0.00000000E+00	 0.00000000E+00
		-8.11588000E-04	-3.37005000E-04	-1.20328000E-03
		-6.25322000E-04	-1.63826000E-03	-1.21753000E-03
		 1.42525000E-05	-1.13412000E-02	-2.53787000E-05
		 1.58634000E-03	-1.14815000E-02	 4.13131000E-03
		 2.01247000E-05	-9.67012000E-03	-1.70005000E-06
		 1.80015000E-03	-9.80351000E-03	 4.16476000E-03
		 1.00452000E-05	-7.02497000E-03	-1.27740000E-05
		 7.97558000E-04	-1.13888000E-02	 1.98349000E-03
		 1.15963000E-03	-7.18574000E-03	 3.32728000E-03
		 1.63801000E-05	-1.05301000E-02	-1.30081000E-05
		 1.69402000E-03	-1.06639000E-02	 4.19733000E-03
		 1.39165000E-05	-5.74952000E-03	 2.91673000E-06
		 9.11429000E-04	-9.71343000E-03	 2.06002000E-03
		 1.42210000E-03	-5.90382000E-03	 3.35393000E-03
		-1.55340000E-03	-1.14267000E-02	-4.18262000E-03
		-1.75418000E-03	-9.75399000E-03	-4.16893000E-03
		-1.14462000E-03	-7.16135000E-03	-3.34906000E-03
		-7.67545000E-04	-1.13603000E-02	-2.03415000E-03
		-1.65588000E-03	-1.06110000E-02	-4.22417000E-03
		-1.39635000E-03	-5.87312000E-03	-3.34851000E-03
		-8.68884000E-04	-9.68850000E-03	-2.06352000E-03
		 2.91186000E-05	-7.79159000E-03	 2.07921000E-05
		 2.03302000E-03	-7.91144000E-03	 4.17505000E-03
		 2.46787000E-05	-8.75379000E-03	 9.02689000E-06
		 1.91647000E-03	-8.88306000E-03	 4.13315000E-03
		 1.96594000E-05	-4.20834000E-03	 2.46480000E-05
		 1.02949000E-03	-7.82663000E-03	 2.11244000E-03
		 1.70340000E-03	-4.35436000E-03	 3.36080000E-03
		-1.96823000E-03	-7.86907000E-03	-4.13377000E-03
		-1.86084000E-03	-8.83755000E-03	-4.11468000E-03
		-1.66432000E-03	-4.32171000E-03	-3.31562000E-03
		-9.68640000E-04	-7.80637000E-03	-2.07167000E-03
		 3.80912000E-05	-2.17087000E-02	-7.23707000E-05
		 2.10964000E-03	-2.17907000E-02	 5.20667000E-03
		 4.34219000E-05	-1.95742000E-02	-3.73109000E-05
		 2.22856000E-03	-1.96638000E-02	 5.25914000E-03
		 2.73599000E-05	-1.62879000E-02	-4.05555000E-05
		 1.07546000E-03	-2.17312000E-02	 2.51475000E-03
		 1.90623000E-03	-1.64054000E-02	 4.75393000E-03
		 4.12157000E-05	-2.06579000E-02	-5.60961000E-05
		 2.16932000E-03	-2.07439000E-02	 5.25320000E-03
		 3.12202000E-05	-1.43278000E-02	-1.32002000E-05
		 1.13717000E-03	-1.96016000E-02	 2.58086000E-03
		 2.06802000E-03	-1.44422000E-02	 4.79616000E-03
		-2.04740000E-03	-2.17450000E-02	-5.35483000E-03
		-2.15762000E-03	-1.95970000E-02	-5.33766000E-03
		-1.85212000E-03	-1.63477000E-02	-4.84655000E-03
		-1.00410000E-03	-2.17126000E-02	-2.66043000E-03
		-2.10211000E-03	-2.06872000E-02	-5.36895000E-03
		-2.00918000E-03	-1.43812000E-02	-4.82664000E-03
		-1.05603000E-03	-1.95692000E-02	-2.65645000E-03
		 4.84990000E-05	-1.73235000E-02	 2.37847000E-06
		 2.35852000E-03	-1.74148000E-02	 5.28682000E-03
		 4.56058000E-05	-1.84640000E-02	-1.71801000E-05
		 2.29330000E-03	-1.85566000E-02	 5.26386000E-03
		 3.73562000E-05	-1.22050000E-02	 1.22055000E-05
		 1.20238000E-03	-1.73536000E-02	 2.62755000E-03
		 2.24730000E-03	-1.23182000E-02	 4.81690000E-03
		-2.27759000E-03	-1.73250000E-02	-5.28698000E-03
		-2.21875000E-03	-1.84788000E-02	-5.30355000E-03
		-2.17768000E-03	-1.22485000E-02	-4.78955000E-03
		-1.11089000E-03	-1.73065000E-02	-2.62316000E-03
		 5.36067000E-05	-3.33965000E-02	-1.33112000E-04
		 2.36907000E-03	-3.34076000E-02	 5.33669000E-03
		 6.25998000E-05	-3.11318000E-02	-9.23555000E-05
		 2.29199000E-03	-3.11264000E-02	 5.40085000E-03
		 4.45164000E-05	-2.75145000E-02	-1.09034000E-04
		 1.20944000E-03	-3.34130000E-02	 2.54568000E-03
		 2.27284000E-03	-2.75636000E-02	 5.42474000E-03
		 5.75891000E-05	-3.22558000E-02	-1.12694000E-04
		 2.32894000E-03	-3.22573000E-02	 5.37275000E-03
		 5.21969000E-05	-2.52743000E-02	-6.57762000E-05
		 1.17639000E-03	-3.11391000E-02	 2.59771000E-03
		 2.31173000E-03	-2.53193000E-02	 5.48578000E-03
		-2.25209000E-03	-3.33202000E-02	-5.59936000E-03
		-2.15622000E-03	-3.10544000E-02	-5.58147000E-03
		-2.18639000E-03	-2.74923000E-02	-5.63299000E-03
		-1.09809000E-03	-3.33687000E-02	-2.81079000E-03
		-2.20399000E-03	-3.21766000E-02	-5.59417000E-03
		-2.20629000E-03	-2.52452000E-02	-5.61679000E-03
		-1.04767000E-03	-3.11041000E-02	-2.78135000E-03
		 7.12778000E-05	-2.89438000E-02	-5.58199000E-05
		 2.22590000E-03	-2.89241000E-02	 5.41128000E-03
		 6.69972000E-05	-3.00268000E-02	-7.28542000E-05
		 2.26131000E-03	-3.00173000E-02	 5.43574000E-03
		 6.05978000E-05	-2.30001000E-02	-1.86997000E-05
		 1.14538000E-03	-2.89413000E-02	 2.59461000E-03
		 2.36128000E-03	-2.30320000E-02	 5.50659000E-03
		-2.07315000E-03	-2.88680000E-02	-5.51797000E-03
		-2.11559000E-03	-2.99518000E-02	-5.57728000E-03
		-2.23515000E-03	-2.29644000E-02	-5.55238000E-03
		-1.00031000E-03	-2.89186000E-02	-2.70496000E-03
		 1.02816000E-04	-4.34038000E-02	-1.68149000E-04
		 2.19416000E-03	-4.33079000E-02	 3.97083000E-03
		 1.04839000E-04	-4.14695000E-02	-1.39378000E-04
		 1.90122000E-03	-4.13577000E-02	 4.00303000E-03
		 7.55691000E-05	-3.88703000E-02	-1.53868000E-04
		 1.14095000E-03	-4.33978000E-02	 1.93879000E-03
		 2.35569000E-03	-3.88254000E-02	 4.79922000E-03
		 1.04964000E-04	-4.23998000E-02	-1.51245000E-04
		 2.05120000E-03	-4.22887000E-02	 3.94591000E-03
		 7.98446000E-05	-3.67027000E-02	-1.18890000E-04
		 1.00297000E-03	-4.14556000E-02	 1.92551000E-03
		 2.15134000E-03	-3.66439000E-02	 4.86174000E-03
		-1.99379000E-03	-4.32585000E-02	-4.30331000E-03
		-1.69364000E-03	-4.13068000E-02	-4.27978000E-03
		-2.20472000E-03	-3.87595000E-02	-5.10852000E-03
		-9.40121000E-04	-4.33707000E-02	-2.27570000E-03
		-1.84327000E-03	-4.22402000E-02	-4.24427000E-03
		-1.98892000E-03	-3.65796000E-02	-5.09425000E-03
		-7.94978000E-04	-4.14292000E-02	-2.20347000E-03
		 1.03775000E-04	-3.98076000E-02	-1.09648000E-04
		 1.61384000E-03	-3.97007000E-02	 4.02822000E-03
		 1.04701000E-04	-4.05992000E-02	-1.27456000E-04
		 1.75586000E-03	-4.04873000E-02	 4.06351000E-03
		 8.12552000E-05	-3.47271000E-02	-8.91269000E-05
		 8.62923000E-04	-3.97952000E-02	 1.90200000E-03
		 1.95744000E-03	-3.46649000E-02	 4.86754000E-03
		-1.40897000E-03	-3.96509000E-02	-4.24692000E-03
		-1.55102000E-03	-4.04382000E-02	-4.31548000E-03
		-1.79315000E-03	-3.46023000E-02	-5.03435000E-03
		-6.55150000E-04	-3.97676000E-02	-2.12180000E-03
		 9.40310000E-05	-4.86058000E-02	-1.44834000E-04
		 1.20683000E-03	-4.85725000E-02	 2.53367000E-03
		 1.02381000E-04	-4.75446000E-02	-1.46158000E-04
		 1.13354000E-03	-4.75094000E-02	 2.49757000E-03
		 1.09640000E-04	-4.65555000E-02	-1.57741000E-04
		 6.54510000E-04	-4.85958000E-02	 1.35092000E-03
		 1.79497000E-03	-4.64960000E-02	 3.09859000E-03
		 9.76950000E-05	-4.80630000E-02	-1.49270000E-04
		 1.16748000E-03	-4.80306000E-02	 2.42314000E-03
		 1.15577000E-04	-4.50063000E-02	-1.47034000E-04
		 6.20145000E-04	-4.75356000E-02	 1.24416000E-03
		 1.55991000E-03	-4.49226000E-02	 3.08348000E-03
		-1.00289000E-03	-4.85461000E-02	-2.81815000E-03
		-9.21069000E-04	-4.74954000E-02	-2.79014000E-03
		-1.55919000E-03	-4.64465000E-02	-3.41206000E-03
		-4.55480000E-04	-4.85880000E-02	-1.63262000E-03
		-9.62167000E-04	-4.80114000E-02	-2.72087000E-03
		-1.32125000E-03	-4.48948000E-02	-3.37921000E-03
		-4.11003000E-04	-4.75311000E-02	-1.53677000E-03
		 1.10045000E-04	-4.65611000E-02	-1.47307000E-04
		 1.05726000E-03	-4.65262000E-02	 2.52460000E-03
		 1.06357000E-04	-4.70465000E-02	-1.41892000E-04
		 1.09827000E-03	-4.70136000E-02	 2.55730000E-03
		 1.20086000E-04	-4.36771000E-02	-1.31418000E-04
		 5.82045000E-04	-4.65525000E-02	 1.21059000E-03
		 1.33673000E-03	-4.35952000E-02	 3.12347000E-03
		-8.30432000E-04	-4.65207000E-02	-2.82377000E-03
		-8.75018000E-04	-4.69972000E-02	-2.84936000E-03
		-1.09255000E-03	-4.35754000E-02	-3.39153000E-03
		-3.63966000E-04	-4.65534000E-02	-1.50416000E-03
		 9.79907000E-05	-5.29888000E-02	-1.37198000E-04
		 6.18519000E-04	-5.30346000E-02	 2.66725000E-03
		 9.78037000E-05	-5.24715000E-02	-1.52641000E-04
		 6.60984000E-04	-5.24966000E-02	 2.63489000E-03
		 9.47772000E-05	-5.04925000E-02	-1.56029000E-04
		 3.56461000E-04	-5.30169000E-02	 1.25219000E-03
		 7.07872000E-04	-5.04693000E-02	 2.50800000E-03
		 9.62396000E-05	-5.27333000E-02	-1.40663000E-04
		 6.43231000E-04	-5.27801000E-02	 2.67729000E-03
		 9.19194000E-05	-4.98438000E-02	-1.50054000E-04
		 3.75902000E-04	-5.24797000E-02	 1.24151000E-03
		 7.74470000E-04	-4.98478000E-02	 2.47982000E-03
		-3.63451000E-04	-5.29504000E-02	-2.98171000E-03
		-4.34731000E-04	-5.24793000E-02	-2.97754000E-03
		-5.34087000E-04	-5.04625000E-02	-2.79515000E-03
		-1.47612000E-04	-5.29435000E-02	-1.56414000E-03
		-3.93811000E-04	-5.27263000E-02	-2.98525000E-03
		-5.82359000E-04	-4.98332000E-02	-2.77275000E-03
		-1.74446000E-04	-5.24623000E-02	-1.56412000E-03
		 1.01437000E-04	-5.19113000E-02	-1.54284000E-04
		 6.62348000E-04	-5.19550000E-02	 2.61985000E-03
		 1.00228000E-04	-5.22027000E-02	-1.60072000E-04
		 6.59505000E-04	-5.22154000E-02	 2.62811000E-03
		 9.22877000E-05	-4.91642000E-02	-1.44932000E-04
		 3.97748000E-04	-5.19271000E-02	 1.21438000E-03
		 7.90445000E-04	-4.91736000E-02	 2.48292000E-03
		-4.91671000E-04	-5.19276000E-02	-2.93517000E-03
		-4.69781000E-04	-5.22200000E-02	-2.95588000E-03
		-6.04844000E-04	-4.91649000E-02	-2.78474000E-03
		-1.95279000E-04	-5.19092000E-02	-1.53717000E-03
		-1.34081000E-04	-5.86580000E-02	-5.39163000E-05
		 5.18323000E-04	-5.82070000E-02	 2.47874000E-03
		 1.25791000E-04	-5.80797000E-02	-1.87170000E-04
		 5.79320000E-04	-5.78340000E-02	 2.46696000E-03
		 3.08540000E-05	-5.58688000E-02	-4.36090000E-05
		 1.50069000E-04	-5.84036000E-02	 1.34883000E-03
		 7.26089000E-04	-5.59115000E-02	 2.65202000E-03
		-1.24591000E-05	-5.83655000E-02	-1.40605000E-04
		 5.47353000E-04	-5.79113000E-02	 2.41862000E-03
		 1.13484000E-04	-5.52939000E-02	-1.52742000E-04
		 3.86098000E-04	-5.79251000E-02	 1.19625000E-03
		 6.31010000E-04	-5.52533000E-02	 2.58339000E-03
		-6.17894000E-04	-5.89293000E-02	-3.12599000E-03
		-5.40671000E-04	-5.82958000E-02	-3.13363000E-03
		-4.63034000E-04	-5.58708000E-02	-3.08390000E-03
		-3.79159000E-04	-5.88442000E-02	-1.57604000E-03
		-5.91552000E-04	-5.86471000E-02	-3.17133000E-03
		-5.02674000E-04	-5.53553000E-02	-3.10165000E-03
		-1.89948000E-04	-5.82298000E-02	-1.65060000E-03
		 2.74994000E-04	-5.75115000E-02	-1.00717000E-04
		 7.24338000E-04	-5.73434000E-02	 2.53142000E-03
		 2.26939000E-04	-5.77916000E-02	-1.72929000E-04
		 6.46457000E-04	-5.76190000E-02	 2.48994000E-03
		 1.53001000E-04	-5.47456000E-02	-1.30253000E-04
		 4.89496000E-04	-5.74481000E-02	 1.26721000E-03
		 6.23767000E-04	-5.47885000E-02	 2.61691000E-03
		-4.92785000E-04	-5.74927000E-02	-2.98910000E-03
		-5.03532000E-04	-5.79140000E-02	-3.05422000E-03
		-5.24284000E-04	-5.46900000E-02	-2.99537000E-03
		-6.57244000E-05	-5.75035000E-02	-1.55292000E-03
		 0.00000000E+00	 0.00000000E+00	 0.00000000E+00
		 0.00000000E+00	 0.00000000E+00	 0.00000000E+00
		 6.06878000E-05	-1.51758000E-02	-4.11658000E-04
		-3.62614000E-03	-1.63537000E-02	 1.54181000E-02
		 0.00000000E+00	 0.00000000E+00	 0.00000000E+00
		 0.00000000E+00	 0.00000000E+00	 0.00000000E+00
		 1.63541000E-05	-1.77877000E-02	-5.05819000E-04
		-1.57801000E-03	-1.90357000E-02	 1.54998000E-02
		 0.00000000E+00	 0.00000000E+00	 0.00000000E+00
		 7.00067000E-05	-2.89125000E-03	-1.45947000E-04
		-1.78571000E-03	-1.54015000E-02	 7.47141000E-03
		-3.09426000E-03	-4.32462000E-03	 7.86816000E-03
		 0.00000000E+00	 0.00000000E+00	 0.00000000E+00
		 0.00000000E+00	 0.00000000E+00	 0.00000000E+00
		 4.20033000E-05	-1.68319000E-02	-4.67183000E-04
		-2.58115000E-03	-1.80422000E-02	 1.53121000E-02
		 0.00000000E+00	 0.00000000E+00	 0.00000000E+00
		 8.75287000E-06	-4.74009000E-03	-1.78127000E-04
		-7.81325000E-04	-1.80322000E-02	 7.31423000E-03
		-7.74017000E-04	-6.15170000E-03	 7.62025000E-03
		 0.00000000E+00	 0.00000000E+00	 0.00000000E+00
		 3.70799000E-03	-1.58302000E-02	-1.63263000E-02
		 0.00000000E+00	 0.00000000E+00	 0.00000000E+00
		 1.61753000E-03	-1.85110000E-02	-1.66037000E-02
		 0.00000000E+00	 0.00000000E+00	 0.00000000E+00
		 3.21285000E-03	-4.18556000E-03	-8.20377000E-03
		 1.89252000E-03	-1.51349000E-02	-8.32192000E-03
		 0.00000000E+00	 0.00000000E+00	 0.00000000E+00
		 2.65476000E-03	-1.75139000E-02	-1.63315000E-02
		 0.00000000E+00	 0.00000000E+00	 0.00000000E+00
		 7.98676000E-04	-6.03292000E-03	-8.00512000E-03
		 8.14402000E-04	-1.77683000E-02	-8.35505000E-03
		 0.00000000E+00	 0.00000000E+00	 0.00000000E+00
		 0.00000000E+00	 0.00000000E+00	 0.00000000E+00
		-3.90712000E-05	-1.83726000E-02	-5.18104000E-04
		 4.69718000E-04	-1.95271000E-02	 1.53171000E-02
		 0.00000000E+00	 0.00000000E+00	 0.00000000E+00
		 0.00000000E+00	 0.00000000E+00	 0.00000000E+00
		-1.09428000E-05	-1.84283000E-02	-5.24763000E-04
		-5.70273000E-04	-1.96342000E-02	 1.55404000E-02
		 0.00000000E+00	 0.00000000E+00	 0.00000000E+00
		-6.21056000E-05	-4.46147000E-03	-1.83563000E-04
		 2.13967000E-04	-1.85790000E-02	 7.08103000E-03
		 1.59503000E-03	-5.82245000E-03	 7.83668000E-03
		 0.00000000E+00	 0.00000000E+00	 0.00000000E+00
		-4.98937000E-04	-1.90281000E-02	-1.64283000E-02
		 0.00000000E+00	 0.00000000E+00	 0.00000000E+00
		 5.68944000E-04	-1.91110000E-02	-1.66793000E-02
		 0.00000000E+00	 0.00000000E+00	 0.00000000E+00
		-1.68622000E-03	-5.70998000E-03	-8.23714000E-03
		-2.73547000E-04	-1.83385000E-02	-8.13479000E-03
		 6.11690000E-05	-6.08986000E-02	-1.68146000E-03
		-4.45117000E-03	-6.24297000E-02	 2.64824000E-02
		 4.35466000E-05	-6.46339000E-02	-1.87187000E-03
		-2.94133000E-03	-6.61682000E-02	 2.63626000E-02
		 6.38478000E-05	-3.48325000E-02	-9.08312000E-04
		-2.19435000E-03	-6.14966000E-02	 1.23070000E-02
		-4.14932000E-03	-3.62843000E-02	 2.16396000E-02
		 5.31914000E-05	-6.29328000E-02	-1.78984000E-03
		-3.69774000E-03	-6.44668000E-02	 2.63765000E-02
		 2.61239000E-05	-3.80988000E-02	-1.05290000E-03
		-1.44746000E-03	-6.52338000E-02	 1.21169000E-02
		-2.31855000E-03	-3.95573000E-02	 2.15705000E-02
		 4.57981000E-03	-6.07918000E-02	-2.99439000E-02
		 3.04536000E-03	-6.45649000E-02	-3.02072000E-02
		 4.24541000E-03	-3.52559000E-02	-2.35628000E-02
		 2.31557000E-03	-6.06848000E-02	-1.56925000E-02
		 3.81914000E-03	-6.28538000E-02	-3.00523000E-02
		 2.38005000E-03	-3.85324000E-02	-2.37888000E-02
		 1.54417000E-03	-6.44461000E-02	-1.58809000E-02
		 1.11764000E-05	-6.68725000E-02	-1.97135000E-03
		-1.44072000E-03	-6.83627000E-02	 2.61975000E-02
		 2.86131000E-05	-6.59185000E-02	-1.93231000E-03
		-2.18686000E-03	-6.74691000E-02	 2.63883000E-02
		-2.34543000E-05	-3.95266000E-02	-1.10074000E-03
		-7.23581000E-04	-6.74367000E-02	 1.18707000E-02
		-5.17888000E-04	-4.09730000E-02	 2.14436000E-02
		 1.52458000E-03	-6.68228000E-02	-3.02397000E-02
		 2.28345000E-03	-6.58530000E-02	-3.03551000E-02
		 5.29187000E-04	-3.99978000E-02	-2.37588000E-02
		 7.65422000E-04	-6.66973000E-02	-1.58328000E-02
		 1.64284000E-04	-1.27181000E-01	-4.07051000E-03
		-4.60209000E-03	-1.28834000E-01	 3.18408000E-02
		 1.58603000E-04	-1.31480000E-01	-4.28943000E-03
		-3.74668000E-03	-1.33255000E-01	 3.16797000E-02
		 1.02129000E-04	-9.20605000E-02	-2.73458000E-03
		-2.21460000E-03	-1.27889000E-01	 1.37837000E-02
		-4.58785000E-03	-9.37040000E-02	 2.98125000E-02
		 1.63692000E-04	-1.29441000E-01	-4.18716000E-03
		-4.17550000E-03	-1.31167000E-01	 3.17290000E-02
		 8.52120000E-05	-9.61517000E-02	-2.95702000E-03
		-1.81733000E-03	-1.32254000E-01	 1.35565000E-02
		-3.41757000E-03	-9.78032000E-02	 2.96750000E-02
		 4.87522000E-03	-1.26319000E-01	-4.00368000E-02
		 4.04846000E-03	-1.30620000E-01	-4.03488000E-02
		 4.78549000E-03	-9.15715000E-02	-3.53850000E-02
		 2.52414000E-03	-1.26653000E-01	-2.19321000E-02
		 4.46103000E-03	-1.28571000E-01	-4.01878000E-02
		 3.59686000E-03	-9.56630000E-02	-3.56815000E-02
		 2.10600000E-03	-1.30957000E-01	-2.21734000E-02
		 1.41721000E-04	-1.34955000E-01	-4.44190000E-03
		-3.00837000E-03	-1.36862000E-01	 3.14520000E-02
		 1.50845000E-04	-1.33339000E-01	-4.37435000E-03
		-3.38145000E-03	-1.35055000E-01	 3.16587000E-02
		 6.76226000E-05	-9.90682000E-02	-3.09971000E-03
		-1.39885000E-03	-1.35795000E-01	 1.32673000E-02
		-2.30005000E-03	-1.00745000E-01	 2.94589000E-02
		 3.23893000E-03	-1.34128000E-01	-4.04548000E-02
		 3.64431000E-03	-1.32467000E-01	-4.05017000E-02
		 2.41096000E-03	-9.85976000E-02	-3.57431000E-02
		 1.67899000E-03	-1.34462000E-01	-2.22115000E-02
		 4.67145000E-04	-2.04414000E-01	-7.27679000E-03
		-4.26346000E-03	-2.06050000E-01	 3.23189000E-02
		 4.58760000E-04	-2.09033000E-01	-7.42520000E-03
		-4.04196000E-03	-2.11126000E-01	 3.22004000E-02
		 2.49558000E-04	-1.64943000E-01	-5.60901000E-03
		-1.89869000E-03	-2.05190000E-01	 1.24727000E-02
		-4.52065000E-03	-1.66699000E-01	 3.25065000E-02
		 4.63040000E-04	-2.06727000E-01	-7.35180000E-03
		-4.14364000E-03	-2.08539000E-01	 3.22745000E-02
		 2.39603000E-04	-1.69470000E-01	-5.83971000E-03
		-1.66877000E-03	-2.10024000E-01	 1.23470000E-02
		-4.03540000E-03	-1.71185000E-01	 3.24062000E-02
		 5.03625000E-03	-2.03033000E-01	-4.68976000E-02
		 4.67152000E-03	-2.07503000E-01	-4.70653000E-02
		 4.98532000E-03	-1.63792000E-01	-4.37605000E-02
		 2.75168000E-03	-2.03695000E-01	-2.70280000E-02
		 4.85492000E-03	-2.05299000E-01	-4.70028000E-02
		 4.44351000E-03	-1.68275000E-01	-4.40265000E-02
		 2.55227000E-03	-2.08212000E-01	-2.72056000E-02
		 3.14739000E-04	-2.13325000E-01	-7.55655000E-03
		-3.69720000E-03	-2.15787000E-01	 3.20566000E-02
		 3.88279000E-04	-2.11182000E-01	-7.49589000E-03
		-3.86935000E-03	-2.13977000E-01	 3.21276000E-02
		 2.05039000E-04	-1.73456000E-01	-6.05262000E-03
		-1.80467000E-03	-2.14483000E-01	 1.22022000E-02
		-3.38743000E-03	-1.75065000E-01	 3.22036000E-02
		 4.33692000E-03	-2.11660000E-01	-4.71698000E-02