# vtk DataFile Version 3.0

ASCII
DATASET UNSTRUCTURED_GRID

POINTS 522 double
	 1.00000000E+00	 1.00000000E+00	-5.96046000E-08
	 1.00000000E+00	 5.00000000E-01	-5.96046000E-08
	 1.00000000E+00	 5.00000000E-01	 1.00000000E+00
	 1.00000000E+00	 1.00000000E+00	 1.00000000E+00
	 5.00000000E-01	 1.00000000E+00	-5.96046000E-08
	 5.00000000E-01	 5.00000000E-01	-5.96046000E-08
	 5.00000000E-01	 5.00000000E-01	 1.00000000E+00
	 5.00000000E-01	 1.00000000E+00	 1.00000000E+00
	 1.00000000E+00	 7.50000000E-01	-5.96046000E-08
	 1.00000000E+00	 5.00000000E-01	 5.00000000E-01
	 1.00000000E+00	 7.50000000E-01	 1.00000000E+00
	 1.00000000E+00	 1.00000000E+00	 5.00000000E-01
	 7.50000000E-01	 1.00000000E+00	-5.96046000E-08
	 7.50000000E-01	 5.00000000E-01	-5.96046000E-08
	 7.50000000E-01	 5.00000000E-01	 1.00000000E+00
	 7.50000000E-01	 1.00000000E+00	 1.00000000E+00
	 5.00000000E-01	 7.50000000E-01	-5.96046000E-08
	 5.00000000E-01	 5.00000000E-01	 5.00000000E-01
	 5.00000000E-01	 7.50000000E-01	 1.00000000E+00
	 5.00000000E-01	 1.00000000E+00	 5.00000000E-01
	 1.00000000E+00	-1.49012000E-08	-5.96046000E-08
	 1.00000000E+00	-1.49012000E-08	 1.00000000E+00
	 5.00000000E-01	-1.49012000E-08	-5.96046000E-08
	 5.00000000E-01	-1.49012000E-08	 1.00000000E+00
	 1.00000000E+00	 2.50000000E-01	-5.96046000E-08
	 1.00000000E+00	-1.49012000E-08	 5.00000000E-01
	 1.00000000E+00	 2.50000000E-01	 1.00000000E+00
	 7.50000000E-01	-1.49012000E-08	-5.96046000E-08
	 7.50000000E-01	-1.49012000E-08	 1.00000000E+00
	 5.00000000E-01	 2.50000000E-01	-5.96046000E-08
	 5.00000000E-01	-1.49012000E-08	 5.00000000E-01
	 5.00000000E-01	 2.50000000E-01	 1.00000000E+00
	-7.45058000E-09	 1.00000000E+00	-5.96046000E-08
	-7.45058000E-09	 5.00000000E-01	-5.96046000E-08
	-7.45058000E-09	 5.00000000E-01	 1.00000000E+00
	-7.45058000E-09	 1.00000000E+00	 1.00000000E+00
	 2.50000000E-01	 1.00000000E+00	-5.96046000E-08
	 2.50000000E-01	 5.00000000E-01	-5.96046000E-08
	 2.50000000E-01	 5.00000000E-01	 1.00000000E+00
	 2.50000000E-01	 1.00000000E+00	 1.00000000E+00
	-7.45058000E-09	 7.50000000E-01	-5.96046000E-08
	-7.45058000E-09	 5.00000000E-01	 5.00000000E-01
	-7.45058000E-09	 7.50000000E-01	 1.00000000E+00
	-7.45058000E-09	 1.00000000E+00	 5.00000000E-01
	-7.45058000E-09	-1.49012000E-08	-5.96046000E-08
	-7.45058000E-09	-1.49012000E-08	 1.00000000E+00
	 2.50000000E-01	-1.49012000E-08	-5.96046000E-08
	 2.50000000E-01	-1.49012000E-08	 1.00000000E+00
	-7.45058000E-09	 2.50000000E-01	-5.96046000E-08
	-7.45058000E-09	-1.49012000E-08	 5.00000000E-01
	-7.45058000E-09	 2.50000000E-01	 1.00000000E+00
	 1.00000000E+00	 5.00000000E-01	 2.00000000E+00
	 1.00000000E+00	 1.00000000E+00	 2.00000000E+00
	 5.00000000E-01	 5.00000000E-01	 2.00000000E+00
	 5.00000000E-01	 1.00000000E+00	 2.00000000E+00
	 1.00000000E+00	 5.00000000E-01	 1.50000000E+00
	 1.00000000E+00	 7.50000000E-01	 2.00000000E+00
	 1.00000000E+00	 1.00000000E+00	 1.50000000E+00
	 7.50000000E-01	 5.00000000E-01	 2.00000000E+00
	 7.50000000E-01	 1.00000000E+00	 2.00000000E+00
	 5.00000000E-01	 5.00000000E-01	 1.50000000E+00
	 5.00000000E-01	 7.50000000E-01	 2.00000000E+00
	 5.00000000E-01	 1.00000000E+00	 1.50000000E+00
	 1.00000000E+00	-1.49012000E-08	 2.00000000E+00
	 5.00000000E-01	-1.49012000E-08	 2.00000000E+00
	 1.00000000E+00	-1.49012000E-08	 1.50000000E+00
	 1.00000000E+00	 2.50000000E-01	 2.00000000E+00
	 7.50000000E-01	-1.49012000E-08	 2.00000000E+00
	 5.00000000E-01	-1.49012000E-08	 1.50000000E+00
	 5.00000000E-01	 2.50000000E-01	 2.00000000E+00
	-7.45058000E-09	 5.00000000E-01	 2.00000000E+00
	-7.45058000E-09	 1.00000000E+00	 2.00000000E+00
	 2.50000000E-01	 5.00000000E-01	 2.00000000E+00
	 2.50000000E-01	 1.00000000E+00	 2.00000000E+00
	-7.45058000E-09	 5.00000000E-01	 1.50000000E+00
	-7.45058000E-09	 7.50000000E-01	 2.00000000E+00
	-7.45058000E-09	 1.00000000E+00	 1.50000000E+00
	-7.45058000E-09	-1.49012000E-08	 2.00000000E+00
	 2.50000000E-01	-1.49012000E-08	 2.00000000E+00
	-7.45058000E-09	-1.49012000E-08	 1.50000000E+00
	-7.45058000E-09	 2.50000000E-01	 2.00000000E+00
	 1.00000000E+00	 5.00000000E-01	 3.00000000E+00
	 1.00000000E+00	 1.00000000E+00	 3.00000000E+00
	 5.00000000E-01	 5.00000000E-01	 3.00000000E+00
	 5.00000000E-01	 1.00000000E+00	 3.00000000E+00
	 1.00000000E+00	 5.00000000E-01	 2.50000000E+00
	 1.00000000E+00	 7.50000000E-01	 3.00000000E+00
	 1.00000000E+00	 1.00000000E+00	 2.50000000E+00
	 7.50000000E-01	 5.00000000E-01	 3.00000000E+00
	 7.50000000E-01	 1.00000000E+00	 3.00000000E+00
	 5.00000000E-01	 5.00000000E-01	 2.50000000E+00
	 5.00000000E-01	 7.50000000E-01	 3.00000000E+00
	 5.00000000E-01	 1.00000000E+00	 2.50000000E+00
	 1.00000000E+00	-1.49012000E-08	 3.00000000E+00
	 5.00000000E-01	-1.49012000E-08	 3.00000000E+00
	 1.00000000E+00	-1.49012000E-08	 2.50000000E+00
	 1.00000000E+00	 2.50000000E-01	 3.00000000E+00
	 7.50000000E-01	-1.49012000E-08	 3.00000000E+00
	 5.00000000E-01	-1.49012000E-08	 2.50000000E+00
	 5.00000000E-01	 2.50000000E-01	 3.00000000E+00
	-7.45058000E-09	 5.00000000E-01	 3.00000000E+00
	-7.45058000E-09	 1.00000000E+00	 3.00000000E+00
	 2.50000000E-01	 5.00000000E-01	 3.00000000E+00
	 2.50000000E-01	 1.00000000E+00	 3.00000000E+00
	-7.45058000E-09	 5.00000000E-01	 2.50000000E+00
	-7.45058000E-09	 7.50000000E-01	 3.00000000E+00
	-7.45058000E-09	 1.00000000E+00	 2.50000000E+00
	-7.45058000E-09	-1.49012000E-08	 3.00000000E+00
	 2.50000000E-01	-1.49012000E-08	 3.00000000E+00
	-7.45058000E-09	-1.49012000E-08	 2.50000000E+00
	-7.45058000E-09	 2.50000000E-01	 3.00000000E+00
	 1.00000000E+00	 5.00000000E-01	 4.00000000E+00
	 1.00000000E+00	 1.00000000E+00	 4.00000000E+00
	 5.00000000E-01	 5.00000000E-01	 4.00000000E+00
	 5.00000000E-01	 1.00000000E+00	 4.00000000E+00
	 1.00000000E+00	 5.00000000E-01	 3.50000000E+00
	 1.00000000E+00	 7.50000000E-01	 4.00000000E+00
	 1.00000000E+00	 1.00000000E+00	 3.50000000E+00
	 7.50000000E-01	 5.00000000E-01	 4.00000000E+00
	 7.50000000E-01	 1.00000000E+00	 4.00000000E+00
	 5.00000000E-01	 5.00000000E-01	 3.50000000E+00
	 5.00000000E-01	 7.50000000E-01	 4.00000000E+00
	 5.00000000E-01	 1.00000000E+00	 3.50000000E+00
	 1.00000000E+00	-1.49012000E-08	 4.00000000E+00
	 5.00000000E-01	-1.49012000E-08	 4.00000000E+00
	 1.00000000E+00	-1.49012000E-08	 3.50000000E+00
	 1.00000000E+00	 2.50000000E-01	 4.00000000E+00
	 7.50000000E-01	-1.49012000E-08	 4.00000000E+00
	 5.00000000E-01	-1.49012000E-08	 3.50000000E+00
	 5.00000000E-01	 2.50000000E-01	 4.00000000E+00
	-7.45058000E-09	 5.00000000E-01	 4.00000000E+00
	-7.45058000E-09	 1.00000000E+00	 4.00000000E+00
	 2.50000000E-01	 5.00000000E-01	 4.00000000E+00
	 2.50000000E-01	 1.00000000E+00	 4.00000000E+00
	-7.45058000E-09	 5.00000000E-01	 3.50000000E+00
	-7.45058000E-09	 7.50000000E-01	 4.00000000E+00
	-7.45058000E-09	 1.00000000E+00	 3.50000000E+00
	-7.45058000E-09	-1.49012000E-08	 4.00000000E+00
	 2.50000000E-01	-1.49012000E-08	 4.00000000E+00
	-7.45058000E-09	-1.49012000E-08	 3.50000000E+00
	-7.45058000E-09	 2.50000000E-01	 4.00000000E+00
	 1.00000000E+00	 5.00000000E-01	 5.00000000E+00
	 1.00000000E+00	 1.00000000E+00	 5.00000000E+00
	 5.00000000E-01	 5.00000000E-01	 5.00000000E+00
	 5.00000000E-01	 1.00000000E+00	 5.00000000E+00
	 1.00000000E+00	 5.00000000E-01	 4.50000000E+00
	 1.00000000E+00	 7.50000000E-01	 5.00000000E+00
	 1.00000000E+00	 1.00000000E+00	 4.50000000E+00
	 7.50000000E-01	 5.00000000E-01	 5.00000000E+00
	 7.50000000E-01	 1.00000000E+00	 5.00000000E+00
	 5.00000000E-01	 5.00000000E-01	 4.50000000E+00
	 5.00000000E-01	 7.50000000E-01	 5.00000000E+00
	 5.00000000E-01	 1.00000000E+00	 4.50000000E+00
	 1.00000000E+00	-1.49012000E-08	 5.00000000E+00
	 5.00000000E-01	-1.49012000E-08	 5.00000000E+00
	 1.00000000E+00	-1.49012000E-08	 4.50000000E+00
	 1.00000000E+00	 2.50000000E-01	 5.00000000E+00
	 7.50000000E-01	-1.49012000E-08	 5.00000000E+00
	 5.00000000E-01	-1.49012000E-08	 4.50000000E+00
	 5.00000000E-01	 2.50000000E-01	 5.00000000E+00
	-7.45058000E-09	 5.00000000E-01	 5.00000000E+00
	-7.45058000E-09	 1.00000000E+00	 5.00000000E+00
	 2.50000000E-01	 5.00000000E-01	 5.00000000E+00
	 2.50000000E-01	 1.00000000E+00	 5.00000000E+00
	-7.45058000E-09	 5.00000000E-01	 4.50000000E+00
	-7.45058000E-09	 7.50000000E-01	 5.00000000E+00
	-7.45058000E-09	 1.00000000E+00	 4.50000000E+00
	-7.45058000E-09	-1.49012000E-08	 5.00000000E+00
	 2.50000000E-01	-1.49012000E-08	 5.00000000E+00
	-7.45058000E-09	-1.49012000E-08	 4.50000000E+00
	-7.45058000E-09	 2.50000000E-01	 5.00000000E+00
	 1.00000000E+00	 5.00000000E-01	 6.00000000E+00
	 1.00000000E+00	 1.00000000E+00	 6.00000000E+00
	 5.00000000E-01	 5.00000000E-01	 6.00000000E+00
	 5.00000000E-01	 1.00000000E+00	 6.00000000E+00
	 1.00000000E+00	 5.00000000E-01	 5.50000000E+00
	 1.00000000E+00	 7.50000000E-01	 6.00000000E+00
	 1.00000000E+00	 1.00000000E+00	 5.50000000E+00
	 7.50000000E-01	 5.00000000E-01	 6.00000000E+00
	 7.50000000E-01	 1.00000000E+00	 6.00000000E+00
	 5.00000000E-01	 5.00000000E-01	 5.50000000E+00
	 5.00000000E-01	 7.50000000E-01	 6.00000000E+00
	 5.00000000E-01	 1.00000000E+00	 5.50000000E+00
	 1.00000000E+00	-1.49012000E-08	 6.00000000E+00
	 5.00000000E-01	-1.49012000E-08	 6.00000000E+00
	 1.00000000E+00	-1.49012000E-08	 5.50000000E+00
	 1.00000000E+00	 2.50000000E-01	 6.00000000E+00
	 7.50000000E-01	-1.49012000E-08	 6.00000000E+00
	 5.00000000E-01	-1.49012000E-08	 5.50000000E+00
	 5.00000000E-01	 2.50000000E-01	 6.00000000E+00
	-7.45058000E-09	 5.00000000E-01	 6.00000000E+00
	-7.45058000E-09	 1.00000000E+00	 6.00000000E+00
	 2.50000000E-01	 5.00000000E-01	 6.00000000E+00
	 2.50000000E-01	 1.00000000E+00	 6.00000000E+00
	-7.45058000E-09	 5.00000000E-01	 5.50000000E+00
	-7.45058000E-09	 7.50000000E-01	 6.00000000E+00
	-7.45058000E-09	 1.00000000E+00	 5.50000000E+00
	-7.45058000E-09	-1.49012000E-08	 6.00000000E+00
	 2.50000000E-01	-1.49012000E-08	 6.00000000E+00
	-7.45058000E-09	-1.49012000E-08	 5.50000000E+00
	-7.45058000E-09	 2.50000000E-01	 6.00000000E+00
	 1.00000000E+00	 5.00000000E-01	 7.00000000E+00
[...]
POINT_DATA 522
FIELD U 1
	U 3 522 double
		 0.00000000E+00	 0.00000000E+00	 0.00000000E+00
		 0.00000000E+00	 0.00000000E+00	 0.00000000E+00
		-1.59711000E-06	-3.47427000E-03	 1.01947000E-05
		-2.46908000E-04	-3.65674000E-03	 3.08414000E-03
		 0.00000000E+00	 0.00000000E+00	 0.00000000E+00
		 0.00000000E+00	 0.00000000E+00	 0.00000000E+00
		 4.39941000E-07	-3.51977000E-03	 6.52436000E-06
		 1.51911000E-04	-3.71811000E-03	 3.11642000E-03
		 0.00000000E+00	 0.00000000E+00	 0.00000000E+00
		 2.93387000E-07	-8.27351000E-04	 7.64712000E-06
		-1.24104000E-04	-3.49577000E-03	 1.49627000E-03
		-3.93345000E-04	-1.09014000E-03	 1.57921000E-03
		 0.00000000E+00	 0.00000000E+00	 0.00000000E+00
		 0.00000000E+00	 0.00000000E+00	 0.00000000E+00
		-6.00455000E-07	-3.56328000E-03	 8.46842000E-06
		-4.55915000E-05	-3.75439000E-03	 3.11563000E-03
		 0.00000000E+00	 0.00000000E+00	 0.00000000E+00
		 1.95429000E-06	-9.59567000E-04	 4.13003000E-06
		 7.64942000E-05	-3.54722000E-03	 1.52348000E-03
		 7.89028000E-05	-1.22768000E-03	 1.53417000E-03
		 0.00000000E+00	 0.00000000E+00	 0.00000000E+00
		 2.41482000E-04	-3.63099000E-03	-3.06766000E-03
		 0.00000000E+00	 0.00000000E+00	 0.00000000E+00
		-1.52993000E-04	-3.68979000E-03	-3.10763000E-03
		 0.00000000E+00	 0.00000000E+00	 0.00000000E+00
		 3.94167000E-04	-1.07527000E-03	-1.56403000E-03
		 1.19910000E-04	-3.48308000E-03	-1.47709000E-03
		 0.00000000E+00	 0.00000000E+00	 0.00000000E+00
		 4.27829000E-05	-3.72714000E-03	-3.10292000E-03
		 0.00000000E+00	 0.00000000E+00	 0.00000000E+00
		-7.43283000E-05	-1.21482000E-03	-1.52514000E-03
		-7.63758000E-05	-3.53292000E-03	-1.51197000E-03
		 0.00000000E+00	 0.00000000E+00	 0.00000000E+00
		 0.00000000E+00	 0.00000000E+00	 0.00000000E+00
		 2.81846000E-06	-3.17154000E-03	 6.28172000E-06
		 5.48756000E-04	-3.36007000E-03	 3.08115000E-03
		 0.00000000E+00	 0.00000000E+00	 0.00000000E+00
		 0.00000000E+00	 0.00000000E+00	 0.00000000E+00
		 1.75876000E-06	-3.41320000E-03	 5.17586000E-06
		 3.48315000E-04	-3.60576000E-03	 3.08535000E-03
		 0.00000000E+00	 0.00000000E+00	 0.00000000E+00
		 2.62877000E-06	-6.74693000E-04	 3.24075000E-06
		 2.77116000E-04	-3.19693000E-03	 1.52067000E-03
		 5.45205000E-04	-9.42651000E-04	 1.57679000E-03
		 0.00000000E+00	 0.00000000E+00	 0.00000000E+00
		-5.44393000E-04	-3.32845000E-03	-3.07234000E-03
		 0.00000000E+00	 0.00000000E+00	 0.00000000E+00
		-3.47062000E-04	-3.57572000E-03	-3.07883000E-03
		 0.00000000E+00	 0.00000000E+00	 0.00000000E+00
		-5.38045000E-04	-9.30275000E-04	-1.56933000E-03
		-2.71889000E-04	-3.18024000E-03	-1.50961000E-03
		-5.33126000E-06	-1.26053000E-02	-2.09880000E-05
		 1.57449000E-05	-1.27900000E-02	 5.42801000E-03
		-4.16077000E-06	-1.24288000E-02	-1.94353000E-05
		 3.29255000E-04	-1.26142000E-02	 5.43525000E-03
		-2.22837000E-06	-7.46193000E-03	 1.00962000E-06
		 4.21074000E-06	-1.26641000E-02	 2.67525000E-03
		-1.20119000E-04	-7.67109000E-03	 4.34577000E-03
		-5.20308000E-06	-1.25519000E-02	-2.09253000E-05
		 1.71503000E-04	-1.27364000E-02	 5.44915000E-03
		-2.70948000E-07	-7.40676000E-03	-2.48544000E-07
		 1.62610000E-04	-1.24888000E-02	 2.69812000E-03
		 2.36000000E-04	-7.61368000E-03	 4.35609000E-03
		-2.55192000E-05	-1.27262000E-02	-5.47548000E-03
		-3.35860000E-04	-1.25513000E-02	-5.47956000E-03
		 1.14150000E-04	-7.62820000E-03	-4.34868000E-03
		-1.44481000E-05	-1.26327000E-02	-2.71837000E-03
		-1.80483000E-04	-1.26728000E-02	-5.49655000E-03
		-2.37245000E-04	-7.56962000E-03	-4.36287000E-03
		-1.70048000E-04	-1.24579000E-02	-2.73823000E-03
		-1.27464000E-06	-1.19397000E-02	-1.72445000E-05
		 6.43465000E-04	-1.21240000E-02	 5.43043000E-03
		-2.74970000E-06	-1.22189000E-02	-1.78554000E-05
		 4.87094000E-04	-1.24036000E-02	 5.42513000E-03
		 2.87034000E-06	-6.99052000E-03	 1.65447000E-06
		 3.21627000E-04	-1.19980000E-02	 2.70472000E-03
		 5.93504000E-04	-7.20082000E-03	 4.34429000E-03
		-6.43629000E-04	-1.20627000E-02	-5.47026000E-03
		-4.90424000E-04	-1.23414000E-02	-5.46631000E-03
		-5.87766000E-04	-7.15529000E-03	-4.34862000E-03
		-3.23150000E-04	-1.19683000E-02	-2.74034000E-03
		-1.86319000E-06	-2.57717000E-02	-1.14106000E-04
		 2.66254000E-04	-2.59668000E-02	 7.26483000E-03
		-4.44138000E-06	-2.53622000E-02	-1.04959000E-04
		 5.40511000E-04	-2.55601000E-02	 7.27107000E-03
		-5.87366000E-06	-1.87257000E-02	-6.02907000E-05
		 1.31431000E-04	-2.58342000E-02	 3.56484000E-03
		 1.37690000E-04	-1.89160000E-02	 6.37614000E-03
		-2.44218000E-06	-2.56014000E-02	-1.10050000E-04
		 4.04868000E-04	-2.57980000E-02	 7.28454000E-03
		-7.25197000E-06	-1.84362000E-02	-5.41040000E-05
		 2.67360000E-04	-2.54271000E-02	 3.58944000E-03
		 4.24389000E-04	-1.86265000E-02	 6.38772000E-03
		-2.76377000E-04	-2.58612000E-02	-7.49537000E-03
		-5.52700000E-04	-2.54480000E-02	-7.48354000E-03
		-1.52546000E-04	-1.88352000E-02	-6.50145000E-03
		-1.37167000E-04	-2.57822000E-02	-3.79347000E-03
		-4.15260000E-04	-2.56877000E-02	-7.50743000E-03
		-4.39817000E-04	-1.85419000E-02	-6.49952000E-03
		-2.77514000E-04	-2.53702000E-02	-3.80012000E-03
		-7.47038000E-06	-2.46775000E-02	-9.31976000E-05
		 8.08228000E-04	-2.48811000E-02	 7.28397000E-03
		-6.46385000E-06	-2.50543000E-02	-9.92704000E-05
		 6.72422000E-04	-2.52522000E-02	 7.25732000E-03
		-7.59972000E-06	-1.78601000E-02	-4.82330000E-05
		 4.02780000E-04	-2.47458000E-02	 3.62177000E-03
		 7.09307000E-04	-1.80547000E-02	 6.38815000E-03
		-8.22752000E-04	-2.47681000E-02	-7.47343000E-03
		-6.86466000E-04	-2.51396000E-02	-7.45858000E-03
		-7.23168000E-04	-1.79696000E-02	-6.48712000E-03
		-4.17703000E-04	-2.46878000E-02	-3.80901000E-03
		-8.25118000E-06	-4.26210000E-02	-2.61478000E-04
		 5.46914000E-04	-4.29077000E-02	 9.27769000E-03
		-1.13532000E-05	-4.18588000E-02	-2.47369000E-04
		 9.44223000E-04	-4.21507000E-02	 9.27705000E-03
		-2.81362000E-06	-3.36749000E-02	-1.77808000E-04
		 2.70530000E-04	-4.27143000E-02	 4.50812000E-03
		 3.90311000E-04	-3.39095000E-02	 8.19321000E-03
		-9.58755000E-06	-4.22902000E-02	-2.56286000E-04
		 7.45279000E-04	-4.25811000E-02	 9.30575000E-03
		-5.80935000E-06	-3.31140000E-02	-1.68406000E-04
		 4.66112000E-04	-4.19556000E-02	 4.54703000E-03
		 7.11484000E-04	-3.33542000E-02	 8.18658000E-03
		-5.71816000E-04	-4.27282000E-02	-9.80786000E-03
		-9.67934000E-04	-4.19625000E-02	-9.77887000E-03
		-4.02996000E-04	-3.37705000E-02	-8.55261000E-03
		-2.89301000E-04	-4.26244000E-02	-5.03260000E-03
		-7.70370000E-04	-4.23945000E-02	-9.82553000E-03
		-7.25035000E-04	-3.32088000E-02	-8.52798000E-03
		-4.88913000E-04	-4.18587000E-02	-5.04343000E-03
		-1.23187000E-05	-4.07057000E-02	-2.26120000E-04
		 1.34635000E-03	-4.09916000E-02	 9.31320000E-03
		-1.26841000E-05	-4.13312000E-02	-2.36622000E-04
		 1.14496000E-03	-4.16211000E-02	 9.24336000E-03
		-8.46720000E-06	-3.22358000E-02	-1.52694000E-04
		 6.65060000E-04	-4.07997000E-02	 4.62503000E-03
		 1.02241000E-03	-3.24819000E-02	 8.21586000E-03
		-1.36465000E-03	-4.08060000E-02	-9.77219000E-03
		-1.16633000E-03	-4.14345000E-02	-9.72346000E-03
		-1.03568000E-03	-3.23387000E-02	-8.52699000E-03
		-6.87762000E-04	-4.07041000E-02	-5.07909000E-03
		-8.19686000E-07	-6.48854000E-02	-5.35181000E-04
		 8.60985000E-04	-6.52504000E-02	 1.19186000E-02
		-4.68488000E-06	-6.38091000E-02	-4.98772000E-04
		 1.27756000E-03	-6.41773000E-02	 1.19701000E-02
		-8.46219000E-06	-5.29658000E-02	-3.80342000E-04
		 4.31939000E-04	-6.50116000E-02	 5.65155000E-03
		 7.30644000E-04	-5.32947000E-02	 1.05997000E-02
		-2.94983000E-06	-6.44032000E-02	-5.17671000E-04
		 1.06938000E-03	-6.47700000E-02	 1.19553000E-02
		-1.28203000E-05	-5.20018000E-02	-3.54584000E-04
		 6.37775000E-04	-6.39356000E-02	 5.70572000E-03
		 1.16753000E-03	-5.23341000E-02	 1.06223000E-02
		-8.66806000E-04	-6.49379000E-02	-1.30001000E-02
		-1.29008000E-03	-6.38575000E-02	-1.29785000E-02
		-7.54974000E-04	-5.30562000E-02	-1.13685000E-02
		-4.34828000E-04	-6.48560000E-02	-6.72471000E-03
		-1.07834000E-03	-6.44532000E-02	-1.30017000E-02
		-1.19522000E-03	-5.20860000E-02	-1.13393000E-02
		-6.47796000E-04	-6.37762000E-02	-6.70566000E-03
		-4.85197000E-06	-6.23188000E-02	-4.50879000E-04
		 1.71342000E-03	-6.26750000E-02	 1.20044000E-02
		-5.57149000E-06	-6.31175000E-02	-4.77159000E-04
		 1.49540000E-03	-6.34859000E-02	 1.19908000E-02
		-1.38801000E-05	-5.06021000E-02	-3.20597000E-04
		 8.49237000E-04	-6.24396000E-02	 5.74282000E-03
		 1.62430000E-03	-5.09196000E-02	 1.06610000E-02
		-1.72491000E-03	-6.23489000E-02	-1.29162000E-02
		-1.50965000E-03	-6.31625000E-02	-1.29550000E-02
		-1.64877000E-03	-5.06690000E-02	-1.13089000E-02
		-8.58995000E-04	-6.22770000E-02	-6.64715000E-03
		 1.98865000E-05	-9.27214000E-02	-9.32843000E-04
		 8.99691000E-04	-9.30219000E-02	 1.35993000E-02
		 2.15259000E-05	-9.17555000E-02	-8.97356000E-04
		 1.07587000E-03	-9.20551000E-02	 1.36647000E-02
		 1.22265000E-05	-7.82868000E-02	-7.20133000E-04
		 4.59007000E-04	-9.28485000E-02	 6.29214000E-03
		 9.28492000E-04	-7.86296000E-02	 1.29578000E-02
		 2.05892000E-05	-9.22603000E-02	-9.16348000E-04
		 9.87962000E-04	-9.25587000E-02	 1.36145000E-02
		 1.11218000E-05	-7.72173000E-02	-6.81543000E-04
		 5.49356000E-04	-9.18821000E-02	 6.32389000E-03
		 1.23456000E-03	-7.75583000E-02	 1.30265000E-02
		-8.62410000E-04	-9.26059000E-02	-1.54765000E-02
		-1.03957000E-03	-9.16340000E-02	-1.54711000E-02
		-9.06497000E-04	-7.82539000E-02	-1.44128000E-02
		-4.20166000E-04	-9.26444000E-02	-8.16148000E-03
		-9.50895000E-04	-9.21413000E-02	-1.54582000E-02
		-1.21726000E-03	-7.71771000E-02	-1.44032000E-02
		-5.08949000E-04	-9.16760000E-02	-8.12185000E-03
		 2.13254000E-05	-9.06078000E-02	-8.53216000E-04
		 1.25520000E-03	-9.09115000E-02	 1.36828000E-02
		 2.20608000E-05	-9.12035000E-02	-8.75765000E-04
		 1.16562000E-03	-9.15057000E-02	 1.37240000E-02
		 1.08203000E-05	-7.58347000E-02	-6.30955000E-04
		 6.39678000E-04	-9.07357000E-02	 6.30833000E-03
		 1.55885000E-03	-7.61680000E-02	 1.30508000E-02
		-1.22182000E-03	-9.04816000E-02	-1.54007000E-02
		-1.13071000E-03	-9.10783000E-02	-1.54877000E-02
		-1.54357000E-03	-7.57798000E-02	-1.43246000E-02
		-5.99929000E-04	-9.05259000E-02	-8.01749000E-03
		 3.18689000E-05	-1.22747000E-01	-1.38956000E-03
		 7.56527000E-04	-1.22970000E-01	 1.35844000E-02
		 3.85516000E-05	-1.22040000E-01	-1.37003000E-03
		 7.45537000E-04	-1.22253000E-01	 1.36087000E-02
		 2.59136000E-05	-1.07680000E-01	-1.16315000E-03
		 3.92245000E-04	-1.22862000E-01	 6.09228000E-03
		 8.25439000E-04	-1.07940000E-01	 1.37377000E-02
		 3.44464000E-05	-1.22390000E-01	-1.37900000E-03
		 7.51619000E-04	-1.22606000E-01	 1.35854000E-02
		 2.90548000E-05	-1.06856000E-01	-1.13277000E-03
		 3.92452000E-04	-1.22149000E-01	 6.10035000E-03
		 8.88206000E-04	-1.07113000E-01	 1.37894000E-02
		-6.80563000E-04	-1.22519000E-01	-1.63671000E-02
		-6.69646000E-04	-1.21817000E-01	-1.63497000E-02
		-7.69708000E-04	-1.07501000E-01	-1.60675000E-02
		-3.25383000E-04	-1.22636000E-01	-8.87390000E-03
		-6.75104000E-04	-1.22165000E-01	-1.63457000E-02
		-8.33250000E-04	-1.06678000E-01	-1.60606000E-02
		-3.16552000E-04	-1.21935000E-01	-8.84120000E-03
		 4.16706000E-05	-1.21337000E-01	-1.34479000E-03
		 7.23478000E-04	-1.21563000E-01	 1.36206000E-02
		 4.16937000E-05	-1.21688000E-01	-1.35905000E-03
		 7.34797000E-04	-1.21902000E-01	 1.36334000E-02
		 2.95250000E-05	-1.05966000E-01	-1.09677000E-03
		 3.87394000E-04	-1.21453000E-01	 6.09769000E-03
		 9.40491000E-04	-1.06235000E-01	 1.38027000E-02
		-6.53437000E-04	-1.21118000E-01	-1.63094000E-02
		-6.61429000E-04	-1.21464000E-01	-1.63496000E-02
		-8.90447000E-04	-1.05793000E-01	-1.60045000E-02
		-3.08107000E-04	-1.21233000E-01	-8.78833000E-03
		 1.80720000E-05	-1.52549000E-01	-1.82614000E-03
		 6.33949000E-04	-1.52752000E-01	 1.30493000E-02
		 3.74539000E-05	-1.51913000E-01	-1.81653000E-03
		 6.33774000E-04	-1.52114000E-01	 1.30371000E-02
		 2.87519000E-05	-1.37680000E-01	-1.60516000E-03
		 3.20081000E-04	-1.52650000E-01	 5.62234000E-03
		 6.81479000E-04	-1.37898000E-01	 1.33137000E-02
		 2.55191000E-05	-1.52235000E-01	-1.82204000E-03
		 6.33619000E-04	-1.52432000E-01	 1.30424000E-02
		 4.12044000E-05	-1.37036000E-01	-1.59653000E-03
		 3.31861000E-04	-1.52012000E-01	 5.61830000E-03
		 6.68336000E-04	-1.37247000E-01	 1.33108000E-02
		-5.93274000E-04	-1.52340000E-01	-1.67132000E-02
		-5.83632000E-04	-1.51700000E-01	-1.66785000E-02
		-6.13436000E-04	-1.37458000E-01	-1.65370000E-02
		-2.84309000E-04	-1.52448000E-01	-9.27573000E-03
		-5.89135000E-04	-1.52025000E-01	-1.66995000E-02
		-6.00290000E-04	-1.36819000E-01	-1.65085000E-02
		-2.65869000E-04	-1.51810000E-01	-9.25348000E-03
		 4.97175000E-05	-1.51292000E-01	-1.79886000E-03
		 6.19369000E-04	-1.51519000E-01	 1.30381000E-02
		 4.79628000E-05	-1.51597000E-01	-1.80895000E-03
		 6.26754000E-04	-1.51806000E-01	 1.30309000E-02
		 4.83128000E-05	-1.36410000E-01	-1.58006000E-03
		 3.39420000E-04	-1.51410000E-01	 5.62890000E-03
		 6.38296000E-04	-1.36642000E-01	 1.33174000E-02
		-5.67604000E-04	-1.51050000E-01	-1.66408000E-02
		-5.73904000E-04	-1.51372000E-01	-1.66517000E-02
		-5.73467000E-04	-1.36184000E-01	-1.64744000E-02
		-2.53675000E-04	-1.51170000E-01	-9.23055000E-03
		 0.00000000E+00	 0.00000000E+00	 0.00000000E+00
		 0.00000000E+00	 0.00000000E+00	 0.00000000E+00
		 1.32275000E-04	-5.54294000E-03	-2.15161000E-04
		-2.04030000E-03	-6.05882000E-03	 6.90118000E-03
		 0.00000000E+00	 0.00000000E+00	 0.00000000E+00
		 0.00000000E+00	 0.00000000E+00	 0.00000000E+00
		 1.11293000E-04	-7.18258000E-03	-1.58982000E-04
		-1.02998000E-03	-7.73355000E-03	 7.01200000E-03
		 0.00000000E+00	 0.00000000E+00	 0.00000000E+00
		 6.47626000E-05	-6.95076000E-04	-9.92483000E-05
		-9.56968000E-04	-5.62896000E-03	 3.42773000E-03
		-1.54018000E-03	-1.31692000E-03	 3.35870000E-03
		 0.00000000E+00	 0.00000000E+00	 0.00000000E+00
		 0.00000000E+00	 0.00000000E+00	 0.00000000E+00
		 1.21207000E-04	-6.53131000E-03	-1.86162000E-04
		-1.52771000E-03	-7.05969000E-03	 6.84065000E-03
		 0.00000000E+00	 0.00000000E+00	 0.00000000E+00
		 3.57187000E-05	-1.72648000E-03	-6.38932000E-05
		-4.57970000E-04	-7.27850000E-03	 3.39157000E-03
		-5.17684000E-04	-2.33944000E-03	 3.28452000E-03
		 0.00000000E+00	 0.00000000E+00	 0.00000000E+00
		 2.28472000E-03	-5.98046000E-03	-7.34226000E-03
		 0.00000000E+00	 0.00000000E+00	 0.00000000E+00
		 1.24501000E-03	-7.63663000E-03	-7.34385000E-03
		 0.00000000E+00	 0.00000000E+00	 0.00000000E+00
		 1.65425000E-03	-1.33174000E-03	-3.56734000E-03
		 1.21573000E-03	-5.58616000E-03	-3.86207000E-03
		 0.00000000E+00	 0.00000000E+00	 0.00000000E+00
		 1.75753000E-03	-6.97163000E-03	-7.22366000E-03
		 0.00000000E+00	 0.00000000E+00	 0.00000000E+00
		 5.81727000E-04	-2.33502000E-03	-3.41653000E-03
		 6.78199000E-04	-7.22803000E-03	-3.71451000E-03
		 0.00000000E+00	 0.00000000E+00	 0.00000000E+00
		 0.00000000E+00	 0.00000000E+00	 0.00000000E+00
		 9.55210000E-05	-7.81840000E-03	-8.19052000E-05
		-2.75124000E-07	-8.33729000E-03	 7.03221000E-03
		 0.00000000E+00	 0.00000000E+00	 0.00000000E+00
		 0.00000000E+00	 0.00000000E+00	 0.00000000E+00
		 1.01712000E-04	-7.66652000E-03	-1.26197000E-04
		-5.23757000E-04	-8.19913000E-03	 7.11093000E-03
		 0.00000000E+00	 0.00000000E+00	 0.00000000E+00
		 1.70825000E-05	-1.79475000E-03	-2.68569000E-05
		 4.97766000E-05	-7.90296000E-03	 3.34646000E-03
		 5.57351000E-04	-2.39331000E-03	 3.43355000E-03
		 0.00000000E+00	 0.00000000E+00	 0.00000000E+00
		 1.90440000E-04	-8.22300000E-03	-7.20876000E-03
		 0.00000000E+00	 0.00000000E+00	 0.00000000E+00
		 7.20944000E-04	-8.09532000E-03	-7.37800000E-03
		 0.00000000E+00	 0.00000000E+00	 0.00000000E+00
		-5.25929000E-04	-2.36721000E-03	-3.48988000E-03
		 1.43649000E-04	-7.84674000E-03	-3.51370000E-03
		 3.62499000E-04	-2.60553000E-02	-5.42275000E-04
		-3.00269000E-03	-2.66951000E-02	 1.33386000E-02
		 3.62287000E-04	-2.89585000E-02	-4.83966000E-04
		-2.09183000E-03	-2.96007000E-02	 1.34217000E-02
		 2.37536000E-04	-1.40285000E-02	-3.55047000E-04
		-1.31816000E-03	-2.62714000E-02	 6.42320000E-03
		-2.55300000E-03	-1.46458000E-02	 1.02897000E-02
		 3.62054000E-04	-2.76115000E-02	-5.17447000E-04
		-2.54668000E-03	-2.82511000E-02	 1.32983000E-02
		 2.22977000E-04	-1.63058000E-02	-2.91400000E-04
		-8.59722000E-04	-2.91731000E-02	 6.41535000E-03
		-1.55494000E-03	-1.69285000E-02	 1.03723000E-02
		 3.72650000E-03	-2.62874000E-02	-1.44476000E-02
		 2.81558000E-03	-2.92043000E-02	-1.44143000E-02
		 3.01596000E-03	-1.44245000E-02	-1.10199000E-02
		 2.04124000E-03	-2.60639000E-02	-7.51491000E-03
		 3.27255000E-03	-2.78573000E-02	-1.43540000E-02
		 1.99744000E-03	-1.67016000E-02	-1.09779000E-02
		 1.58883000E-03	-2.89764000E-02	-7.38646000E-03
		 3.56428000E-04	-3.09689000E-02	-3.95529000E-04
		-1.15888000E-03	-3.15788000E-02	 1.34839000E-02
		 3.59616000E-04	-3.00657000E-02	-4.43203000E-04
		-1.62440000E-03	-3.07296000E-02	 1.35580000E-02
		 2.11349000E-04	-1.75855000E-02	-1.98973000E-04
		-4.11478000E-04	-3.11612000E-02	 6.38395000E-03
		-5.48609000E-04	-1.82001000E-02	 1.04422000E-02
		 1.90642000E-03	-3.12082000E-02	-1.43002000E-02
		 2.36100000E-03	-3.03111000E-02	-1.44742000E-02
		 9.85854000E-04	-1.79780000E-02	-1.08635000E-02
		 1.13478000E-03	-3.09840000E-02	-7.17572000E-03
		 7.01377000E-04	-5.89529000E-02	-1.11859000E-03
		-3.81886000E-03	-5.95825000E-02	 1.78255000E-02
		 7.19910000E-04	-6.31355000E-02	-1.08287000E-03
		-3.17007000E-03	-6.38744000E-02	 1.78995000E-02
		 5.19865000E-04	-4.11984000E-02	-7.94227000E-04
		-1.55206000E-03	-5.91882000E-02	 8.35848000E-03
		-3.41044000E-03	-4.18605000E-02	 1.58641000E-02
		 7.13501000E-04	-6.11260000E-02	-1.09915000E-03
		-3.49713000E-03	-6.18218000E-02	 1.77661000E-02
		 5.26441000E-04	-4.47407000E-02	-7.46766000E-04
		-1.24862000E-03	-6.34274000E-02	 8.30647000E-03
		-2.62902000E-03	-4.54130000E-02	 1.59477000E-02
		 5.17964000E-03	-5.88649000E-02	-2.00684000E-02
		 4.60943000E-03	-6.30645000E-02	-2.01070000E-02
		 4.43966000E-03	-4.12802000E-02	-1.74777000E-02
		 2.94035000E-03	-5.88318000E-02	-1.05900000E-02
		 4.89533000E-03	-6.10420000E-02	-1.99987000E-02
		 3.68686000E-03	-4.48207000E-02	-1.74659000E-02
		 2.66464000E-03	-6.30291000E-02	-1.04972000E-02
		 7.24542000E-04	-6.67293000E-02	-1.02462000E-03
		-2.62228000E-03	-6.75713000E-02	 1.79144000E-02
		 7.23158000E-04	-6.50236000E-02	-1.06060000E-03
		-2.89644000E-03	-6.56932000E-02	 1.80480000E-02
		 5.34992000E-04	-4.75181000E-02	-6.72070000E-04
		-9.22011000E-04	-6.70728000E-02	 8.19586000E-03
		-1.87563000E-03	-4.82044000E-02	 1.59907000E-02
		 4.03553000E-03	-6.66848000E-02	-2.00329000E-02
		 4.32140000E-03	-6.49448000E-02	-2.02144000E-02
		 2.91661000E-03	-4.75941000E-02	-1.73607000E-02
		 2.37408000E-03	-6.66491000E-02	-1.02929000E-02
		 1.15267000E-03	-9.98017000E-02	-1.94170000E-03
		-4.44863000E-03	-1.00212000E-01	 1.92428000E-02
		 1.18035000E-03	-1.05430000E-01	-1.94437000E-03
		-4.47317000E-03	-1.06296000E-01	 1.92884000E-02
		 8.84601000E-04	-7.87770000E-02	-1.50501000E-03
		-1.64853000E-03	-9.99997000E-02	 8.63795000E-03
		-4.16508000E-03	-7.94085000E-02	 1.89464000E-02
		 1.16874000E-03	-1.02587000E-01	-1.94172000E-03
		-4.45088000E-03	-1.03169000E-01	 1.91943000E-02
		 9.03511000E-04	-8.37009000E-02	-1.53151000E-03
		-1.52355000E-03	-1.05839000E-01	 8.57747000E-03
		-3.85539000E-03	-8.42774000E-02	 1.90591000E-02
		 6.58739000E-03	-9.93668000E-02	-2.31321000E-02
		 6.54368000E-03	-1.04844000E-01	-2.31780000E-02
		 5.90673000E-03	-7.85010000E-02	-2.19696000E-02
		 3.86902000E-03	-9.95851000E-02	-1.25209000E-02
		 6.56948000E-03	-1.02108000E-01	-2.30828000E-02
		 5.59672000E-03	-8.33854000E-02	-2.20338000E-02
		 3.84857000E-03	-1.05114000E-01	-1.24686000E-02
		 1.06198000E-03	-1.11017000E-01	-1.94925000E-03
		-4.37714000E-03	-1.12238000E-01	 1.92419000E-02
		 1.12369000E-03	-1.08193000E-01	-1.94862000E-03
		-4.42173000E-03	-1.09762000E-01	 1.93920000E-02
		 8.89138000E-04	-8.82875000E-02	-1.56970000E-03
		-1.77404000E-03	-1.11583000E-01	 8.42472000E-03
		-3.38106000E-03	-8.87316000E-02	 1.90246000E-02
		 6.51442000E-03	-1.10293000E-01	-2.31344000E-02