<?xml version="1.0"?>
<VTKFile type="UnstructuredGrid" version="0.1" byte_order="LittleEndian">
	<UnstructuredGrid>
		<Piece NumberOfPoints="522" NumberOfCells="64">
			<Points>
				<DataArray type="Float64" NumberOfComponents="3" format="ascii">
					 1.00000000E+00	 1.00000000E+00	-5.96046000E-08
					 1.00000000E+00	 5.00000000E-01	-5.96046000E-08
					 1.00000000E+00	 5.00000000E-01	 1.00000000E+00
					 1.00000000E+00	 1.00000000E+00	 1.00000000E+00
					 5.00000000E-01	 1.00000000E+00	-5.96046000E-08
					 5.00000000E-01	 5.00000000E-01	-5.96046000E-08
					 5.00000000E-01	 5.00000000E-01	 1.00000000E+00
					 5.00000000E-01	 1.00000000E+00	 1.00000000E+00
					 1.00000000E+00	 7.50000000E-01	-5.96046000E-08
					 1.00000000E+00	 5.00000000E-01	 5.00000000E-01
					 1.00000000E+00	 7.50000000E-01	 1.00000000E+00
					 1.00000000E+00	 1.00000000E+00	 5.00000000E-01
					 7.50000000E-01	 1.00000000E+00	-5.96046000E-08
					 7.50000000E-01	 5.00000000E-01	-5.96046000E-08
					 7.50000000E-01	 5.00000000E-01	 1.00000000E+00
					 7.50000000E-01	 1.00000000E+00	 1.00000000E+00
					 5.00000000E-01	 7.50000000E-01	-5.96046000E-08
					 5.00000000E-01	 5.00000000E-01	 5.00000000E-01
					 5.00000000E-01	 7.50000000E-01	 1.00000000E+00
					 5.00000000E-01	 1.00000000E+00	 5.00000000E-01
					 1.00000000E+00	-1.49012000E-08	-5.96046000E-08
					 1.00000000E+00	-1.49012000E-08	 1.00000000E+00
					 5.00000000E-01	-1.49012000E-08	-5.96046000E-08
					 5.00000000E-01	-1.49012000E-08	 1.00000000E+00
					 1.00000000E+00	 2.50000000E-01	-5.96046000E-08
					 1.00000000E+00	-1.49012000E-08	 5.00000000E-01
					 1.00000000E+00	 2.50000000E-01	 1.00000000E+00
					 7.50000000E-01	-1.49012000E-08	-5.96046000E-08
					 7.50000000E-01	-1.49012000E-08	 1.00000000E+00
					 5.00000000E-01	 2.50000000E-01	-5.96046000E-08
					 5.00000000E-01	-1.49012000E-08	 5.00000000E-01
					 5.00000000E-01	 2.50000000E-01	 1.00000000E+00
					-7.45058000E-09	 1.00000000E+00	-5.96046000E-08
					-7.45058000E-09	 5.00000000E-01	-5.96046000E-08
					-7.45058000E-09	 5.00000000E-01	 1.00000000E+00
					-7.45058000E-09	 1.00000000E+00	 1.00000000E+00
					 2.50000000E-01	 1.00000000E+00	-5.96046000E-08
					 2.50000000E-01	 5.00000000E-01	-5.96046000E-08
					 2.50000000E-01	 5.00000000E-01	 1.00000000E+00
					 2.50000000E-01	 1.00000000E+00	 1.00000000E+00
					-7.45058000E-09	 7.50000000E-01	-5.96046000E-08
					-7.45058000E-09	 5.00000000E-01	 5.00000000E-01
					-7.45058000E-09	 7.50000000E-01	 1.00000000E+00
					-7.45058000E-09	 1.00000000E+00	 5.00000000E-01
					-7.45058000E-09	-1.49012000E-08	-5.96046000E-08
					-7.45058000E-09	-1.49012000E-08	 1.00000000E+00
					 2.50000000E-01	-1.49012000E-08	-5.96046000E-08
					 2.50000000E-01	-1.49012000E-08	 1.00000000E+00
					-7.45058000E-09	 2.50000000E-01	-5.96046000E-08
					-7.45058000E-09	-1.49012000E-08	 5.00000000E-01
					-7.45058000E-09	 2.50000000E-01	 1.00000000E+00
					 1.00000000E+00	 5.00000000E-01	 2.00000000E+00
					 1.00000000E+00	 1.00000000E+00	 2.00000000E+00
					 5.00000000E-01	 5.00000000E-01	 2.00000000E+00
					 5.00000000E-01	 1.00000000E+00	 2.00000000E+00
					 1.00000000E+00	 5.00000000E-01	 1.50000000E+00
					 1.00000000E+00	 7.50000000E-01	 2.00000000E+00
					 1.00000000E+00	 1.00000000E+00	 1.50000000E+00
					 7.50000000E-01	 5.00000000E-01	 2.00000000E+00
					 7.50000000E-01	 1.00000000E+00	 2.00000000E+00
					 5.00000000E-01	 5.00000000E-01	 1.50000000E+00
					 5.00000000E-01	 7.50000000E-01	 2.00000000E+00
					 5.00000000E-01	 1.00000000E+00	 1.50000000E+00
					 1.00000000E+00	-1.49012000E-08	 2.00000000E+00
					 5.00000000E-01	-1.49012000E-08	 2.00000000E+00
					 1.00000000E+00	-1.49012000E-08	 1.50000000E+00
					 1.00000000E+00	 2.50000000E-01	 2.00000000E+00
					 7.50000000E-01	-1.49012000E-08	 2.00000000E+00
					 5.00000000E-01	-1.49012000E-08	 1.50000000E+00
					 5.00000000E-01	 2.50000000E-01	 2.00000000E+00
					-7.45058000E-09	 5.00000000E-01	 2.00000000E+00
					-7.45058000E-09	 1.00000000E+00	 2.00000000E+00
					 2.50000000E-01	 5.00000000E-01	 2.00000000E+00
					 2.50000000E-01	 1.00000000E+00	 2.00000000E+00
					-7.45058000E-09	 5.00000000E-01	 1.50000000E+00
					-7.45058000E-09	 7.50000000E-01	 2.00000000E+00
					-7.45058000E-09	 1.00000000E+00	 1.50000000E+00
					-7.45058000E-09	-1.49012000E-08	 2.00000000E+00
					 2.50000000E-01	-1.49012000E-08	 2.00000000E+00
					-7.45058000E-09	-1.49012000E-08	 1.50000000E+00
					-7.45058000E-09	 2.50000000E-01	 2.00000000E+00
					 1.00000000E+00	 5.00000000E-01	 3.00000000E+00
					 1.00000000E+00	 1.00000000E+00	 3.00000000E+00
					 5.00000000E-01	 5.00000000E-01	 3.00000000E+00
					 5.00000000E-01	 1.00000000E+00	 3.00000000E+00
					 1.00000000E+00	 5.00000000E-01	 2.50000000E+00
					 1.00000000E+00	 7.50000000E-01	 3.00000000E+00
					 1.00000000E+00	 1.00000000E+00	 2.50000000E+00
					 7.50000000E-01	 5.00000000E-01	 3.00000000E+00
					 7.50000000E-01	 1.00000000E+00	 3.00000000E+00
					 5.00000000E-01	 5.00000000E-01	 2.50000000E+00
					 5.00000000E-01	 7.50000000E-01	 3.00000000E+00
					 5.00000000E-01	 1.00000000E+00	 2.50000000E+00
					 1.00000000E+00	-1.49012000E-08	 3.00000000E+00
					 5.00000000E-01	-1.49012000E-08	 3.00000000E+00
					 1.00000000E+00	-1.49012000E-08	 2.50000000E+00
					 1.00000000E+00	 2.50000000E-01	 3.00000000E+00
					 7.50000000E-01	-1.49012000E-08	 3.00000000E+00
					 5.00000000E-01	-1.49012000E-08	 2.50000000E+00
					 5.00000000E-01	 2.50000000E-01	 3.00000000E+00
					-7.45058000E-09	 5.00000000E-01	 3.00000000E+00
					-7.45058000E-09	 1.00000000E+00	 3.00000000E+00
					 2.50000000E-01	 5.00000000E-01	 3.00000000E+00
					 2.50000000E-01	 1.00000000E+00	 3.00000000E+00
					-7.45058000E-09	 5.00000000E-01	 2.50000000E+00
					-7.45058000E-09	 7.50000000E-01	 3.00000000E+00
					-7.45058000E-09	 1.00000000E+00	 2.50000000E+00
					-7.45058000E-09	-1.49012000E-08	 3.00000000E+00
					 2.50000000E-01	-1.49012000E-08	 3.00000000E+00
					-7.45058000E-09	-1.49012000E-08	 2.50000000E+00
					-7.45058000E-09	 2.50000000E-01	 3.00000000E+00
					 1.00000000E+00	 5.00000000E-01	 4.00000000E+00
					 1.00000000E+00	 1.00000000E+00	 4.00000000E+00
					 5.00000000E-01	 5.00000000E-01	 4.00000000E+00
					 5.00000000E-01	 1.00000000E+00	 4.00000000E+00
					 1.00000000E+00	 5.00000000E-01	 3.50000000E+00
					 1.00000000E+00	 7.50000000E-01	 4.00000000E+00
					 1.00000000E+00	 1.00000000E+00	 3.50000000E+00
					 7.50000000E-01	 5.00000000E-01	 4.00000000E+00
					 7.50000000E-01	 1.00000000E+00	 4.00000000E+00
					 5.00000000E-01	 5.00000000E-01	 3.50000000E+00
					 5.00000000E-01	 7.50000000E-01	 4.00000000E+00
					 5.00000000E-01	 1.00000000E+00	 3.50000000E+00
					 1.00000000E+00	-1.49012000E-08	 4.00000000E+00
					 5.00000000E-01	-1.49012000E-08	 4.00000000E+00
					 1.00000000E+00	-1.49012000E-08	 3.50000000E+00
					 1.00000000E+00	 2.50000000E-01	 4.00000000E+00
					 7.50000000E-01	-1.49012000E-08	 4.00000000E+00
					 5.00000000E-01	-1.49012000E-08	 3.50000000E+00
					 5.00000000E-01	 2.50000000E-01	 4.00000000E+00
					-7.45058000E-09	 5.00000000E-01	 4.00000000E+00
					-7.45058000E-09	 1.00000000E+00	 4.00000000E+00
					 2.50000000E-01	 5.00000000E-01	 4.00000000E+00
					 2.50000000E-01	 1.00000000E+00	 4.00000000E+00
					-7.45058000E-09	 5.00000000E-01	 3.50000000E+00
					-7.45058000E-09	 7.50000000E-01	 4.00000000E+00
					-7.45058000E-09	 1.00000000E+00	 3.50000000E+00
					-7.45058000E-09	-1.49012000E-08	 4.00000000E+00
					 2.50000000E-01	-1.49012000E-08	 4.00000000E+00
					-7.45058000E-09	-1.49012000E-08	 3.50000000E+00
					-7.45058000E-09	 2.50000000E-01	 4.00000000E+00
					 1.00000000E+00	 5.00000000E-01	 5.00000000E+00
					 1.00000000E+00	 1.00000000E+00	 5.00000000E+00
					 5.00000000E-01	 5.00000000E-01	 5.00000000E+00
					 5.00000000E-01	 1.00000000E+00	 5.00000000E+00
					 1.00000000E+00	 5.00000000E-01	 4.50000000E+00
					 1.00000000E+00	 7.50000000E-01	 5.00000000E+00
					 1.00000000E+00	 1.00000000E+00	 4.50000000E+00
					 7.50000000E-01	 5.00000000E-01	 5.00000000E+00
					 7.50000000E-01	 1.00000000E+00	 5.00000000E+00
					 5.00000000E-01	 5.00000000E-01	 4.50000000E+00
					 5.00000000E-01	 7.50000000E-01	 5.00000000E+00
					 5.00000000E-01	 1.00000000E+00	 4.50000000E+00
					 1.00000000E+00	-1.49012000E-08	 5.00000000E+00
					 5.00000000E-01	-1.49012000E-08	 5.00000000E+00
					 1.00000000E+00	-1.49012000E-08	 4.50000000E+00
					 1.00000000E+00	 2.50000000E-01	 5.00000000E+00
					 7.50000000E-01	-1.49012000E-08	 5.00000000E+00
					 5.00000000E-01	-1.49012000E-08	 4.50000000E+00
					 5.00000000E-01	 2.50000000E-01	 5.00000000E+00
					-7.45058000E-09	 5.00000000E-01	 5.00000000E+00
					-7.45058000E-09	 1.00000000E+00	 5.00000000E+00
					 2.50000000E-01	 5.00000000E-01	 5.00000000E+00
					 2.50000000E-01	 1.00000000E+00	 5.00000000E+00
					-7.45058000E-09	 5.00000000E-01	 4.50000000E+00
					-7.45058000E-09	 7.50000000E-01	 5.00000000E+00
					-7.45058000E-09	 1.00000000E+00	 4.50000000E+00
					-7.45058000E-09	-1.49012000E-08	 5.00000000E+00
					 2.50000000E-01	-1.49012000E-08	 5.00000000E+00
					-7.45058000E-09	-1.49012000E-08	 4.50000000E+00
					-7.45058000E-09	 2.50000000E-01	 5.00000000E+00
					 1.00000000E+00	 5.00000000E-01	 6.00000000E+00
					 1.00000000E+00	 1.00000000E+00	 6.00000000E+00
					 5.00000000E-01	 5.00000000E-01	 6.00000000E+00
					 5.00000000E-01	 1.00000000E+00	 6.00000000E+00
					 1.00000000E+00	 5.00000000E-01	 5.50000000E+00
					 1.00000000E+00	 7.50000000E-01	 6.00000000E+00
					 1.00000000E+00	 1.00000000E+00	 5.50000000E+00
					 7.50000000E-01	 5.00000000E-01	 6.00000000E+00
					 7.50000000E-01	 1.00000000E+00	 6.00000000E+00
					 5.00000000E-01	 5.00000000E-01	 5.50000000E+00
					 5.00000000E-01	 7.50000000E-01	 6.00000000E+00
					 5.00000000E-01	 1.00000000E+00	 5.50000000E+00
					 1.00000000E+00	-1.49012000E-08	 6.00000000E+00
[...]
			<PointData>
				<DataArray type="Float32" Name="U" NumberOfComponents="3" ComponentName0="D1" ComponentName1="D2" ComponentName2="D3" format="ascii">
					 0.00000000E+00	 0.00000000E+00	 0.00000000E+00
					 0.00000000E+00	 0.00000000E+00	 0.00000000E+00
					-9.87903000E-06	-2.25584000E-03	 8.25570000E-05
					-3.93105000E-04	-2.33905000E-03	 2.47459000E-03
					 0.00000000E+00	 0.00000000E+00	 0.00000000E+00
					 0.00000000E+00	 0.00000000E+00	 0.00000000E+00
					 1.04669000E-05	-2.42271000E-03	 1.09768000E-04
					-3.89347000E-05	-2.60944000E-03	 2.48930000E-03
					 0.00000000E+00	 0.00000000E+00	 0.00000000E+00
					-1.22320000E-06	-4.12002000E-04	 6.88001000E-05
					-2.02818000E-04	-2.24079000E-03	 1.23179000E-03
					-4.34596000E-04	-6.24950000E-04	 1.20528000E-03
					 0.00000000E+00	 0.00000000E+00	 0.00000000E+00
					 0.00000000E+00	 0.00000000E+00	 0.00000000E+00
					-1.04856000E-06	-2.40766000E-03	 9.14779000E-05
					-1.92093000E-04	-2.57441000E-03	 2.49674000E-03
					 0.00000000E+00	 0.00000000E+00	 0.00000000E+00
					-1.39412000E-05	-5.92600000E-04	 4.55545000E-05
					-2.74248000E-05	-2.45118000E-03	 1.29392000E-03
					-4.17744000E-05	-8.15160000E-04	 1.17748000E-03
					 0.00000000E+00	 0.00000000E+00	 0.00000000E+00
					 3.43295000E-04	-2.34330000E-03	-2.27893000E-03
					 0.00000000E+00	 0.00000000E+00	 0.00000000E+00
					 3.21260000E-05	-2.58723000E-03	-2.29365000E-03
					 0.00000000E+00	 0.00000000E+00	 0.00000000E+00
					 4.07155000E-04	-5.98929000E-04	-1.06772000E-03
					 1.32790000E-04	-2.23621000E-03	-1.13718000E-03
					 0.00000000E+00	 0.00000000E+00	 0.00000000E+00
					 1.80501000E-04	-2.54807000E-03	-2.30657000E-03
					 0.00000000E+00	 0.00000000E+00	 0.00000000E+00
					 2.47477000E-05	-7.76559000E-04	-1.09682000E-03
					 2.52336000E-06	-2.44184000E-03	-1.08815000E-03
					 0.00000000E+00	 0.00000000E+00	 0.00000000E+00
					 0.00000000E+00	 0.00000000E+00	 0.00000000E+00
					-3.21843000E-05	-2.25704000E-03	 1.12203000E-04
					 3.29252000E-04	-2.49055000E-03	 2.48572000E-03
					 0.00000000E+00	 0.00000000E+00	 0.00000000E+00
					 0.00000000E+00	 0.00000000E+00	 0.00000000E+00
					 8.56683000E-06	-2.42151000E-03	 7.97868000E-05
					 1.37869000E-04	-2.60186000E-03	 2.45634000E-03
					 0.00000000E+00	 0.00000000E+00	 0.00000000E+00
					-3.13563000E-05	-4.97260000E-04	 5.31889000E-05
					 1.68258000E-04	-2.31724000E-03	 1.31155000E-03
					 2.84986000E-04	-7.50483000E-04	 1.23969000E-03
					 0.00000000E+00	 0.00000000E+00	 0.00000000E+00
					-2.77646000E-04	-2.46132000E-03	-2.25231000E-03
					 0.00000000E+00	 0.00000000E+00	 0.00000000E+00
					-1.22377000E-04	-2.58041000E-03	-2.27864000E-03
					 0.00000000E+00	 0.00000000E+00	 0.00000000E+00
					-3.18439000E-04	-6.86020000E-04	-1.08440000E-03
					-1.78138000E-04	-2.27118000E-03	-1.08951000E-03
					 3.22220000E-05	-9.54446000E-03	 2.14653000E-05
					-3.38201000E-04	-9.82750000E-03	 4.80903000E-03
					 1.94363000E-06	-9.81235000E-03	-8.18907000E-05
					-1.24426000E-05	-9.94399000E-03	 4.79076000E-03
					 4.88258000E-05	-5.28618000E-03	 8.64172000E-05
					-1.64401000E-04	-9.65482000E-03	 2.40167000E-03
					-3.87936000E-04	-5.45430000E-03	 3.65702000E-03
					 1.35130000E-05	-9.73712000E-03	-1.06880000E-05
					-1.83612000E-04	-9.90815000E-03	 4.78257000E-03
					 2.69009000E-05	-5.47292000E-03	 4.11999000E-05
					-2.56997000E-05	-9.84022000E-03	 2.33581000E-03
					 1.19158000E-05	-5.65311000E-03	 3.66951000E-03
					 3.79479000E-04	-9.78210000E-03	-4.81124000E-03
					 3.19455000E-05	-9.95682000E-03	-4.84789000E-03
					 4.12932000E-04	-5.45588000E-03	-3.54625000E-03
					 2.38625000E-04	-9.62863000E-03	-2.37893000E-03
					 2.14549000E-04	-9.85310000E-03	-4.82216000E-03
					 1.99227000E-05	-5.69117000E-03	-3.60484000E-03
					 2.90907000E-05	-9.85035000E-03	-2.42364000E-03
					-1.10545000E-06	-9.65445000E-03	-8.14888000E-05
					 3.17082000E-04	-9.80056000E-03	 4.70719000E-03
					-2.92986000E-06	-9.75340000E-03	-6.51237000E-05
					 1.55706000E-04	-9.97281000E-03	 4.79346000E-03
					-2.59666000E-05	-5.31896000E-03	 5.75471000E-06
					 1.16732000E-04	-9.69844000E-03	 2.26983000E-03
					 3.53104000E-04	-5.44995000E-03	 3.63571000E-03
					-3.33562000E-04	-9.77514000E-03	-4.92233000E-03
					-1.44693000E-04	-9.90530000E-03	-4.88929000E-03
					-3.51540000E-04	-5.46347000E-03	-3.64389000E-03
					-1.39543000E-04	-9.70455000E-03	-2.42506000E-03
					 2.10587000E-05	-2.10370000E-02	-1.13431000E-05
					-4.22685000E-04	-2.11894000E-02	 6.37637000E-03
					 3.90529000E-05	-2.14499000E-02	-3.46760000E-05
					-2.99526000E-04	-2.15890000E-02	 6.40065000E-03
					 1.41583000E-05	-1.49378000E-02	-4.90535000E-05
					-2.35984000E-04	-2.10744000E-02	 3.21350000E-03
					-3.59504000E-04	-1.51062000E-02	 5.66995000E-03
					 3.25263000E-05	-2.12228000E-02	-5.28861000E-05
					-3.59543000E-04	-2.13992000E-02	 6.34234000E-03
					 8.04919000E-06	-1.52206000E-02	-7.72430000E-05
					-1.26266000E-04	-2.15040000E-02	 3.16305000E-03
					-1.49630000E-04	-1.53748000E-02	 5.68993000E-03
					 5.37660000E-04	-2.10259000E-02	-6.48746000E-03
					 3.89897000E-04	-2.14544000E-02	-6.50991000E-03
					 3.81178000E-04	-1.50417000E-02	-5.75853000E-03
					 2.62977000E-04	-2.10130000E-02	-3.24637000E-03
					 4.64821000E-04	-2.12720000E-02	-6.46383000E-03
					 1.75271000E-04	-1.53173000E-02	-5.76437000E-03
					 2.05662000E-04	-2.14170000E-02	-3.27330000E-03
					 5.86049000E-05	-2.16415000E-02	-8.20015000E-05
					-1.31428000E-04	-2.19176000E-02	 6.35793000E-03
					 5.17954000E-05	-2.15642000E-02	-4.35394000E-05
					-1.93776000E-04	-2.17284000E-02	 6.36077000E-03
					 2.75208000E-05	-1.52440000E-02	-7.48145000E-05
					-2.92290000E-05	-2.17301000E-02	 3.12749000E-03
					 9.22742000E-05	-1.54100000E-02	 5.62988000E-03
					 2.31137000E-04	-2.17881000E-02	-6.50129000E-03
					 2.88556000E-04	-2.16665000E-02	-6.51516000E-03
					-2.27790000E-05	-1.53015000E-02	-5.75932000E-03
					 1.45417000E-04	-2.16704000E-02	-3.26953000E-03
					 8.43297000E-05	-3.51298000E-02	-2.58995000E-04
					-5.21017000E-04	-3.53319000E-02	 7.68789000E-03
					 3.04421000E-05	-3.56355000E-02	-1.34666000E-04
					-2.70402000E-04	-3.57102000E-02	 7.64772000E-03
					 2.45797000E-05	-2.77496000E-02	-8.39388000E-05
					-2.44092000E-04	-3.52077000E-02	 3.68129000E-03
					-4.84151000E-04	-2.78632000E-02	 7.03466000E-03
					 6.58506000E-05	-3.54191000E-02	-1.94835000E-04
					-4.03792000E-04	-3.55647000E-02	 7.66833000E-03
					 3.11558000E-05	-2.81971000E-02	-6.49877000E-05
					-1.43088000E-04	-3.56343000E-02	 3.77557000E-03
					-2.96208000E-04	-2.83498000E-02	 7.03352000E-03
					 6.33584000E-04	-3.53130000E-02	-7.99946000E-03
					 4.07686000E-04	-3.56509000E-02	-8.04550000E-03
					 5.84521000E-04	-2.77814000E-02	-7.21442000E-03
					 3.86008000E-04	-3.51889000E-02	-4.12317000E-03
					 5.15546000E-04	-3.54966000E-02	-8.02316000E-03
					 3.41899000E-04	-2.82118000E-02	-7.23103000E-03
					 2.18549000E-04	-3.56237000E-02	-4.08191000E-03
					 4.56511000E-05	-3.58410000E-02	-1.09735000E-04
					 8.62497000E-05	-3.58246000E-02	 7.73452000E-03
					 2.46291000E-05	-3.57571000E-02	-1.54901000E-04
					-1.09059000E-04	-3.58421000E-02	 7.70124000E-03
					 2.85376000E-05	-2.83693000E-02	-7.63063000E-05
					 2.84227000E-05	-3.58318000E-02	 3.78703000E-03
					-8.07611000E-05	-2.85252000E-02	 7.07331000E-03
					 4.47490000E-05	-3.58981000E-02	-7.92345000E-03
					 2.35617000E-04	-3.58081000E-02	-7.98503000E-03
					 1.20722000E-04	-2.84377000E-02	-7.25890000E-03
					 6.53120000E-05	-3.58589000E-02	-4.01572000E-03
					-3.44550000E-05	-5.21891000E-02	-3.25340000E-04
					-8.42007000E-04	-5.23925000E-02	 8.85706000E-03
					 4.76974000E-05	-5.29618000E-02	-3.77164000E-04
					-6.85469000E-04	-5.31734000E-02	 8.88667000E-03
					 5.69137000E-05	-4.33099000E-02	-2.77937000E-04
					-3.84478000E-04	-5.22672000E-02	 4.26660000E-03
					-6.31469000E-04	-4.34829000E-02	 8.34077000E-03
					 5.95109000E-06	-5.26179000E-02	-3.51745000E-04
					-7.63320000E-04	-5.27978000E-02	 8.85247000E-03
					 7.54514000E-05	-4.39090000E-02	-2.69644000E-04
					-3.15200000E-04	-5.30485000E-02	 4.22546000E-03
					-4.42833000E-04	-4.41329000E-02	 8.33966000E-03
					 1.03684000E-03	-5.20660000E-02	-9.65882000E-03
					 8.00146000E-04	-5.29677000E-02	-9.58663000E-03
					 8.12517000E-04	-4.33224000E-02	-8.89840000E-03
					 5.08691000E-04	-5.21194000E-02	-4.98901000E-03
					 9.08340000E-04	-5.25620000E-02	-9.58557000E-03
					 5.99551000E-04	-4.39695000E-02	-8.88277000E-03
					 4.28076000E-04	-5.29453000E-02	-4.95012000E-03
					 9.12592000E-05	-5.36755000E-02	-3.38215000E-04
					-5.89968000E-04	-5.39614000E-02	 8.93720000E-03
					 8.06118000E-05	-5.33596000E-02	-3.38432000E-04
					-6.25811000E-04	-5.35342000E-02	 8.95605000E-03
					 7.99719000E-05	-4.43734000E-02	-2.29147000E-04
					-2.28833000E-04	-5.37855000E-02	 4.22894000E-03
					-2.50126000E-04	-4.45082000E-02	 8.41590000E-03
					 6.46030000E-04	-5.35702000E-02	-9.61387000E-03
					 7.30947000E-04	-5.33239000E-02	-9.60884000E-03
					 3.96144000E-04	-4.43940000E-02	-8.86687000E-03
					 3.44856000E-04	-5.35923000E-02	-4.91430000E-03
					 1.52932000E-04	-7.17888000E-02	-4.44492000E-04
					-6.90314000E-04	-7.19024000E-02	 9.57395000E-03
					 1.20542000E-04	-7.25819000E-02	-4.67346000E-04
					-6.39218000E-04	-7.27263000E-02	 9.52818000E-03
					 8.81410000E-05	-6.16961000E-02	-4.03804000E-04
					-3.03850000E-04	-7.18502000E-02	 4.54240000E-03
					-9.29749000E-04	-6.18804000E-02	 9.28322000E-03
					 1.25693000E-04	-7.21830000E-02	-4.55055000E-04
					-6.35799000E-04	-7.22999000E-02	 9.55555000E-03
					 9.12816000E-05	-6.26022000E-02	-3.90303000E-04
					-2.38522000E-04	-7.26398000E-02	 4.51082000E-03
					-7.70499000E-04	-6.27797000E-02	 9.30957000E-03
					 1.02086000E-03	-7.15560000E-02	-1.03940000E-02
					 8.71382000E-04	-7.25779000E-02	-1.04328000E-02
					 1.06398000E-03	-6.15992000E-02	-1.00113000E-02
					 5.37249000E-04	-7.16582000E-02	-5.40442000E-03
					 9.40990000E-04	-7.21226000E-02	-1.04653000E-02
					 9.41425000E-04	-6.25402000E-02	-1.00841000E-02
					 4.66301000E-04	-7.25617000E-02	-5.48381000E-03
					 7.69100000E-05	-7.32734000E-02	-4.75848000E-04
					-7.03115000E-04	-7.35535000E-02	 9.45831000E-03
					 8.38296000E-05	-7.29045000E-02	-4.59299000E-04
					-6.69123000E-04	-7.30773000E-02	 9.46362000E-03
					 1.34880000E-04	-6.34257000E-02	-4.26002000E-04
					-2.17613000E-04	-7.33849000E-02	 4.54108000E-03
					-7.55147000E-04	-6.36615000E-02	 9.21727000E-03
					 7.76289000E-04	-7.32417000E-02	-1.04989000E-02
					 8.12140000E-04	-7.29105000E-02	-1.04558000E-02
					 8.55978000E-04	-6.34184000E-02	-1.00780000E-02
					 4.33288000E-04	-7.32278000E-02	-5.55683000E-03
					 9.48030000E-05	-9.36870000E-02	-7.50718000E-04
					 1.10863000E-04	-9.37062000E-02	 1.01697000E-02
					 1.24439000E-04	-9.33210000E-02	-7.60750000E-04
					 5.34298000E-04	-9.35596000E-02	 1.01572000E-02
					 1.07004000E-04	-8.23630000E-02	-5.79761000E-04
					 1.99736000E-04	-9.36854000E-02	 4.60339000E-03
					-3.54135000E-04	-8.25079000E-02	 9.83757000E-03
					 1.17532000E-04	-9.35662000E-02	-7.78022000E-04
					 3.09758000E-04	-9.37337000E-02	 1.02550000E-02
					 1.28545000E-04	-8.27446000E-02	-6.16373000E-04
					 3.11118000E-04	-9.33990000E-02	 4.74321000E-03
					-1.61016000E-04	-8.29069000E-02	 9.76425000E-03
					-1.32571000E-04	-9.36610000E-02	-1.17523000E-02
					-2.60185000E-04	-9.34364000E-02	-1.17839000E-02
					 6.18936000E-04	-8.22825000E-02	-1.11092000E-02
					-2.72294000E-05	-9.36937000E-02	-6.09119000E-03
					-2.15853000E-04	-9.35659000E-02	-1.18584000E-02
					 3.43592000E-04	-8.26815000E-02	-1.10689000E-02
					-3.95750000E-05	-9.33682000E-02	-6.19288000E-03
					 1.64846000E-04	-9.29385000E-02	-6.60271000E-04
					 8.33997000E-04	-9.29822000E-02	 1.03180000E-02
					 1.51497000E-04	-9.31516000E-02	-7.39034000E-04
					 6.85530000E-04	-9.33609000E-02	 1.01412000E-02
					 1.22386000E-04	-8.28770000E-02	-5.41284000E-04
					 3.99949000E-04	-9.29674000E-02	 4.95081000E-03
					-1.58351000E-05	-8.30801000E-02	 9.91538000E-03
					-4.02546000E-04	-9.28693000E-02	-1.16906000E-02
					-3.06176000E-04	-9.31799000E-02	-1.16651000E-02
					 1.45057000E-04	-8.27741000E-02	-1.10750000E-02
					-1.17510000E-04	-9.29051000E-02	-6.23746000E-03
					 4.91827000E-04	-1.17726000E-01	-1.39911000E-03
					 2.48003000E-03	-1.18690000E-01	 1.05665000E-02
					 9.83067000E-05	-1.16497000E-01	-9.15171000E-04
					 1.74881000E-03	-1.16835000E-01	 1.08693000E-02
					 1.54473000E-04	-1.05733000E-01	-1.01335000E-03
					 1.29207000E-03	-1.18144000E-01	 4.36014000E-03
					 1.09702000E-03	-1.05870000E-01	 1.04311000E-02
					 2.84361000E-04	-1.17013000E-01	-1.06747000E-03
					 2.07916000E-03	-1.17595000E-01	 1.08052000E-02
					 1.27844000E-04	-1.04767000E-01	-8.71335000E-04
					 9.63639000E-04	-1.16687000E-01	 4.86288000E-03
					 1.12496000E-03	-1.04963000E-01	 1.07481000E-02
					-1.30766000E-03	-1.17412000E-01	-1.21476000E-02
					-1.39162000E-03	-1.16090000E-01	-1.22953000E-02
					-8.47053000E-04	-1.05704000E-01	-1.21191000E-02
					-4.00232000E-04	-1.17549000E-01	-6.71178000E-03
					-1.31058000E-03	-1.16680000E-01	-1.22529000E-02
					-7.91672000E-04	-1.04697000E-01	-1.21558000E-02
					-6.49566000E-04	-1.16264000E-01	-6.68182000E-03
					-2.25237000E-04	-1.15273000E-01	-1.27724000E-03
					 1.71393000E-03	-1.15990000E-01	 1.16303000E-02
					-6.28238000E-05	-1.15919000E-01	-9.92186000E-04
					 1.68417000E-03	-1.16405000E-01	 1.10753000E-02
					 1.66980000E-04	-1.03650000E-01	-9.25998000E-04
					 8.04005000E-04	-1.15578000E-01	 5.05992000E-03
					 1.33875000E-03	-1.03718000E-01	 1.09084000E-02
					-1.95905000E-03	-1.14899000E-01	-1.30939000E-02
					-1.66427000E-03	-1.15552000E-01	-1.25090000E-02
					-8.44074000E-04	-1.03631000E-01	-1.24595000E-02
					-1.03298000E-03	-1.15100000E-01	-7.22528000E-03
					 0.00000000E+00	 0.00000000E+00	 0.00000000E+00
					 0.00000000E+00	 0.00000000E+00	 0.00000000E+00
					 1.42134000E-04	-1.19547000E-02	-3.63951000E-04
					-2.73636000E-03	-1.29412000E-02	 1.25624000E-02
					 0.00000000E+00	 0.00000000E+00	 0.00000000E+00
					 0.00000000E+00	 0.00000000E+00	 0.00000000E+00
					 1.11577000E-04	-1.38445000E-02	-2.74639000E-04
					-9.03664000E-04	-1.49136000E-02	 1.27289000E-02
					 0.00000000E+00	 0.00000000E+00	 0.00000000E+00
					 1.11910000E-04	-2.20717000E-03	-1.06545000E-04
					-1.30350000E-03	-1.21626000E-02	 6.08740000E-03
					-2.29839000E-03	-3.34898000E-03	 6.31239000E-03
					 0.00000000E+00	 0.00000000E+00	 0.00000000E+00
					 0.00000000E+00	 0.00000000E+00	 0.00000000E+00
					 1.24499000E-04	-1.31791000E-02	-3.46648000E-04
					-1.79927000E-03	-1.41955000E-02	 1.25100000E-02
					 0.00000000E+00	 0.00000000E+00	 0.00000000E+00
					 3.54444000E-05	-3.51560000E-03	-1.01458000E-04
					-4.31674000E-04	-1.40676000E-02	 6.12523000E-03
					-4.09528000E-04	-4.69854000E-03	 6.13193000E-03
					 0.00000000E+00	 0.00000000E+00	 0.00000000E+00
					 2.88400000E-03	-1.27020000E-02	-1.32857000E-02
					 0.00000000E+00	 0.00000000E+00	 0.00000000E+00
					 1.15763000E-03	-1.44917000E-02	-1.34119000E-02
					 0.00000000E+00	 0.00000000E+00	 0.00000000E+00
					 2.49634000E-03	-3.23441000E-03	-6.59330000E-03
					 1.49905000E-03	-1.20106000E-02	-6.84632000E-03
					 0.00000000E+00	 0.00000000E+00	 0.00000000E+00
					 2.03259000E-03	-1.38924000E-02	-1.32133000E-02
					 0.00000000E+00	 0.00000000E+00	 0.00000000E+00
					 5.05775000E-04	-4.58477000E-03	-6.38853000E-03
					 6.50088000E-04	-1.38625000E-02	-6.71221000E-03
					 0.00000000E+00	 0.00000000E+00	 0.00000000E+00
					 0.00000000E+00	 0.00000000E+00	 0.00000000E+00
					-9.42314000E-06	-1.40450000E-02	-1.93223000E-04
					 9.36228000E-04	-1.49097000E-02	 1.27381000E-02
					 0.00000000E+00	 0.00000000E+00	 0.00000000E+00
					 0.00000000E+00	 0.00000000E+00	 0.00000000E+00
					 6.80057000E-05	-1.42277000E-02	-2.77490000E-04
					-1.07105000E-05	-1.52152000E-02	 1.27978000E-02
					 0.00000000E+00	 0.00000000E+00	 0.00000000E+00
					-4.34697000E-07	-3.08192000E-03	-5.62042000E-05
					 4.19825000E-04	-1.42069000E-02	 6.01396000E-03
					 1.50431000E-03	-4.17525000E-03	 6.38617000E-03
					 0.00000000E+00	 0.00000000E+00	 0.00000000E+00
					-5.90387000E-04	-1.45039000E-02	-1.31817000E-02
					 0.00000000E+00	 0.00000000E+00	 0.00000000E+00
					 2.82895000E-04	-1.47741000E-02	-1.34291000E-02
					 0.00000000E+00	 0.00000000E+00	 0.00000000E+00
					-1.51087000E-03	-4.08998000E-03	-6.47709000E-03
					-3.21037000E-04	-1.39638000E-02	-6.45469000E-03
					 3.51332000E-04	-4.93857000E-02	-1.33442000E-03
					-3.21979000E-03	-5.06716000E-02	 2.25245000E-02
					 3.65728000E-04	-5.22924000E-02	-1.47611000E-03
					-1.80218000E-03	-5.34917000E-02	 2.25568000E-02
					 3.29863000E-04	-2.78725000E-02	-7.29001000E-04
					-1.44558000E-03	-4.98568000E-02	 1.06117000E-02
					-2.97243000E-03	-2.90619000E-02	 1.79632000E-02
					 3.50752000E-04	-5.10070000E-02	-1.39445000E-03
					-2.51026000E-03	-5.22519000E-02	 2.24799000E-02
					 2.71144000E-04	-3.03464000E-02	-7.41831000E-04
					-6.80432000E-04	-5.27142000E-02	 1.04863000E-02
					-1.38790000E-03	-3.14826000E-02	 1.80054000E-02
					 4.03327000E-03	-4.94695000E-02	-2.53088000E-02
					 2.62788000E-03	-5.25838000E-02	-2.53660000E-02
					 3.50282000E-03	-2.84433000E-02	-1.95500000E-02
					 2.21901000E-03	-4.92469000E-02	-1.33139000E-02
					 3.32983000E-03	-5.11823000E-02	-2.53048000E-02
					 1.87572000E-03	-3.08318000E-02	-1.95929000E-02
					 1.46213000E-03	-5.22783000E-02	-1.33404000E-02
					 3.61046000E-04	-5.38208000E-02	-1.42021000E-03
					-4.00981000E-04	-5.50690000E-02	 2.23993000E-02
					 3.62089000E-04	-5.32161000E-02	-1.43550000E-03
					-1.08738000E-03	-5.44881000E-02	 2.25803000E-02
					 1.78609000E-04	-3.11358000E-02	-6.84911000E-04
					 8.37870000E-06	-5.42449000E-02	 1.04280000E-02
					 2.13011000E-04	-3.23348000E-02	 1.80097000E-02
					 1.07146000E-03	-5.38973000E-02	-2.54158000E-02
					 1.86297000E-03	-5.33906000E-02	-2.54698000E-02
					 1.94047000E-04	-3.17304000E-02	-1.95019000E-02
					 7.39058000E-04	-5.36897000E-02	-1.32686000E-02
					 7.40763000E-04	-1.06592000E-01	-3.08799000E-03
					-4.02744000E-03	-1.08186000E-01	 2.95971000E-02
					 7.57732000E-04	-1.10615000E-01	-3.31379000E-03
					-2.69239000E-03	-1.12344000E-01	 2.95501000E-02
					 5.64382000E-04	-7.56076000E-02	-2.15946000E-03
					-1.62832000E-03	-1.07232000E-01	 1.32044000E-02
					-3.71650000E-03	-7.71136000E-02	 2.64823000E-02
					 7.59208000E-04	-1.08819000E-01	-3.25067000E-03
					-3.35568000E-03	-1.10478000E-01	 2.95098000E-02
					 5.58059000E-04	-7.91723000E-02	-2.27510000E-03
					-1.04310000E-03	-1.11354000E-01	 1.30102000E-02
					-2.36887000E-03	-8.06501000E-02	 2.64398000E-02
					 5.43810000E-03	-1.06029000E-01	-3.61348000E-02
					 4.31027000E-03	-1.10099000E-01	-3.62837000E-02
					 4.83938000E-03	-7.54891000E-02	-3.09378000E-02
					 3.07340000E-03	-1.06192000E-01	-1.95513000E-02
					 4.88027000E-03	-1.08214000E-01	-3.61396000E-02
					 3.42204000E-03	-7.90200000E-02	-3.09876000E-02
					 2.53221000E-03	-1.10216000E-01	-1.96666000E-02
					 7.25974000E-04	-1.13531000E-01	-3.35436000E-03
					-1.65035000E-03	-1.15200000E-01	 2.94700000E-02
					 7.48928000E-04	-1.12253000E-01	-3.35367000E-03
					-2.19410000E-03	-1.13753000E-01	 2.96724000E-02
					 5.07566000E-04	-8.14342000E-02	-2.25708000E-03
					-3.86521000E-04	-1.14233000E-01	 1.27269000E-02
					-1.06881000E-03	-8.29893000E-02	 2.63858000E-02
					 3.11177000E-03	-1.12836000E-01	-3.62858000E-02
					 3.73202000E-03	-1.11676000E-01	-3.64881000E-02
					 1.96867000E-03	-8.12080000E-02	-3.10000000E-02
					 1.93199000E-03	-1.13101000E-01	-1.94877000E-02
					 1.19142000E-03	-1.78697000E-01	-6.13261000E-03
					-4.64046000E-03	-1.80158000E-01	 3.19582000E-02