<?xml version="1.0"?>
<VTKFile type="UnstructuredGrid" version="0.1" byte_order="LittleEndian">
	<UnstructuredGrid>
		<Piece NumberOfPoints="522" NumberOfCells="64">
			<Points>
				<DataArray type="Float64" NumberOfComponents="3" format="ascii">
					 1.00000000E+00	 1.00000000E+00	-5.96046000E-08
					 1.00000000E+00	 5.00000000E-01	-5.96046000E-08
					 1.00000000E+00	 5.00000000E-01	 1.00000000E+00
					 1.00000000E+00	 1.00000000E+00	 1.00000000E+00
					 5.00000000E-01	 1.00000000E+00	-5.96046000E-08
					 5.00000000E-01	 5.00000000E-01	-5.96046000E-08
					 5.00000000E-01	 5.00000000E-01	 1.00000000E+00
					 5.00000000E-01	 1.00000000E+00	 1.00000000E+00
					 1.00000000E+00	 7.50000000E-01	-5.96046000E-08
					 1.00000000E+00	 5.00000000E-01	 5.00000000E-01
					 1.00000000E+00	 7.50000000E-01	 1.00000000E+00
					 1.00000000E+00	 1.00000000E+00	 5.00000000E-01
					 7.50000000E-01	 1.00000000E+00	-5.96046000E-08
					 7.50000000E-01	 5.00000000E-01	-5.96046000E-08
					 7.50000000E-01	 5.00000000E-01	 1.00000000E+00
					 7.50000000E-01	 1.00000000E+00	 1.00000000E+00
					 5.00000000E-01	 7.50000000E-01	-5.96046000E-08
					 5.00000000E-01	 5.00000000E-01	 5.00000000E-01
					 5.00000000E-01	 7.50000000E-01	 1.00000000E+00
					 5.00000000E-01	 1.00000000E+00	 5.00000000E-01
					 1.00000000E+00	-1.49012000E-08	-5.96046000E-08
					 1.00000000E+00	-1.49012000E-08	 1.00000000E+00
					 5.00000000E-01	-1.49012000E-08	-5.96046000E-08
					 5.00000000E-01	-1.49012000E-08	 1.00000000E+00
					 1.00000000E+00	 2.50000000E-01	-5.96046000E-08
					 1.00000000E+00	-1.49012000E-08	 5.00000000E-01
					 1.00000000E+00	 2.50000000E-01	 1.00000000E+00
					 7.50000000E-01	-1.49012000E-08	-5.96046000E-08
					 7.50000000E-01	-1.49012000E-08	 1.00000000E+00
					 5.00000000E-01	 2.50000000E-01	-5.96046000E-08
					 5.00000000E-01	-1.49012000E-08	 5.00000000E-01
					 5.00000000E-01	 2.50000000E-01	 1.00000000E+00
					-7.45058000E-09	 1.00000000E+00	-5.96046000E-08
					-7.45058000E-09	 5.00000000E-01	-5.96046000E-08
					-7.45058000E-09	 5.00000000E-01	 1.00000000E+00
					-7.45058000E-09	 1.00000000E+00	 1.00000000E+00
					 2.50000000E-01	 1.00000000E+00	-5.96046000E-08
					 2.50000000E-01	 5.00000000E-01	-5.96046000E-08
					 2.50000000E-01	 5.00000000E-01	 1.00000000E+00
					 2.50000000E-01	 1.00000000E+00	 1.00000000E+00
					-7.45058000E-09	 7.50000000E-01	-5.96046000E-08
					-7.45058000E-09	 5.00000000E-01	 5.00000000E-01
					-7.45058000E-09	 7.50000000E-01	 1.00000000E+00
					-7.45058000E-09	 1.00000000E+00	 5.00000000E-01
					-7.45058000E-09	-1.49012000E-08	-5.96046000E-08
					-7.45058000E-09	-1.49012000E-08	 1.00000000E+00
					 2.50000000E-01	-1.49012000E-08	-5.96046000E-08
					 2.50000000E-01	-1.49012000E-08	 1.00000000E+00
					-7.45058000E-09	 2.50000000E-01	-5.96046000E-08
					-7.45058000E-09	-1.49012000E-08	 5.00000000E-01
					-7.45058000E-09	 2.50000000E-01	 1.00000000E+00
					 1.00000000E+00	 5.00000000E-01	 2.00000000E+00
					 1.00000000E+00	 1.00000000E+00	 2.00000000E+00
					 5.00000000E-01	 5.00000000E-01	 2.00000000E+00
					 5.00000000E-01	 1.00000000E+00	 2.00000000E+00
					 1.00000000E+00	 5.00000000E-01	 1.50000000E+00
					 1.00000000E+00	 7.50000000E-01	 2.00000000E+00
					 1.00000000E+00	 1.00000000E+00	 1.50000000E+00
					 7.50000000E-01	 5.00000000E-01	 2.00000000E+00
					 7.50000000E-01	 1.00000000E+00	 2.00000000E+00
					 5.00000000E-01	 5.00000000E-01	 1.50000000E+00
					 5.00000000E-01	 7.50000000E-01	 2.00000000E+00
					 5.00000000E-01	 1.00000000E+00	 1.50000000E+00
					 1.00000000E+00	-1.49012000E-08	 2.00000000E+00
					 5.00000000E-01	-1.49012000E-08	 2.00000000E+00
					 1.00000000E+00	-1.49012000E-08	 1.50000000E+00
					 1.00000000E+00	 2.50000000E-01	 2.00000000E+00
					 7.50000000E-01	-1.49012000E-08	 2.00000000E+00
					 5.00000000E-01	-1.49012000E-08	 1.50000000E+00
					 5.00000000E-01	 2.50000000E-01	 2.00000000E+00
					-7.45058000E-09	 5.00000000E-01	 2.00000000E+00
					-7.45058000E-09	 1.00000000E+00	 2.00000000E+00
					 2.50000000E-01	 5.00000000E-01	 2.00000000E+00
					 2.50000000E-01	 1.00000000E+00	 2.00000000E+00
					-7.45058000E-09	 5.00000000E-01	 1.50000000E+00
					-7.45058000E-09	 7.50000000E-01	 2.00000000E+00
					-7.45058000E-09	 1.00000000E+00	 1.50000000E+00
					-7.45058000E-09	-1.49012000E-08	 2.00000000E+00
					 2.50000000E-01	-1.49012000E-08	 2.00000000E+00
					-7.45058000E-09	-1.49012000E-08	 1.50000000E+00
					-7.45058000E-09	 2.50000000E-01	 2.00000000E+00
					 1.00000000E+00	 5.00000000E-01	 3.00000000E+00
					 1.00000000E+00	 1.00000000E+00	 3.00000000E+00
					 5.00000000E-01	 5.00000000E-01	 3.00000000E+00
					 5.00000000E-01	 1.00000000E+00	 3.00000000E+00
					 1.00000000E+00	 5.00000000E-01	 2.50000000E+00
					 1.00000000E+00	 7.50000000E-01	 3.00000000E+00
					 1.00000000E+00	 1.00000000E+00	 2.50000000E+00
					 7.50000000E-01	 5.00000000E-01	 3.00000000E+00
					 7.50000000E-01	 1.00000000E+00	 3.00000000E+00
					 5.00000000E-01	 5.00000000E-01	 2.50000000E+00
					 5.00000000E-01	 7.50000000E-01	 3.00000000E+00
					 5.00000000E-01	 1.00000000E+00	 2.50000000E+00
					 1.00000000E+00	-1.49012000E-08	 3.00000000E+00
					 5.00000000E-01	-1.49012000E-08	 3.00000000E+00
					 1.00000000E+00	-1.49012000E-08	 2.50000000E+00
					 1.00000000E+00	 2.50000000E-01	 3.00000000E+00
					 7.50000000E-01	-1.49012000E-08	 3.00000000E+00
					 5.00000000E-01	-1.49012000E-08	 2.50000000E+00
					 5.00000000E-01	 2.50000000E-01	 3.00000000E+00
					-7.45058000E-09	 5.00000000E-01	 3.00000000E+00
					-7.45058000E-09	 1.00000000E+00	 3.00000000E+00
					 2.50000000E-01	 5.00000000E-01	 3.00000000E+00
					 2.50000000E-01	 1.00000000E+00	 3.00000000E+00
					-7.45058000E-09	 5.00000000E-01	 2.50000000E+00
					-7.45058000E-09	 7.50000000E-01	 3.00000000E+00
					-7.45058000E-09	 1.00000000E+00	 2.50000000E+00
					-7.45058000E-09	-1.49012000E-08	 3.00000000E+00
					 2.50000000E-01	-1.49012000E-08	 3.00000000E+00
					-7.45058000E-09	-1.49012000E-08	 2.50000000E+00
					-7.45058000E-09	 2.50000000E-01	 3.00000000E+00
					 1.00000000E+00	 5.00000000E-01	 4.00000000E+00
					 1.00000000E+00	 1.00000000E+00	 4.00000000E+00
					 5.00000000E-01	 5.00000000E-01	 4.00000000E+00
					 5.00000000E-01	 1.00000000E+00	 4.00000000E+00
					 1.00000000E+00	 5.00000000E-01	 3.50000000E+00
					 1.00000000E+00	 7.50000000E-01	 4.00000000E+00
					 1.00000000E+00	 1.00000000E+00	 3.50000000E+00
					 7.50000000E-01	 5.00000000E-01	 4.00000000E+00
					 7.50000000E-01	 1.00000000E+00	 4.00000000E+00
					 5.00000000E-01	 5.00000000E-01	 3.50000000E+00
					 5.00000000E-01	 7.50000000E-01	 4.00000000E+00
					 5.00000000E-01	 1.00000000E+00	 3.50000000E+00
					 1.00000000E+00	-1.49012000E-08	 4.00000000E+00
					 5.00000000E-01	-1.49012000E-08	 4.00000000E+00
					 1.00000000E+00	-1.49012000E-08	 3.50000000E+00
					 1.00000000E+00	 2.50000000E-01	 4.00000000E+00
					 7.50000000E-01	-1.49012000E-08	 4.00000000E+00
					 5.00000000E-01	-1.49012000E-08	 3.50000000E+00
					 5.00000000E-01	 2.50000000E-01	 4.00000000E+00
					-7.45058000E-09	 5.00000000E-01	 4.00000000E+00
					-7.45058000E-09	 1.00000000E+00	 4.00000000E+00
					 2.50000000E-01	 5.00000000E-01	 4.00000000E+00
					 2.50000000E-01	 1.00000000E+00	 4.00000000E+00
					-7.45058000E-09	 5.00000000E-01	 3.50000000E+00
					-7.45058000E-09	 7.50000000E-01	 4.00000000E+00
					-7.45058000E-09	 1.00000000E+00	 3.50000000E+00
					-7.45058000E-09	-1.49012000E-08	 4.00000000E+00
					 2.50000000E-01	-1.49012000E-08	 4.00000000E+00
					-7.45058000E-09	-1.49012000E-08	 3.50000000E+00
					-7.45058000E-09	 2.50000000E-01	 4.00000000E+00
					 1.00000000E+00	 5.00000000E-01	 5.00000000E+00
					 1.00000000E+00	 1.00000000E+00	 5.00000000E+00
					 5.00000000E-01	 5.00000000E-01	 5.00000000E+00
					 5.00000000E-01	 1.00000000E+00	 5.00000000E+00
					 1.00000000E+00	 5.00000000E-01	 4.50000000E+00
					 1.00000000E+00	 7.50000000E-01	 5.00000000E+00
					 1.00000000E+00	 1.00000000E+00	 4.50000000E+00
					 7.50000000E-01	 5.00000000E-01	 5.00000000E+00
					 7.50000000E-01	 1.00000000E+00	 5.00000000E+00
					 5.00000000E-01	 5.00000000E-01	 4.50000000E+00
					 5.00000000E-01	 7.50000000E-01	 5.00000000E+00
					 5.00000000E-01	 1.00000000E+00	 4.50000000E+00
					 1.00000000E+00	-1.49012000E-08	 5.00000000E+00
					 5.00000000E-01	-1.49012000E-08	 5.00000000E+00
					 1.00000000E+00	-1.49012000E-08	 4.50000000E+00
					 1.00000000E+00	 2.50000000E-01	 5.00000000E+00
					 7.50000000E-01	-1.49012000E-08	 5.00000000E+00
					 5.00000000E-01	-1.49012000E-08	 4.50000000E+00
					 5.00000000E-01	 2.50000000E-01	 5.00000000E+00
					-7.45058000E-09	 5.00000000E-01	 5.00000000E+00
					-7.45058000E-09	 1.00000000E+00	 5.00000000E+00
					 2.50000000E-01	 5.00000000E-01	 5.00000000E+00
					 2.50000000E-01	 1.00000000E+00	 5.00000000E+00
					-7.45058000E-09	 5.00000000E-01	 4.50000000E+00
					-7.45058000E-09	 7.50000000E-01	 5.00000000E+00
					-7.45058000E-09	 1.00000000E+00	 4.50000000E+00
					-7.45058000E-09	-1.49012000E-08	 5.00000000E+00
					 2.50000000E-01	-1.49012000E-08	 5.00000000E+00
					-7.45058000E-09	-1.49012000E-08	 4.50000000E+00
					-7.45058000E-09	 2.50000000E-01	 5.00000000E+00
					 1.00000000E+00	 5.00000000E-01	 6.00000000E+00
					 1.00000000E+00	 1.00000000E+00	 6.00000000E+00
					 5.00000000E-01	 5.00000000E-01	 6.00000000E+00
					 5.00000000E-01	 1.00000000E+00	 6.00000000E+00
					 1.00000000E+00	 5.00000000E-01	 5.50000000E+00
					 1.00000000E+00	 7.50000000E-01	 6.00000000E+00
					 1.00000000E+00	 1.00000000E+00	 5.50000000E+00
					 7.50000000E-01	 5.00000000E-01	 6.00000000E+00
					 7.50000000E-01	 1.00000000E+00	 6.00000000E+00
					 5.00000000E-01	 5.00000000E-01	 5.50000000E+00
					 5.00000000E-01	 7.50000000E-01	 6.00000000E+00
					 5.00000000E-01	 1.00000000E+00	 5.50000000E+00
					 1.00000000E+00	-1.49012000E-08	 6.00000000E+00
[...]
			<PointData>
				<DataArray type="Float32" Name="U" NumberOfComponents="3" ComponentName0="D1" ComponentName1="D2" ComponentName2="D3" format="ascii">
					 0.00000000E+00	 0.00000000E+00	 0.00000000E+00
					 0.00000000E+00	 0.00000000E+00	 0.00000000E+00
					-5.71453000E-06	 3.35268000E-03	 1.66372000E-05
					 9.34784000E-04	 3.54387000E-03	-3.65075000E-03
					 0.00000000E+00	 0.00000000E+00	 0.00000000E+00
					 0.00000000E+00	 0.00000000E+00	 0.00000000E+00
					-2.48853000E-06	 4.04382000E-03	 1.06489000E-05
					 4.54451000E-04	 4.25417000E-03	-3.70030000E-03
					 0.00000000E+00	 0.00000000E+00	 0.00000000E+00
					-3.42300000E-06	 5.52280000E-04	 1.08915000E-05
					 4.65140000E-04	 3.36261000E-03	-1.80959000E-03
					 7.84110000E-04	 8.57093000E-04	-1.83404000E-03
					 0.00000000E+00	 0.00000000E+00	 0.00000000E+00
					 0.00000000E+00	 0.00000000E+00	 0.00000000E+00
					-3.96629000E-06	 3.77958000E-03	 1.29700000E-05
					 6.91716000E-04	 3.98008000E-03	-3.63997000E-03
					 0.00000000E+00	 0.00000000E+00	 0.00000000E+00
					-7.98720000E-07	 1.03998000E-03	 7.09419000E-06
					 2.25707000E-04	 4.05989000E-03	-1.79866000E-03
					 2.41015000E-04	 1.34240000E-03	-1.78503000E-03
					 0.00000000E+00	 0.00000000E+00	 0.00000000E+00
					-9.47871000E-04	 3.58278000E-03	 3.67843000E-03
					 0.00000000E+00	 0.00000000E+00	 0.00000000E+00
					-4.58843000E-04	 4.29348000E-03	 3.71572000E-03
					 0.00000000E+00	 0.00000000E+00	 0.00000000E+00
					-7.91762000E-04	 8.76810000E-04	 1.85544000E-03
					-4.77125000E-04	 3.38260000E-03	 1.84090000E-03
					 0.00000000E+00	 0.00000000E+00	 0.00000000E+00
					-6.99834000E-04	 4.01930000E-03	 3.66036000E-03
					 0.00000000E+00	 0.00000000E+00	 0.00000000E+00
					-2.41832000E-04	 1.36038000E-03	 1.79974000E-03
					-2.30527000E-04	 4.07968000E-03	 1.81792000E-03
					 0.00000000E+00	 0.00000000E+00	 0.00000000E+00
					 0.00000000E+00	 0.00000000E+00	 0.00000000E+00
					 3.87508000E-07	 4.26592000E-03	 8.11291000E-06
					-2.60597000E-05	 4.45827000E-03	-3.65882000E-03
					 0.00000000E+00	 0.00000000E+00	 0.00000000E+00
					 0.00000000E+00	 0.00000000E+00	 0.00000000E+00
					-1.05410000E-06	 4.23577000E-03	 8.83864000E-06
					 2.17008000E-04	 4.43755000E-03	-3.71931000E-03
					 0.00000000E+00	 0.00000000E+00	 0.00000000E+00
					 1.15670000E-06	 1.03511000E-03	 6.71800000E-06
					-1.28001000E-05	 4.27673000E-03	-1.74260000E-03
					-3.18568000E-04	 1.32561000E-03	-1.83791000E-03
					 0.00000000E+00	 0.00000000E+00	 0.00000000E+00
					 2.93645000E-05	 4.49548000E-03	 3.67032000E-03
					 0.00000000E+00	 0.00000000E+00	 0.00000000E+00
					-2.17875000E-04	 4.47677000E-03	 3.73141000E-03
					 0.00000000E+00	 0.00000000E+00	 0.00000000E+00
					 3.23119000E-04	 1.34241000E-03	 1.85156000E-03
					 1.44390000E-05	 4.29479000E-03	 1.75742000E-03
					-2.06632000E-06	 1.41598000E-02	-2.07157000E-05
					 9.64437000E-04	 1.42454000E-02	-6.41284000E-03
					 1.79521000E-06	 1.49692000E-02	-2.86760000E-05
					 6.67891000E-04	 1.50661000E-02	-6.44606000E-03
					-4.99380000E-06	 7.98584000E-03	 6.19049000E-06
					 4.78943000E-04	 1.41715000E-02	-3.14925000E-03
					 1.01597000E-03	 8.15066000E-03	-5.19799000E-03
					 5.09392000E-08	 1.45958000E-02	-2.49442000E-05
					 8.17264000E-04	 1.46900000E-02	-6.44585000E-03
					-1.89621000E-06	 8.79507000E-03	-1.03467000E-06
					 3.35650000E-04	 1.49876000E-02	-3.18402000E-03
					 6.05854000E-04	 8.96927000E-03	-5.23073000E-03
					-9.68152000E-04	 1.43380000E-02	 6.36658000E-03
					-6.63384000E-04	 1.51578000E-02	 6.38331000E-03
					-1.02753000E-03	 8.21522000E-03	 5.20402000E-03
					-4.83021000E-04	 1.42160000E-02	 3.10681000E-03
					-8.16493000E-04	 1.47826000E-02	 6.39088000E-03
					-6.09150000E-04	 9.03420000E-03	 5.22190000E-03
					-3.31828000E-04	 1.50320000E-02	 3.12554000E-03
					 4.84384000E-06	 1.54910000E-02	-3.27721000E-05
					 3.83675000E-04	 1.55914000E-02	-6.42532000E-03
					 3.34252000E-06	 1.52631000E-02	-3.15007000E-05
					 5.25851000E-04	 1.53596000E-02	-6.45094000E-03
					 7.06183000E-07	 9.20077000E-03	-4.06894000E-06
					 1.93007000E-04	 1.55111000E-02	-3.16307000E-03
					 2.11465000E-04	 9.38268000E-03	-5.20842000E-03
					-3.72594000E-04	 1.56805000E-02	 6.35406000E-03
					-5.18011000E-04	 1.54506000E-02	 6.38237000E-03
					-2.07726000E-04	 9.44566000E-03	 5.19350000E-03
					-1.82938000E-04	 1.55537000E-02	 3.09636000E-03
					 5.99538000E-07	 2.93266000E-02	-1.09340000E-04
					 5.47662000E-04	 2.92897000E-02	-7.61986000E-03
					 4.07464000E-06	 2.98493000E-02	-1.18631000E-04
					 5.01431000E-04	 2.98140000E-02	-7.65362000E-03
					 1.18414000E-06	 2.14251000E-02	-5.99761000E-05
					 2.74509000E-04	 2.93030000E-02	-3.78098000E-03
					 8.00977000E-04	 2.14500000E-02	-7.20047000E-03
					 2.46816000E-06	 2.95945000E-02	-1.14384000E-04
					 5.24808000E-04	 2.95577000E-02	-7.67521000E-03
					 4.89099000E-06	 2.21351000E-02	-6.92531000E-05
					 2.52960000E-04	 2.98261000E-02	-3.83801000E-03
					 6.30257000E-04	 2.21646000E-02	-7.23732000E-03
					-5.45856000E-04	 2.94104000E-02	 7.40005000E-03
					-4.92660000E-04	 2.99342000E-02	 7.41541000E-03
					-7.97749000E-04	 2.15612000E-02	 7.07709000E-03
					-2.73177000E-04	 2.93607000E-02	 3.56204000E-03
					-5.19249000E-04	 2.96793000E-02	 7.44527000E-03
					-6.19448000E-04	 2.22747000E-02	 7.09527000E-03
					-2.44667000E-04	 2.98847000E-02	 3.60043000E-03
					 6.94813000E-06	 3.03205000E-02	-1.27059000E-04
					 4.61273000E-04	 3.02915000E-02	-7.63750000E-03
					 5.55935000E-06	 3.00920000E-02	-1.22650000E-04
					 4.81560000E-04	 3.00582000E-02	-7.63332000E-03
					 7.78647000E-06	 2.26746000E-02	-7.60652000E-05
					 2.32460000E-04	 3.03003000E-02	-3.84876000E-03
					 4.70107000E-04	 2.27129000E-02	-7.21672000E-03
					-4.46560000E-04	 3.04095000E-02	 7.38250000E-03
					-4.69716000E-04	 3.01770000E-02	 7.38727000E-03
					-4.53116000E-04	 2.28198000E-02	 7.06090000E-03
					-2.18402000E-04	 3.03582000E-02	 3.59421000E-03
					-4.80149000E-06	 4.51976000E-02	-2.15785000E-04
					-3.45654000E-05	 4.50882000E-02	-7.41073000E-03
					-2.09065000E-06	 4.52331000E-02	-2.16862000E-04
					 8.95921000E-05	 4.51189000E-02	-7.42265000E-03
					-2.38815000E-06	 3.73805000E-02	-1.63624000E-04
					-1.82574000E-05	 4.51603000E-02	-3.75509000E-03
					 2.55597000E-04	 3.73040000E-02	-7.64761000E-03
					-3.47678000E-06	 4.51998000E-02	-2.16312000E-04
					 2.75170000E-05	 4.50862000E-02	-7.45475000E-03
					 6.25600000E-07	 3.76649000E-02	-1.69745000E-04
					 4.36963000E-05	 4.51934000E-02	-3.79897000E-03
					 3.07198000E-04	 3.75861000E-02	-7.67256000E-03
					 2.41785000E-05	 4.51970000E-02	 6.98082000E-03
					-9.43306000E-05	 4.52294000E-02	 6.99105000E-03
					-2.60551000E-04	 3.74219000E-02	 7.32105000E-03
					 8.46029000E-06	 4.52131000E-02	 3.32397000E-03
					-3.52110000E-05	 4.51970000E-02	 7.02391000E-03
					-3.05978000E-04	 3.77050000E-02	 7.33397000E-03
					-4.80281000E-05	 4.52480000E-02	 3.36573000E-03
					 1.30327000E-06	 4.53815000E-02	-2.19534000E-04
					 2.13140000E-04	 4.52696000E-02	-7.41403000E-03
					-4.71422000E-07	 4.52915000E-02	-2.17730000E-04
					 1.51063000E-04	 4.51783000E-02	-7.39040000E-03
					 3.77269000E-06	 3.79936000E-02	-1.76442000E-04
					 1.06416000E-04	 4.53419000E-02	-3.82423000E-03
					 3.62054000E-04	 3.79199000E-02	-7.66029000E-03
					-2.10936000E-04	 4.53808000E-02	 6.97730000E-03
					-1.52508000E-04	 4.52884000E-02	 6.95731000E-03
					-3.54456000E-04	 3.80383000E-02	 7.30835000E-03
					-1.03947000E-04	 4.53977000E-02	 3.38563000E-03
					-3.23955000E-06	 5.91639000E-02	-3.01591000E-04
					-4.32168000E-04	 5.90467000E-02	-6.49839000E-03
					-1.38289000E-06	 5.88244000E-02	-2.88544000E-04
					-2.61803000E-04	 5.87007000E-02	-6.48646000E-03
					-5.62935000E-06	 5.24890000E-02	-2.61393000E-04
					-2.15928000E-04	 5.91275000E-02	-3.38072000E-03
					-2.65880000E-04	 5.23757000E-02	-6.99416000E-03
					-2.70957000E-06	 5.89734000E-02	-2.95454000E-04
					-3.47185000E-04	 5.88512000E-02	-6.51029000E-03
					-3.36745000E-06	 5.23107000E-02	-2.56609000E-04
					-1.31401000E-04	 5.87845000E-02	-3.38555000E-03
					-1.09109000E-04	 5.21897000E-02	-6.99383000E-03
					 4.22794000E-04	 5.91255000E-02	 5.89679000E-03
					 2.56181000E-04	 5.87848000E-02	 5.91131000E-03
					 2.52932000E-04	 5.24704000E-02	 6.47255000E-03
					 2.08558000E-04	 5.91663000E-02	 2.77762000E-03
					 3.39116000E-04	 5.89330000E-02	 5.92140000E-03
					 1.00728000E-04	 5.22874000E-02	 6.48285000E-03
					 1.27957000E-04	 5.88266000E-02	 2.80884000E-03
					 2.77115000E-06	 5.86462000E-02	-2.77312000E-04
					-9.15251000E-05	 5.85210000E-02	-6.47407000E-03
					 3.73440000E-07	 5.87140000E-02	-2.82081000E-04
					-1.77261000E-04	 5.85896000E-02	-6.46324000E-03
					 2.60457000E-07	 5.22790000E-02	-2.53673000E-04
					-4.44141000E-05	 5.86047000E-02	-3.39027000E-03
					 4.21125000E-05	 5.21558000E-02	-6.98547000E-03
					 9.48085000E-05	 5.86104000E-02	 5.92183000E-03
					 1.75419000E-04	 5.86760000E-02	 5.90119000E-03
					-4.28060000E-05	 5.22561000E-02	 6.48118000E-03
					 4.97068000E-05	 5.86503000E-02	 2.83609000E-03
					 3.61546000E-05	 7.05848000E-02	-3.66655000E-04
					-5.82634000E-04	 7.04924000E-02	-5.52437000E-03
					 3.84775000E-05	 7.00321000E-02	-3.30705000E-04
					-4.53689000E-04	 6.99384000E-02	-5.47867000E-03
					 9.30334000E-06	 6.51758000E-02	-3.38530000E-04
					-2.72632000E-04	 7.05544000E-02	-2.95038000E-03
					-5.24976000E-04	 6.50709000E-02	-5.98504000E-03
					 3.71404000E-05	 7.02914000E-02	-3.47709000E-04
					-5.18578000E-04	 7.01982000E-02	-5.51508000E-03
					 1.11234000E-05	 6.47247000E-02	-3.12963000E-04
					-2.07525000E-04	 7.00020000E-02	-2.92535000E-03
					-3.64509000E-04	 6.46148000E-02	-5.95669000E-03
					 6.53897000E-04	 7.05510000E-02	 4.79197000E-03
					 5.30148000E-04	 6.99990000E-02	 4.81782000E-03
					 5.40232000E-04	 6.51361000E-02	 5.31138000E-03
					 3.45723000E-04	 7.05846000E-02	 2.21847000E-03
					 5.91612000E-04	 7.02590000E-02	 4.81932000E-03
					 3.84682000E-04	 6.46859000E-02	 5.33247000E-03
					 2.84437000E-04	 7.00328000E-02	 2.26416000E-03
					 4.32822000E-05	 6.96023000E-02	-2.96862000E-04
					-3.19942000E-04	 6.95119000E-02	-5.45517000E-03
					 4.04576000E-05	 6.98018000E-02	-3.14261000E-04
					-3.86984000E-04	 6.97080000E-02	-5.44110000E-03
					 1.58168000E-05	 6.44274000E-02	-2.89527000E-04
					-1.40346000E-04	 6.95742000E-02	-2.92110000E-03
					-2.01035000E-04	 6.43185000E-02	-5.93836000E-03
					 4.04174000E-04	 6.95755000E-02	 4.86165000E-03
					 4.66711000E-04	 6.97695000E-02	 4.81348000E-03
					 2.30076000E-04	 6.43949000E-02	 5.35952000E-03
					 2.25510000E-04	 6.96057000E-02	 2.32761000E-03
					 1.08297000E-04	 8.03761000E-02	-4.11354000E-04
					-8.20762000E-04	 8.03493000E-02	-5.10975000E-03
					 1.11062000E-04	 7.94471000E-02	-3.59615000E-04
					-8.12802000E-04	 7.94190000E-02	-5.06246000E-03
					 7.17304000E-05	 7.55575000E-02	-3.85277000E-04
					-3.58385000E-04	 8.03652000E-02	-2.74879000E-03
					-6.66598000E-04	 7.54959000E-02	-5.23179000E-03
					 1.09371000E-04	 7.99126000E-02	-3.86164000E-04
					-8.16004000E-04	 7.98873000E-02	-5.11641000E-03
					 7.37771000E-05	 7.48494000E-02	-3.45006000E-04
					-3.48888000E-04	 7.94325000E-02	-2.73074000E-03
					-6.03106000E-04	 7.47899000E-02	-5.17404000E-03
					 1.03704000E-03	 8.03905000E-02	 4.30230000E-03
					 1.03016000E-03	 7.94683000E-02	 4.34421000E-03
					 8.06583000E-04	 7.55424000E-02	 4.45558000E-03
					 5.72674000E-04	 8.03831000E-02	 1.92950000E-03
					 1.03337000E-03	 7.99296000E-02	 4.35639000E-03
					 7.46463000E-04	 7.48419000E-02	 4.48407000E-03
					 5.70253000E-04	 7.94580000E-02	 2.01170000E-03
					 1.12373000E-04	 7.85283000E-02	-3.11071000E-04
					-8.11352000E-04	 7.84917000E-02	-5.03346000E-03
					 1.12312000E-04	 7.89857000E-02	-3.34541000E-04
					-8.11615000E-04	 7.89551000E-02	-5.00481000E-03
					 7.60197000E-05	 7.42079000E-02	-3.05150000E-04
					-3.45708000E-04	 7.85064000E-02	-2.73679000E-03
					-5.28156000E-04	 7.41508000E-02	-5.14614000E-03
					 1.03071000E-03	 7.85505000E-02	 4.40506000E-03
					 1.02991000E-03	 7.90095000E-02	 4.33091000E-03
					 6.79863000E-04	 7.42068000E-02	 4.53959000E-03
					 5.70584000E-04	 7.85423000E-02	 2.11077000E-03
					 1.66911000E-04	 8.99973000E-02	-4.29346000E-04
					-1.01312000E-03	 9.00258000E-02	-5.20260000E-03
					 1.67127000E-04	 8.88646000E-02	-3.98761000E-04
					-9.73344000E-04	 8.88693000E-02	-5.19612000E-03
					 1.43769000E-04	 8.52024000E-02	-4.24804000E-04
					-4.25669000E-04	 9.00004000E-02	-2.79082000E-03
					-9.49619000E-04	 8.51602000E-02	-5.13093000E-03
					 1.66477000E-04	 8.94222000E-02	-4.16314000E-04
					-9.91007000E-04	 8.94343000E-02	-5.19611000E-03
					 1.43085000E-04	 8.41052000E-02	-3.74803000E-04
					-4.21342000E-04	 8.88654000E-02	-2.78460000E-03
					-9.42391000E-04	 8.40797000E-02	-5.11826000E-03
					 1.38939000E-03	 9.00530000E-02	 4.30638000E-03
					 1.38348000E-03	 8.88802000E-02	 4.37361000E-03
					 1.26959000E-03	 8.52445000E-02	 4.29359000E-03
					 7.79244000E-04	 9.00281000E-02	 1.92369000E-03
					 1.38417000E-03	 8.94594000E-02	 4.34311000E-03
					 1.27172000E-03	 8.41263000E-02	 4.35329000E-03
					 7.81407000E-04	 8.88686000E-02	 1.98154000E-03
					 1.92534000E-04	 8.77329000E-02	-3.53983000E-04
					-9.75146000E-04	 8.78270000E-02	-5.22851000E-03
					 1.74849000E-04	 8.83114000E-02	-3.76336000E-04
					-9.75599000E-04	 8.83651000E-02	-5.22968000E-03
					 1.54205000E-04	 8.29927000E-02	-3.17577000E-04
					-4.02569000E-04	 8.77858000E-02	-2.76092000E-03
					-9.78914000E-04	 8.29747000E-02	-5.11215000E-03
					 1.42053000E-03	 8.76918000E-02	 4.44118000E-03
					 1.40489000E-03	 8.82969000E-02	 4.40822000E-03
					 1.30201000E-03	 8.29956000E-02	 4.41984000E-03
					 8.04638000E-04	 8.76974000E-02	 2.04091000E-03
					 0.00000000E+00	 0.00000000E+00	 0.00000000E+00
					 0.00000000E+00	 0.00000000E+00	 0.00000000E+00
					-2.22198000E-05	-1.30384000E-02	-2.24450000E-04
					-3.13673000E-03	-1.40147000E-02	 1.32798000E-02
					 0.00000000E+00	 0.00000000E+00	 0.00000000E+00
					 0.00000000E+00	 0.00000000E+00	 0.00000000E+00
					-4.40000000E-05	-1.52461000E-02	-3.43270000E-04
					-1.38928000E-03	-1.62755000E-02	 1.33184000E-02
					 0.00000000E+00	 0.00000000E+00	 0.00000000E+00
					 2.94404000E-05	-2.48055000E-03	-7.32141000E-05
					-1.58322000E-03	-1.32175000E-02	 6.48683000E-03
					-2.66660000E-03	-3.70363000E-03	 6.78157000E-03
					 0.00000000E+00	 0.00000000E+00	 0.00000000E+00
					 0.00000000E+00	 0.00000000E+00	 0.00000000E+00
					-2.95490000E-05	-1.44404000E-02	-2.90846000E-04
					-2.24542000E-03	-1.54412000E-02	 1.31771000E-02
					 0.00000000E+00	 0.00000000E+00	 0.00000000E+00
					-6.93869000E-06	-4.05716000E-03	-1.21643000E-04
					-7.18708000E-04	-1.54376000E-02	 6.32104000E-03
					-6.70248000E-04	-5.25650000E-03	 6.54801000E-03
					 0.00000000E+00	 0.00000000E+00	 0.00000000E+00
					 3.07230000E-03	-1.36077000E-02	-1.37912000E-02
					 0.00000000E+00	 0.00000000E+00	 0.00000000E+00
					 1.31505000E-03	-1.58826000E-02	-1.40722000E-02
					 0.00000000E+00	 0.00000000E+00	 0.00000000E+00
					 2.71622000E-03	-3.57850000E-03	-6.95553000E-03
					 1.52963000E-03	-1.30100000E-02	-6.95596000E-03
					 0.00000000E+00	 0.00000000E+00	 0.00000000E+00
					 2.18742000E-03	-1.50380000E-02	-1.38211000E-02
					 0.00000000E+00	 0.00000000E+00	 0.00000000E+00
					 6.69035000E-04	-5.16147000E-03	-6.81051000E-03
					 6.32186000E-04	-1.52402000E-02	-7.02906000E-03
					 0.00000000E+00	 0.00000000E+00	 0.00000000E+00
					 0.00000000E+00	 0.00000000E+00	 0.00000000E+00
					-8.03680000E-05	-1.57375000E-02	-4.03912000E-04
					 3.54390000E-04	-1.66780000E-02	 1.31070000E-02
					 0.00000000E+00	 0.00000000E+00	 0.00000000E+00
					 0.00000000E+00	 0.00000000E+00	 0.00000000E+00
					-6.04886000E-05	-1.57878000E-02	-3.82246000E-04
					-5.28959000E-04	-1.67754000E-02	 1.33301000E-02
					 0.00000000E+00	 0.00000000E+00	 0.00000000E+00
					-5.81244000E-05	-3.81764000E-03	-1.46928000E-04
					 1.33985000E-04	-1.58924000E-02	 6.06745000E-03
					 1.35965000E-03	-4.96584000E-03	 6.70945000E-03
					 0.00000000E+00	 0.00000000E+00	 0.00000000E+00
					-4.71792000E-04	-1.63212000E-02	-1.39684000E-02
					 0.00000000E+00	 0.00000000E+00	 0.00000000E+00
					 4.31146000E-04	-1.63941000E-02	-1.41586000E-02
					 0.00000000E+00	 0.00000000E+00	 0.00000000E+00
					-1.44544000E-03	-4.89061000E-03	-7.02906000E-03
					-2.79774000E-04	-1.57215000E-02	-6.88826000E-03
					-1.73960000E-04	-5.20134000E-02	-1.06405000E-03
					-3.98582000E-03	-5.31642000E-02	 2.26631000E-02
					-1.76659000E-04	-5.52071000E-02	-1.29661000E-03
					-2.78445000E-03	-5.63616000E-02	 2.25004000E-02
					-8.53838000E-05	-2.98544000E-02	-5.43093000E-04
					-2.07951000E-03	-5.24550000E-02	 1.07022000E-02
					-3.63395000E-03	-3.10141000E-02	 1.85964000E-02
					-1.73963000E-04	-5.37404000E-02	-1.19102000E-03
					-3.38448000E-03	-5.48931000E-02	 2.25390000E-02
					-1.04473000E-04	-3.26242000E-02	-7.22545000E-04
					-1.47732000E-03	-5.56510000E-02	 1.04691000E-02
					-2.11126000E-03	-3.37816000E-02	 1.84946000E-02
					 3.64271000E-03	-5.19929000E-02	-2.48608000E-02
					 2.43810000E-03	-5.52160000E-02	-2.51636000E-02
					 3.45004000E-03	-3.02482000E-02	-1.97649000E-02
					 1.73076000E-03	-5.18785000E-02	-1.28464000E-02
					 3.04506000E-03	-5.37418000E-02	-2.49879000E-02
					 1.91489000E-03	-3.30324000E-02	-2.00221000E-02
					 1.13016000E-03	-5.50912000E-02	-1.30756000E-02
					-1.97065000E-04	-5.72229000E-02	-1.46355000E-03
					-1.58597000E-03	-5.83377000E-02	 2.22646000E-02
					-1.85625000E-04	-5.63442000E-02	-1.38647000E-03
					-2.18255000E-03	-5.75162000E-02	 2.24925000E-02
					-1.38425000E-04	-3.38743000E-02	-8.35268000E-04
					-8.99500000E-04	-5.76369000E-02	 1.01557000E-02
					-6.13018000E-04	-3.50128000E-02	 1.83075000E-02
					 1.23667000E-03	-5.72413000E-02	-2.52600000E-02
					 1.83745000E-03	-5.63545000E-02	-2.53373000E-02
					 3.84401000E-04	-3.43123000E-02	-2.00561000E-02
					 5.18665000E-04	-5.71128000E-02	-1.30944000E-02
					-3.20714000E-04	-1.07298000E-01	-2.65105000E-03
					-4.47884000E-03	-1.08396000E-01	 2.67811000E-02
					-3.11044000E-04	-1.11147000E-01	-2.93103000E-03
					-3.91459000E-03	-1.12352000E-01	 2.65659000E-02
					-2.51854000E-04	-7.82092000E-02	-1.77538000E-03
					-2.39615000E-03	-1.07770000E-01	 1.19629000E-02
					-4.25844000E-03	-7.93803000E-02	 2.53220000E-02
					-3.14061000E-04	-1.09295000E-01	-2.79249000E-03
					-4.19871000E-03	-1.10458000E-01	 2.66347000E-02
					-2.49928000E-04	-8.17683000E-02	-2.04233000E-03
					-2.13765000E-03	-1.11676000E-01	 1.16665000E-02
					-3.38601000E-03	-8.29463000E-02	 2.51339000E-02
					 3.80193000E-03	-1.06683000E-01	-3.21018000E-02
					 3.29576000E-03	-1.10546000E-01	-3.24818000E-02
					 3.75032000E-03	-7.78883000E-02	-2.89298000E-02
					 1.74282000E-03	-1.06929000E-01	-1.72630000E-02
					 3.54800000E-03	-1.08680000E-01	-3.22671000E-02
					 2.89622000E-03	-8.14479000E-02	-2.92743000E-02
					 1.49361000E-03	-1.10791000E-01	-1.75572000E-02
					-3.12705000E-04	-1.14475000E-01	-3.17909000E-03
					-3.46228000E-03	-1.15794000E-01	 2.62466000E-02
					-3.10723000E-04	-1.12893000E-01	-3.06087000E-03
					-3.69071000E-03	-1.14031000E-01	 2.65160000E-02
					-2.51195000E-04	-8.44688000E-02	-2.25720000E-03
					-1.85588000E-03	-1.15060000E-01	 1.12720000E-02
					-2.56072000E-03	-8.56666000E-02	 2.48451000E-02
					 2.79952000E-03	-1.13914000E-01	-3.26866000E-02
					 3.04859000E-03	-1.12286000E-01	-3.26946000E-02
					 2.03243000E-03	-8.41645000E-02	-2.94167000E-02
					 1.23295000E-03	-1.14153000E-01	-1.76820000E-02
					-3.50445000E-04	-1.69399000E-01	-4.64315000E-03
					-4.70131000E-03	-1.70241000E-01	 2.62087000E-02