# vtk DataFile Version 3.0

ASCII
DATASET UNSTRUCTURED_GRID

POINTS 522 double
	 1.00000000E+00	 1.00000000E+00	-5.96046000E-08
	 1.00000000E+00	 5.00000000E-01	-5.96046000E-08
	 1.00000000E+00	 5.00000000E-01	 1.00000000E+00
	 1.00000000E+00	 1.00000000E+00	 1.00000000E+00
	 5.00000000E-01	 1.00000000E+00	-5.96046000E-08
	 5.00000000E-01	 5.00000000E-01	-5.96046000E-08
	 5.00000000E-01	 5.00000000E-01	 1.00000000E+00
	 5.00000000E-01	 1.00000000E+00	 1.00000000E+00
	 1.00000000E+00	 7.50000000E-01	-5.96046000E-08
	 1.00000000E+00	 5.00000000E-01	 5.00000000E-01
	 1.00000000E+00	 7.50000000E-01	 1.00000000E+00
	 1.00000000E+00	 1.00000000E+00	 5.00000000E-01
	 7.50000000E-01	 1.00000000E+00	-5.96046000E-08
	 7.50000000E-01	 5.00000000E-01	-5.96046000E-08
	 7.50000000E-01	 5.00000000E-01	 1.00000000E+00
	 7.50000000E-01	 1.00000000E+00	 1.00000000E+00
	 5.00000000E-01	 7.50000000E-01	-5.96046000E-08
	 5.00000000E-01	 5.00000000E-01	 5.00000000E-01
	 5.00000000E-01	 7.50000000E-01	 1.00000000E+00
	 5.00000000E-01	 1.00000000E+00	 5.00000000E-01
	 1.00000000E+00	-1.49012000E-08	-5.96046000E-08
	 1.00000000E+00	-1.49012000E-08	 1.00000000E+00
	 5.00000000E-01	-1.49012000E-08	-5.96046000E-08
	 5.00000000E-01	-1.49012000E-08	 1.00000000E+00
	 1.00000000E+00	 2.50000000E-01	-5.96046000E-08
	 1.00000000E+00	-1.49012000E-08	 5.00000000E-01
	 1.00000000E+00	 2.50000000E-01	 1.00000000E+00
	 7.50000000E-01	-1.49012000E-08	-5.96046000E-08
	 7.50000000E-01	-1.49012000E-08	 1.00000000E+00
	 5.00000000E-01	 2.50000000E-01	-5.96046000E-08
	 5.00000000E-01	-1.49012000E-08	 5.00000000E-01
	 5.00000000E-01	 2.50000000E-01	 1.00000000E+00
	-7.45058000E-09	 1.00000000E+00	-5.96046000E-08
	-7.45058000E-09	 5.00000000E-01	-5.96046000E-08
	-7.45058000E-09	 5.00000000E-01	 1.00000000E+00
	-7.45058000E-09	 1.00000000E+00	 1.00000000E+00
	 2.50000000E-01	 1.00000000E+00	-5.96046000E-08
	 2.50000000E-01	 5.00000000E-01	-5.96046000E-08
	 2.50000000E-01	 5.00000000E-01	 1.00000000E+00
	 2.50000000E-01	 1.00000000E+00	 1.00000000E+00
	-7.45058000E-09	 7.50000000E-01	-5.96046000E-08
	-7.45058000E-09	 5.00000000E-01	 5.00000000E-01
	-7.45058000E-09	 7.50000000E-01	 1.00000000E+00
	-7.45058000E-09	 1.00000000E+00	 5.00000000E-01
	-7.45058000E-09	-1.49012000E-08	-5.96046000E-08
	-7.45058000E-09	-1.49012000E-08	 1.00000000E+00
	 2.50000000E-01	-1.49012000E-08	-5.96046000E-08
	 2.50000000E-01	-1.49012000E-08	 1.00000000E+00
	-7.45058000E-09	 2.50000000E-01	-5.96046000E-08
	-7.45058000E-09	-1.49012000E-08	 5.00000000E-01
	-7.45058000E-09	 2.50000000E-01	 1.00000000E+00
	 1.00000000E+00	 5.00000000E-01	 2.00000000E+00
	 1.00000000E+00	 1.00000000E+00	 2.00000000E+00
	 5.00000000E-01	 5.00000000E-01	 2.00000000E+00
	 5.00000000E-01	 1.00000000E+00	 2.00000000E+00
	 1.00000000E+00	 5.00000000E-01	 1.50000000E+00
	 1.00000000E+00	 7.50000000E-01	 2.00000000E+00
	 1.00000000E+00	 1.00000000E+00	 1.50000000E+00
	 7.50000000E-01	 5.00000000E-01	 2.00000000E+00
	 7.50000000E-01	 1.00000000E+00	 2.00000000E+00
	 5.00000000E-01	 5.00000000E-01	 1.50000000E+00
	 5.00000000E-01	 7.50000000E-01	 2.00000000E+00
	 5.00000000E-01	 1.00000000E+00	 1.50000000E+00
	 1.00000000E+00	-1.49012000E-08	 2.00000000E+00
	 5.00000000E-01	-1.49012000E-08	 2.00000000E+00
	 1.00000000E+00	-1.49012000E-08	 1.50000000E+00
	 1.00000000E+00	 2.50000000E-01	 2.00000000E+00
	 7.50000000E-01	-1.49012000E-08	 2.00000000E+00
	 5.00000000E-01	-1.49012000E-08	 1.50000000E+00
	 5.00000000E-01	 2.50000000E-01	 2.00000000E+00
	-7.45058000E-09	 5.00000000E-01	 2.00000000E+00
	-7.45058000E-09	 1.00000000E+00	 2.00000000E+00
	 2.50000000E-01	 5.00000000E-01	 2.00000000E+00
	 2.50000000E-01	 1.00000000E+00	 2.00000000E+00
	-7.45058000E-09	 5.00000000E-01	 1.50000000E+00
	-7.45058000E-09	 7.50000000E-01	 2.00000000E+00
	-7.45058000E-09	 1.00000000E+00	 1.50000000E+00
	-7.45058000E-09	-1.49012000E-08	 2.00000000E+00
	 2.50000000E-01	-1.49012000E-08	 2.00000000E+00
	-7.45058000E-09	-1.49012000E-08	 1.50000000E+00
	-7.45058000E-09	 2.50000000E-01	 2.00000000E+00
	 1.00000000E+00	 5.00000000E-01	 3.00000000E+00
	 1.00000000E+00	 1.00000000E+00	 3.00000000E+00
	 5.00000000E-01	 5.00000000E-01	 3.00000000E+00
	 5.00000000E-01	 1.00000000E+00	 3.00000000E+00
	 1.00000000E+00	 5.00000000E-01	 2.50000000E+00
	 1.00000000E+00	 7.50000000E-01	 3.00000000E+00
	 1.00000000E+00	 1.00000000E+00	 2.50000000E+00
	 7.50000000E-01	 5.00000000E-01	 3.00000000E+00
	 7.50000000E-01	 1.00000000E+00	 3.00000000E+00
	 5.00000000E-01	 5.00000000E-01	 2.50000000E+00
	 5.00000000E-01	 7.50000000E-01	 3.00000000E+00
	 5.00000000E-01	 1.00000000E+00	 2.50000000E+00
	 1.00000000E+00	-1.49012000E-08	 3.00000000E+00
	 5.00000000E-01	-1.49012000E-08	 3.00000000E+00
	 1.00000000E+00	-1.49012000E-08	 2.50000000E+00
	 1.00000000E+00	 2.50000000E-01	 3.00000000E+00
	 7.50000000E-01	-1.49012000E-08	 3.00000000E+00
	 5.00000000E-01	-1.49012000E-08	 2.50000000E+00
	 5.00000000E-01	 2.50000000E-01	 3.00000000E+00
	-7.45058000E-09	 5.00000000E-01	 3.00000000E+00
	-7.45058000E-09	 1.00000000E+00	 3.00000000E+00
	 2.50000000E-01	 5.00000000E-01	 3.00000000E+00
	 2.50000000E-01	 1.00000000E+00	 3.00000000E+00
	-7.45058000E-09	 5.00000000E-01	 2.50000000E+00
	-7.45058000E-09	 7.50000000E-01	 3.00000000E+00
	-7.45058000E-09	 1.00000000E+00	 2.50000000E+00
	-7.45058000E-09	-1.49012000E-08	 3.00000000E+00
	 2.50000000E-01	-1.49012000E-08	 3.00000000E+00
	-7.45058000E-09	-1.49012000E-08	 2.50000000E+00
	-7.45058000E-09	 2.50000000E-01	 3.00000000E+00
	 1.00000000E+00	 5.00000000E-01	 4.00000000E+00
	 1.00000000E+00	 1.00000000E+00	 4.00000000E+00
	 5.00000000E-01	 5.00000000E-01	 4.00000000E+00
	 5.00000000E-01	 1.00000000E+00	 4.00000000E+00
	 1.00000000E+00	 5.00000000E-01	 3.50000000E+00
	 1.00000000E+00	 7.50000000E-01	 4.00000000E+00
	 1.00000000E+00	 1.00000000E+00	 3.50000000E+00
	 7.50000000E-01	 5.00000000E-01	 4.00000000E+00
	 7.50000000E-01	 1.00000000E+00	 4.00000000E+00
	 5.00000000E-01	 5.00000000E-01	 3.50000000E+00
	 5.00000000E-01	 7.50000000E-01	 4.00000000E+00
	 5.00000000E-01	 1.00000000E+00	 3.50000000E+00
	 1.00000000E+00	-1.49012000E-08	 4.00000000E+00
	 5.00000000E-01	-1.49012000E-08	 4.00000000E+00
	 1.00000000E+00	-1.49012000E-08	 3.50000000E+00
	 1.00000000E+00	 2.50000000E-01	 4.00000000E+00
	 7.50000000E-01	-1.49012000E-08	 4.00000000E+00
	 5.00000000E-01	-1.49012000E-08	 3.50000000E+00
	 5.00000000E-01	 2.50000000E-01	 4.00000000E+00
	-7.45058000E-09	 5.00000000E-01	 4.00000000E+00
	-7.45058000E-09	 1.00000000E+00	 4.00000000E+00
	 2.50000000E-01	 5.00000000E-01	 4.00000000E+00
	 2.50000000E-01	 1.00000000E+00	 4.00000000E+00
	-7.45058000E-09	 5.00000000E-01	 3.50000000E+00
	-7.45058000E-09	 7.50000000E-01	 4.00000000E+00
	-7.45058000E-09	 1.00000000E+00	 3.50000000E+00
	-7.45058000E-09	-1.49012000E-08	 4.00000000E+00
	 2.50000000E-01	-1.49012000E-08	 4.00000000E+00
	-7.45058000E-09	-1.49012000E-08	 3.50000000E+00
	-7.45058000E-09	 2.50000000E-01	 4.00000000E+00
	 1.00000000E+00	 5.00000000E-01	 5.00000000E+00
	 1.00000000E+00	 1.00000000E+00	 5.00000000E+00
	 5.00000000E-01	 5.00000000E-01	 5.00000000E+00
	 5.00000000E-01	 1.00000000E+00	 5.00000000E+00
	 1.00000000E+00	 5.00000000E-01	 4.50000000E+00
	 1.00000000E+00	 7.50000000E-01	 5.00000000E+00
	 1.00000000E+00	 1.00000000E+00	 4.50000000E+00
	 7.50000000E-01	 5.00000000E-01	 5.00000000E+00
	 7.50000000E-01	 1.00000000E+00	 5.00000000E+00
	 5.00000000E-01	 5.00000000E-01	 4.50000000E+00
	 5.00000000E-01	 7.50000000E-01	 5.00000000E+00
	 5.00000000E-01	 1.00000000E+00	 4.50000000E+00
	 1.00000000E+00	-1.49012000E-08	 5.00000000E+00
	 5.00000000E-01	-1.49012000E-08	 5.00000000E+00
	 1.00000000E+00	-1.49012000E-08	 4.50000000E+00
	 1.00000000E+00	 2.50000000E-01	 5.00000000E+00
	 7.50000000E-01	-1.49012000E-08	 5.00000000E+00
	 5.00000000E-01	-1.49012000E-08	 4.50000000E+00
	 5.00000000E-01	 2.50000000E-01	 5.00000000E+00
	-7.45058000E-09	 5.00000000E-01	 5.00000000E+00
	-7.45058000E-09	 1.00000000E+00	 5.00000000E+00
	 2.50000000E-01	 5.00000000E-01	 5.00000000E+00
	 2.50000000E-01	 1.00000000E+00	 5.00000000E+00
	-7.45058000E-09	 5.00000000E-01	 4.50000000E+00
	-7.45058000E-09	 7.50000000E-01	 5.00000000E+00
	-7.45058000E-09	 1.00000000E+00	 4.50000000E+00
	-7.45058000E-09	-1.49012000E-08	 5.00000000E+00
	 2.50000000E-01	-1.49012000E-08	 5.00000000E+00
	-7.45058000E-09	-1.49012000E-08	 4.50000000E+00
	-7.45058000E-09	 2.50000000E-01	 5.00000000E+00
	 1.00000000E+00	 5.00000000E-01	 6.00000000E+00
	 1.00000000E+00	 1.00000000E+00	 6.00000000E+00
	 5.00000000E-01	 5.00000000E-01	 6.00000000E+00
	 5.00000000E-01	 1.00000000E+00	 6.00000000E+00
	 1.00000000E+00	 5.00000000E-01	 5.50000000E+00
	 1.00000000E+00	 7.50000000E-01	 6.00000000E+00
	 1.00000000E+00	 1.00000000E+00	 5.50000000E+00
	 7.50000000E-01	 5.00000000E-01	 6.00000000E+00
	 7.50000000E-01	 1.00000000E+00	 6.00000000E+00
	 5.00000000E-01	 5.00000000E-01	 5.50000000E+00
	 5.00000000E-01	 7.50000000E-01	 6.00000000E+00
	 5.00000000E-01	 1.00000000E+00	 5.50000000E+00
	 1.00000000E+00	-1.49012000E-08	 6.00000000E+00
	 5.00000000E-01	-1.49012000E-08	 6.00000000E+00
	 1.00000000E+00	-1.49012000E-08	 5.50000000E+00
	 1.00000000E+00	 2.50000000E-01	 6.00000000E+00
	 7.50000000E-01	-1.49012000E-08	 6.00000000E+00
	 5.00000000E-01	-1.49012000E-08	 5.50000000E+00
	 5.00000000E-01	 2.50000000E-01	 6.00000000E+00
	-7.45058000E-09	 5.00000000E-01	 6.00000000E+00
	-7.45058000E-09	 1.00000000E+00	 6.00000000E+00
	 2.50000000E-01	 5.00000000E-01	 6.00000000E+00
	 2.50000000E-01	 1.00000000E+00	 6.00000000E+00
	-7.45058000E-09	 5.00000000E-01	 5.50000000E+00
	-7.45058000E-09	 7.50000000E-01	 6.00000000E+00
	-7.45058000E-09	 1.00000000E+00	 5.50000000E+00
	-7.45058000E-09	-1.49012000E-08	 6.00000000E+00
	 2.50000000E-01	-1.49012000E-08	 6.00000000E+00
	-7.45058000E-09	-1.49012000E-08	 5.50000000E+00
	-7.45058000E-09	 2.50000000E-01	 6.00000000E+00
	 1.00000000E+00	 5.00000000E-01	 7.00000000E+00
[...]
POINT_DATA 522
FIELD U 1
	U 3 522 double
		 0.00000000E+00	 0.00000000E+00	 0.00000000E+00
		 0.00000000E+00	 0.00000000E+00	 0.00000000E+00
		-5.69056000E-06	 3.36367000E-03	 1.66368000E-05
		 9.27676000E-04	 3.55466000E-03	-3.65054000E-03
		 0.00000000E+00	 0.00000000E+00	 0.00000000E+00
		 0.00000000E+00	 0.00000000E+00	 0.00000000E+00
		-2.47340000E-06	 4.04800000E-03	 1.07224000E-05
		 4.47798000E-04	 4.25808000E-03	-3.70003000E-03
		 0.00000000E+00	 0.00000000E+00	 0.00000000E+00
		-3.42684000E-06	 5.58632000E-04	 1.09053000E-05
		 4.61605000E-04	 3.37356000E-03	-1.80883000E-03
		 7.80654000E-04	 8.63318000E-04	-1.83468000E-03
		 0.00000000E+00	 0.00000000E+00	 0.00000000E+00
		 0.00000000E+00	 0.00000000E+00	 0.00000000E+00
		-3.94950000E-06	 3.78711000E-03	 1.30082000E-05
		 6.84834000E-04	 3.98737000E-03	-3.64030000E-03
		 0.00000000E+00	 0.00000000E+00	 0.00000000E+00
		-7.95001000E-07	 1.04276000E-03	 7.13286000E-06
		 2.22393000E-04	 4.06400000E-03	-1.79840000E-03
		 2.37484000E-04	 1.34516000E-03	-1.78571000E-03
		 0.00000000E+00	 0.00000000E+00	 0.00000000E+00
		-9.40730000E-04	 3.59353000E-03	 3.67822000E-03
		 0.00000000E+00	 0.00000000E+00	 0.00000000E+00
		-4.52173000E-04	 4.29737000E-03	 3.71560000E-03
		 0.00000000E+00	 0.00000000E+00	 0.00000000E+00
		-7.88321000E-04	 8.83041000E-04	 1.85611000E-03
		-4.73545000E-04	 3.39352000E-03	 1.84015000E-03
		 0.00000000E+00	 0.00000000E+00	 0.00000000E+00
		-6.92934000E-04	 4.02657000E-03	 3.66076000E-03
		 0.00000000E+00	 0.00000000E+00	 0.00000000E+00
		-2.38302000E-04	 1.36317000E-03	 1.80049000E-03
		-2.27186000E-04	 4.08378000E-03	 1.81781000E-03
		 0.00000000E+00	 0.00000000E+00	 0.00000000E+00
		 0.00000000E+00	 0.00000000E+00	 0.00000000E+00
		 4.04592000E-07	 4.26360000E-03	 8.24250000E-06
		-3.22446000E-05	 4.45571000E-03	-3.65848000E-03
		 0.00000000E+00	 0.00000000E+00	 0.00000000E+00
		 0.00000000E+00	 0.00000000E+00	 0.00000000E+00
		-1.03937000E-06	 4.23665000E-03	 8.94248000E-06
		 2.10590000E-04	 4.43816000E-03	-3.71848000E-03
		 0.00000000E+00	 0.00000000E+00	 0.00000000E+00
		 1.17695000E-06	 1.03440000E-03	 6.78403000E-06
		-1.58988000E-05	 4.27435000E-03	-1.74282000E-03
		-3.21933000E-04	 1.32499000E-03	-1.83850000E-03
		 0.00000000E+00	 0.00000000E+00	 0.00000000E+00
		 3.55720000E-05	 4.49293000E-03	 3.67024000E-03
		 0.00000000E+00	 0.00000000E+00	 0.00000000E+00
		-2.11439000E-04	 4.47737000E-03	 3.73079000E-03
		 0.00000000E+00	 0.00000000E+00	 0.00000000E+00
		 3.26518000E-04	 1.34182000E-03	 1.85227000E-03
		 1.75680000E-05	 4.29242000E-03	 1.75790000E-03
		-1.91827000E-06	 1.41692000E-02	-2.07936000E-05
		 9.55182000E-04	 1.42552000E-02	-6.41250000E-03
		 1.88162000E-06	 1.49688000E-02	-2.86210000E-05
		 6.58013000E-04	 1.50661000E-02	-6.44547000E-03
		-4.91143000E-06	 7.99715000E-03	 6.15775000E-06
		 4.74410000E-04	 1.41809000E-02	-3.14948000E-03
		 1.00695000E-03	 8.16223000E-03	-5.19688000E-03
		 1.68093000E-07	 1.46004000E-02	-2.49499000E-05
		 8.07691000E-04	 1.46950000E-02	-6.44530000E-03
		-1.85174000E-06	 8.79746000E-03	-9.50283000E-07
		 3.30743000E-04	 1.49874000E-02	-3.18400000E-03
		 5.96972000E-04	 8.97177000E-03	-5.22938000E-03
		-9.58619000E-04	 1.43477000E-02	 6.36607000E-03
		-6.53343000E-04	 1.51577000E-02	 6.38281000E-03
		-1.01836000E-03	 8.22668000E-03	 5.20284000E-03
		-4.78199000E-04	 1.42254000E-02	 3.10688000E-03
		-8.06701000E-04	 1.47874000E-02	 6.39030000E-03
		-6.00194000E-04	 9.03661000E-03	 5.22071000E-03
		-3.26751000E-04	 1.50317000E-02	 3.12563000E-03
		 4.87420000E-06	 1.54804000E-02	-3.25918000E-05
		 3.73013000E-04	 1.55811000E-02	-6.42472000E-03
		 3.40035000E-06	 1.52577000E-02	-3.13863000E-05
		 5.15573000E-04	 1.53546000E-02	-6.45023000E-03
		 7.21982000E-07	 9.19424000E-03	-3.88738000E-06
		 1.87715000E-04	 1.55006000E-02	-3.16308000E-03
		 2.02506000E-04	 9.37616000E-03	-5.20710000E-03
		-3.61870000E-04	 1.56701000E-02	 6.35380000E-03
		-5.07623000E-04	 1.54455000E-02	 6.38187000E-03
		-1.98744000E-04	 9.43909000E-03	 5.19254000E-03
		-1.77585000E-04	 1.55431000E-02	 3.09673000E-03
		 6.58090000E-07	 2.93394000E-02	-1.09658000E-04
		 5.40125000E-04	 2.93029000E-02	-7.62637000E-03
		 4.07720000E-06	 2.98540000E-02	-1.18901000E-04
		 4.92988000E-04	 2.98191000E-02	-7.66018000E-03
		 1.33357000E-06	 2.14341000E-02	-6.01292000E-05
		 2.70753000E-04	 2.93158000E-02	-3.78434000E-03
		 7.92405000E-04	 2.14594000E-02	-7.20336000E-03
		 2.49953000E-06	 2.96033000E-02	-1.14685000E-04
		 5.16818000E-04	 2.95669000E-02	-7.68159000E-03
		 4.97475000E-06	 2.21348000E-02	-6.93089000E-05
		 2.48739000E-04	 2.98309000E-02	-3.84118000E-03
		 6.20628000E-04	 2.21648000E-02	-7.24008000E-03
		-5.38206000E-04	 2.94236000E-02	 7.40589000E-03
		-4.84220000E-04	 2.99394000E-02	 7.42141000E-03
		-7.88881000E-04	 2.15706000E-02	 7.07964000E-03
		-2.69302000E-04	 2.93735000E-02	 3.56476000E-03
		-5.11203000E-04	 2.96886000E-02	 7.45102000E-03
		-6.09655000E-04	 2.22749000E-02	 7.09789000E-03
		-2.40444000E-04	 2.98895000E-02	 3.60305000E-03
		 6.89171000E-06	 3.03164000E-02	-1.27264000E-04
		 4.51860000E-04	 3.02877000E-02	-7.64390000E-03
		 5.53279000E-06	 3.00924000E-02	-1.22885000E-04
		 4.72631000E-04	 3.00590000E-02	-7.64013000E-03
		 7.80464000E-06	 2.26642000E-02	-7.60139000E-05
		 2.27752000E-04	 3.02962000E-02	-3.85151000E-03
		 4.59300000E-04	 2.27028000E-02	-7.21940000E-03
		-4.37267000E-04	 3.04058000E-02	 7.38847000E-03
		-4.60849000E-04	 3.01779000E-02	 7.39358000E-03
		-4.42269000E-04	 2.28096000E-02	 7.06365000E-03
		-2.13809000E-04	 3.03541000E-02	 3.59654000E-03
		-4.91830000E-06	 4.52258000E-02	-2.16649000E-04
		-4.00331000E-05	 4.51161000E-02	-7.41858000E-03
		-2.24327000E-06	 4.52563000E-02	-2.17676000E-04
		 8.46979000E-05	 4.51417000E-02	-7.43054000E-03
		-2.44763000E-06	 3.74009000E-02	-1.64214000E-04
		-2.10294000E-05	 4.51884000E-02	-3.75951000E-03
		 2.48987000E-04	 3.73244000E-02	-7.65588000E-03
		-3.61486000E-06	 4.52254000E-02	-2.17147000E-04
		 2.23356000E-05	 4.51114000E-02	-7.46239000E-03
		 5.21854000E-07	 3.76787000E-02	-1.70298000E-04
		 4.11729000E-05	 4.52165000E-02	-3.80314000E-03
		 3.00435000E-04	 3.75999000E-02	-7.68096000E-03
		 2.94017000E-05	 4.52250000E-02	 6.98698000E-03
		-8.97482000E-05	 4.52523000E-02	 6.99734000E-03
		-2.54076000E-04	 3.74424000E-02	 7.32815000E-03
		 1.09902000E-05	 4.52413000E-02	 3.32665000E-03
		-3.03083000E-05	 4.52223000E-02	 7.02991000E-03
		-2.99435000E-04	 3.77190000E-02	 7.34127000E-03
		-4.58111000E-05	 4.52712000E-02	 3.36827000E-03
		 1.12841000E-06	 4.54001000E-02	-2.20303000E-04
		 2.08812000E-04	 4.52879000E-02	-7.42180000E-03
		-6.35926000E-07	 4.53123000E-02	-2.18523000E-04
		 1.46453000E-04	 4.51987000E-02	-7.39857000E-03
		 3.62980000E-06	 3.80006000E-02	-1.76951000E-04
		 1.04140000E-04	 4.53605000E-02	-3.82798000E-03
		 3.55126000E-04	 3.79270000E-02	-7.66848000E-03
		-2.06971000E-04	 4.53993000E-02	 6.98355000E-03
		-1.48237000E-04	 4.53090000E-02	 6.96392000E-03
		-3.47832000E-04	 3.80456000E-02	 7.31553000E-03
		-1.02025000E-04	 4.54164000E-02	 3.38785000E-03
		-3.40044000E-06	 5.91963000E-02	-3.02653000E-04
		-4.32925000E-04	 5.90790000E-02	-6.50287000E-03
		-1.53563000E-06	 5.88562000E-02	-2.89625000E-04
		-2.62534000E-04	 5.87325000E-02	-6.49085000E-03
		-5.75344000E-06	 5.25211000E-02	-2.62415000E-04
		-2.16370000E-04	 5.91599000E-02	-3.38415000E-03
		-2.69336000E-04	 5.24077000E-02	-6.99998000E-03
		-2.86059000E-06	 5.90055000E-02	-2.96530000E-04
		-3.47941000E-04	 5.88833000E-02	-6.51435000E-03
		-3.51085000E-06	 5.23398000E-02	-2.57596000E-04
		-1.31844000E-04	 5.88163000E-02	-3.38857000E-03
		-1.11986000E-04	 5.22186000E-02	-6.99955000E-03
		 4.23276000E-04	 5.91580000E-02	 5.89917000E-03
		 2.56607000E-04	 5.88167000E-02	 5.91355000E-03
		 2.56166000E-04	 5.25025000E-02	 6.47634000E-03
		 2.08716000E-04	 5.91988000E-02	 2.77898000E-03
		 3.39574000E-04	 5.89652000E-02	 5.92329000E-03
		 1.03325000E-04	 5.23164000E-02	 6.48662000E-03
		 1.28095000E-04	 5.88585000E-02	 2.80971000E-03
		 2.59952000E-06	 5.86775000E-02	-2.78400000E-04
		-9.22550000E-05	 5.85522000E-02	-6.47858000E-03
		 2.10968000E-07	 5.87455000E-02	-2.83165000E-04
		-1.77993000E-04	 5.86211000E-02	-6.46789000E-03
		 9.73549000E-08	 5.23057000E-02	-2.54627000E-04
		-4.48555000E-05	 5.86360000E-02	-3.39313000E-03
		 3.98172000E-05	 5.21822000E-02	-6.99123000E-03
		 9.52019000E-05	 5.86417000E-02	 5.92418000E-03
		 1.75831000E-04	 5.87075000E-02	 5.90369000E-03
		-4.08238000E-05	 5.22827000E-02	 6.48504000E-03
		 4.98082000E-05	 5.86816000E-02	 2.83677000E-03
		 3.58778000E-05	 7.06211000E-02	-3.67871000E-04
		-5.78627000E-04	 7.05288000E-02	-5.53158000E-03
		 3.81811000E-05	 7.00724000E-02	-3.31886000E-04
		-4.49946000E-04	 6.99788000E-02	-5.48592000E-03
		 9.05412000E-06	 6.52085000E-02	-3.39588000E-04
		-2.70853000E-04	 7.05905000E-02	-2.95475000E-03
		-5.23109000E-04	 6.51037000E-02	-5.99062000E-03
		 3.68309000E-05	 7.03297000E-02	-3.48901000E-04
		-5.14655000E-04	 7.02367000E-02	-5.52192000E-03
		 1.08735000E-05	 6.47593000E-02	-3.14099000E-04
		-2.05806000E-04	 7.00423000E-02	-2.92935000E-03
		-3.63048000E-04	 6.46494000E-02	-5.96229000E-03
		 6.49128000E-04	 7.05871000E-02	 4.79693000E-03
		 5.25822000E-04	 7.00395000E-02	 4.82281000E-03
		 5.37802000E-04	 6.51688000E-02	 5.31483000E-03
		 3.43227000E-04	 7.06207000E-02	 2.22040000E-03
		 5.87057000E-04	 7.02974000E-02	 4.82397000E-03
		 3.82716000E-04	 6.47205000E-02	 5.33579000E-03
		 2.82123000E-04	 7.00731000E-02	 2.26582000E-03
		 4.30264000E-05	 6.96465000E-02	-2.98072000E-04
		-3.16420000E-04	 6.95562000E-02	-5.46242000E-03
		 4.01880000E-05	 6.98441000E-02	-3.15464000E-04
		-3.83352000E-04	 6.97504000E-02	-5.44887000E-03
		 1.55826000E-05	 6.44635000E-02	-2.90703000E-04
		-1.38700000E-04	 6.96184000E-02	-2.92462000E-03
		-2.00070000E-04	 6.43545000E-02	-5.94401000E-03
		 4.00116000E-04	 6.96200000E-02	 4.86651000E-03
		 4.62514000E-04	 6.98120000E-02	 4.81888000E-03
		 2.28595000E-04	 6.44311000E-02	 5.36285000E-03
		 2.23351000E-04	 6.96500000E-02	 2.32874000E-03
		 1.08136000E-04	 8.04253000E-02	-4.12430000E-04
		-8.17050000E-04	 8.03996000E-02	-5.11628000E-03
		 1.10878000E-04	 7.95013000E-02	-3.60871000E-04
		-8.08391000E-04	 7.94730000E-02	-5.06826000E-03
		 7.15090000E-05	 7.55996000E-02	-3.86359000E-04
		-3.56459000E-04	 8.04158000E-02	-2.75211000E-03
		-6.60978000E-04	 7.55374000E-02	-5.23891000E-03
		 1.09278000E-04	 7.99643000E-02	-3.87333000E-04
		-8.12127000E-04	 7.99390000E-02	-5.12323000E-03
		 7.35609000E-05	 7.48973000E-02	-3.46167000E-04
		-3.46803000E-04	 7.94867000E-02	-2.73415000E-03
		-5.97633000E-04	 7.48377000E-02	-5.18130000E-03
		 1.03254000E-03	 8.04400000E-02	 4.30611000E-03
		 1.02500000E-03	 7.95223000E-02	 4.34744000E-03
		 8.00885000E-04	 7.55848000E-02	 4.46034000E-03
		 5.70383000E-04	 8.04324000E-02	 1.93060000E-03
		 1.02856000E-03	 7.99812000E-02	 4.36038000E-03
		 7.40595000E-04	 7.48900000E-02	 4.48893000E-03
		 5.67637000E-04	 7.95122000E-02	 2.01264000E-03
		 1.12127000E-04	 7.85879000E-02	-3.12350000E-04
		-8.05855000E-04	 7.85512000E-02	-5.03851000E-03
		 1.12062000E-04	 7.90427000E-02	-3.35801000E-04
		-8.06661000E-04	 7.90115000E-02	-5.00962000E-03
		 7.57838000E-05	 7.42619000E-02	-3.06384000E-04
		-3.43245000E-04	 7.85661000E-02	-2.74029000E-03
		-5.22151000E-04	 7.42048000E-02	-5.15325000E-03
		 1.02484000E-03	 7.86099000E-02	 4.40777000E-03
		 1.02441000E-03	 7.90661000E-02	 4.33340000E-03
		 6.73504000E-04	 7.42610000E-02	 4.54418000E-03
		 5.67623000E-04	 7.86019000E-02	 2.11174000E-03
		 1.67428000E-04	 9.00551000E-02	-4.31418000E-04
		-1.01083000E-03	 9.00861000E-02	-5.20500000E-03
		 1.67087000E-04	 8.89229000E-02	-3.99957000E-04
		-9.73592000E-04	 8.89245000E-02	-5.19749000E-03
		 1.43649000E-04	 8.52592000E-02	-4.27138000E-04
		-4.24907000E-04	 9.00565000E-02	-2.79419000E-03
		-9.48852000E-04	 8.52164000E-02	-5.13515000E-03
		 1.66126000E-04	 8.94805000E-02	-4.17984000E-04
		-9.89042000E-04	 8.94939000E-02	-5.19805000E-03
		 1.42902000E-04	 8.41625000E-02	-3.76350000E-04
		-4.21182000E-04	 8.89227000E-02	-2.78655000E-03
		-9.41805000E-04	 8.41367000E-02	-5.12132000E-03
		 1.39034000E-03	 9.01154000E-02	 4.30855000E-03
		 1.38422000E-03	 8.89388000E-02	 4.37431000E-03
		 1.26824000E-03	 8.53007000E-02	 4.29629000E-03
		 7.79886000E-04	 9.00887000E-02	 1.92365000E-03
		 1.38515000E-03	 8.95204000E-02	 4.34527000E-03
		 1.27055000E-03	 8.41834000E-02	 4.35473000E-03
		 7.81476000E-04	 8.89270000E-02	 1.98147000E-03
		 1.92708000E-04	 8.77874000E-02	-3.54547000E-04
		-9.78729000E-04	 8.78765000E-02	-5.22750000E-03
		 1.75292000E-04	 8.83673000E-02	-3.77145000E-04
		-9.77896000E-04	 8.84184000E-02	-5.22909000E-03
		 1.54171000E-04	 8.30506000E-02	-3.18864000E-04
		-4.03267000E-04	 8.78375000E-02	-2.76181000E-03
		-9.78445000E-04	 8.30310000E-02	-5.11372000E-03
		 1.42152000E-03	 8.77474000E-02	 4.44057000E-03
		 1.40570000E-03	 8.83536000E-02	 4.40744000E-03
		 1.29997000E-03	 8.30539000E-02	 4.42034000E-03
		 8.05089000E-04	 8.77529000E-02	 2.04095000E-03
		 0.00000000E+00	 0.00000000E+00	 0.00000000E+00
		 0.00000000E+00	 0.00000000E+00	 0.00000000E+00
		-2.23252000E-05	-1.30427000E-02	-2.23651000E-04
		-3.13103000E-03	-1.40183000E-02	 1.32751000E-02
		 0.00000000E+00	 0.00000000E+00	 0.00000000E+00
		 0.00000000E+00	 0.00000000E+00	 0.00000000E+00
		-4.39699000E-05	-1.52454000E-02	-3.42237000E-04
		-1.38473000E-03	-1.62741000E-02	 1.33140000E-02
		 0.00000000E+00	 0.00000000E+00	 0.00000000E+00
		 2.92936000E-05	-2.48534000E-03	-7.28517000E-05
		-1.58043000E-03	-1.32217000E-02	 6.48450000E-03
		-2.66347000E-03	-3.70796000E-03	 6.78011000E-03
		 0.00000000E+00	 0.00000000E+00	 0.00000000E+00
		 0.00000000E+00	 0.00000000E+00	 0.00000000E+00
		-2.95942000E-05	-1.44420000E-02	-2.89927000E-04
		-2.24032000E-03	-1.54421000E-02	 1.31729000E-02
		 0.00000000E+00	 0.00000000E+00	 0.00000000E+00
		-6.93433000E-06	-4.05903000E-03	-1.21222000E-04
		-7.16412000E-04	-1.54368000E-02	 6.31927000E-03
		-6.67742000E-04	-5.25801000E-03	 6.54674000E-03
		 0.00000000E+00	 0.00000000E+00	 0.00000000E+00
		 3.06638000E-03	-1.36116000E-02	-1.37848000E-02
		 0.00000000E+00	 0.00000000E+00	 0.00000000E+00
		 1.31051000E-03	-1.58813000E-02	-1.40656000E-02
		 0.00000000E+00	 0.00000000E+00	 0.00000000E+00
		 2.71280000E-03	-3.58272000E-03	-6.95329000E-03
		 1.52664000E-03	-1.30143000E-02	-6.95199000E-03
		 0.00000000E+00	 0.00000000E+00	 0.00000000E+00
		 2.18219000E-03	-1.50391000E-02	-1.38150000E-02
		 0.00000000E+00	 0.00000000E+00	 0.00000000E+00
		 6.66502000E-04	-5.16280000E-03	-6.80838000E-03
		 6.29939000E-04	-1.52394000E-02	-7.02521000E-03
		 0.00000000E+00	 0.00000000E+00	 0.00000000E+00
		 0.00000000E+00	 0.00000000E+00	 0.00000000E+00
		-8.01658000E-05	-1.57328000E-02	-4.02719000E-04
		 3.57857000E-04	-1.66726000E-02	 1.31028000E-02
		 0.00000000E+00	 0.00000000E+00	 0.00000000E+00
		 0.00000000E+00	 0.00000000E+00	 0.00000000E+00
		-6.03775000E-05	-1.57848000E-02	-3.81122000E-04
		-5.24947000E-04	-1.67718000E-02	 1.33254000E-02
		 0.00000000E+00	 0.00000000E+00	 0.00000000E+00
		-5.79377000E-05	-3.81739000E-03	-1.46411000E-04
		 1.35838000E-04	-1.58876000E-02	 6.06619000E-03
		 1.36143000E-03	-4.96534000E-03	 6.70814000E-03
		 0.00000000E+00	 0.00000000E+00	 0.00000000E+00
		-4.74937000E-04	-1.63159000E-02	-1.39617000E-02
		 0.00000000E+00	 0.00000000E+00	 0.00000000E+00
		 4.27300000E-04	-1.63906000E-02	-1.41516000E-02
		 0.00000000E+00	 0.00000000E+00	 0.00000000E+00
		-1.44689000E-03	-4.88987000E-03	-7.02668000E-03
		-2.81252000E-04	-1.57167000E-02	-6.88461000E-03
		-1.73834000E-04	-5.19971000E-02	-1.06166000E-03
		-3.98031000E-03	-5.31478000E-02	 2.26557000E-02
		-1.76470000E-04	-5.51854000E-02	-1.29381000E-03
		-2.77861000E-03	-5.63396000E-02	 2.24933000E-02
		-8.53989000E-05	-2.98507000E-02	-5.41628000E-04
		-2.07671000E-03	-5.24387000E-02	 1.07004000E-02
		-3.62755000E-03	-3.10100000E-02	 1.85891000E-02
		-1.73808000E-04	-5.37214000E-02	-1.18841000E-03
		-3.37881000E-03	-5.48739000E-02	 2.25316000E-02
		-1.04385000E-04	-3.26146000E-02	-7.20719000E-04
		-1.47429000E-03	-5.56291000E-02	 1.04674000E-02
		-2.10552000E-03	-3.37714000E-02	 1.84874000E-02
		 3.63741000E-03	-5.19773000E-02	-2.48486000E-02
		 2.43261000E-03	-5.51948000E-02	-2.51509000E-02
		 3.44358000E-03	-3.02447000E-02	-1.97545000E-02
		 1.72819000E-03	-5.18625000E-02	-1.28398000E-02
		 3.03965000E-03	-5.37234000E-02	-2.49752000E-02
		 1.90929000E-03	-3.30228000E-02	-2.00112000E-02
		 1.12750000E-03	-5.50696000E-02	-1.30683000E-02
		-1.96790000E-04	-5.71953000E-02	-1.46038000E-03
		-1.57962000E-03	-5.83099000E-02	 2.22581000E-02
		-1.85396000E-04	-5.63195000E-02	-1.38348000E-03
		-2.17646000E-03	-5.74914000E-02	 2.24856000E-02
		-1.38202000E-04	-3.38593000E-02	-8.33158000E-04
		-8.96204000E-04	-5.76092000E-02	 1.01545000E-02
		-6.07722000E-04	-3.49974000E-02	 1.83008000E-02
		 1.23086000E-03	-5.72142000E-02	-2.52471000E-02
		 1.83179000E-03	-5.63305000E-02	-2.53244000E-02
		 3.79500000E-04	-3.42973000E-02	-2.00451000E-02
		 5.15918000E-04	-5.70853000E-02	-1.30868000E-02
		-3.20460000E-04	-1.07262000E-01	-2.64691000E-03
		-4.47715000E-03	-1.08361000E-01	 2.67821000E-02
		-3.10724000E-04	-1.11109000E-01	-2.92675000E-03
		-3.91170000E-03	-1.12315000E-01	 2.65671000E-02
		-2.51620000E-04	-7.81810000E-02	-1.77201000E-03
		-2.39516000E-03	-1.07735000E-01	 1.19656000E-02
		-4.25468000E-03	-7.93522000E-02	 2.53183000E-02
		-3.13770000E-04	-1.09259000E-01	-2.78829000E-03
		-4.19642000E-03	-1.10422000E-01	 2.66355000E-02
		-2.49640000E-04	-8.17361000E-02	-2.03864000E-03
		-2.13604000E-03	-1.11638000E-01	 1.16691000E-02
		-3.38118000E-03	-8.29142000E-02	 2.51304000E-02
		 3.80075000E-03	-1.06648000E-01	-3.20946000E-02
		 3.29351000E-03	-1.10509000E-01	-3.24746000E-02
		 3.74702000E-03	-7.78608000E-02	-2.89194000E-02
		 1.74233000E-03	-1.06894000E-01	-1.72574000E-02
		 3.54630000E-03	-1.08644000E-01	-3.22596000E-02
		 2.89197000E-03	-8.14164000E-02	-2.92635000E-02
		 1.49264000E-03	-1.10754000E-01	-1.75513000E-02
		-3.12340000E-04	-1.14435000E-01	-3.17460000E-03
		-3.45815000E-03	-1.15754000E-01	 2.62480000E-02
		-3.10377000E-04	-1.12854000E-01	-3.05649000E-03
		-3.68720000E-03	-1.13992000E-01	 2.65176000E-02
		-2.50857000E-04	-8.44316000E-02	-2.25315000E-03
		-1.85366000E-03	-1.15019000E-01	 1.12744000E-02
		-2.55472000E-03	-8.56294000E-02	 2.48420000E-02
		 2.79614000E-03	-1.13874000E-01	-3.26791000E-02
		 3.04578000E-03	-1.12248000E-01	-3.26876000E-02
		 2.02712000E-03	-8.41279000E-02	-2.94056000E-02
		 1.23147000E-03	-1.14113000E-01	-1.76754000E-02
		-3.50300000E-04	-1.69361000E-01	-4.63834000E-03
		-4.70312000E-03	-1.70203000E-01	 2.62142000E-02
		-3.41555000E-04	-1.73789000E-01	-4.90981000E-03
		-4.86470000E-03	-1.75083000E-01	 2.59834000E-02
		-3.83611000E-04	-1.38019000E-01	-3.62356000E-03
		-2.52919000E-03	-1.69788000E-01	 1.07275000E-02
		-4.63508000E-03	-1.39102000E-01	 2.69435000E-02
		-3.44602000E-04	-1.71532000E-01	-4.77111000E-03
		-4.77436000E-03	-1.72544000E-01	 2.60946000E-02
		-3.78033000E-04	-1.42196000E-01	-3.94526000E-03
		-2.48031000E-03	-1.74428000E-01	 1.04600000E-02
		-4.47252000E-03	-1.43226000E-01	 2.67663000E-02
		 3.83787000E-03	-1.68394000E-01	-3.54871000E-02
		 3.88820000E-03	-1.72663000E-01	-3.57906000E-02
		 3.84291000E-03	-1.37197000E-01	-3.42033000E-02
		 1.74458000E-03	-1.68897000E-01	-2.00006000E-02
		 3.86674000E-03	-1.70513000E-01	-3.56320000E-02
		 3.64823000E-03	-1.41331000E-01	-3.45653000E-02
		 1.76090000E-03	-1.73220000E-01	-2.02801000E-02
		-4.74428000E-04	-1.78281000E-01	-5.18794000E-03
		-4.89657000E-03	-1.79938000E-01	 2.56748000E-02
		-4.05779000E-04	-1.75988000E-01	-5.05157000E-03
		-4.87850000E-03	-1.77986000E-01	 2.58734000E-02
		-4.01337000E-04	-1.46162000E-01	-4.28069000E-03
		-2.80101000E-03	-1.79083000E-01	 1.01184000E-02
		-4.14969000E-03	-1.47078000E-01	 2.64341000E-02
		 3.95183000E-03	-1.77010000E-01	-3.60276000E-02