# vtk DataFile Version 3.0

ASCII
DATASET UNSTRUCTURED_GRID

POINTS 522 double
	 1.00000000E+00	 1.00000000E+00	-5.96046000E-08
	 1.00000000E+00	 5.00000000E-01	-5.96046000E-08
	 1.00000000E+00	 5.00000000E-01	 1.00000000E+00
	 1.00000000E+00	 1.00000000E+00	 1.00000000E+00
	 5.00000000E-01	 1.00000000E+00	-5.96046000E-08
	 5.00000000E-01	 5.00000000E-01	-5.96046000E-08
	 5.00000000E-01	 5.00000000E-01	 1.00000000E+00
	 5.00000000E-01	 1.00000000E+00	 1.00000000E+00
	 1.00000000E+00	 7.50000000E-01	-5.96046000E-08
	 1.00000000E+00	 5.00000000E-01	 5.00000000E-01
	 1.00000000E+00	 7.50000000E-01	 1.00000000E+00
	 1.00000000E+00	 1.00000000E+00	 5.00000000E-01
	 7.50000000E-01	 1.00000000E+00	-5.96046000E-08
	 7.50000000E-01	 5.00000000E-01	-5.96046000E-08
	 7.50000000E-01	 5.00000000E-01	 1.00000000E+00
	 7.50000000E-01	 1.00000000E+00	 1.00000000E+00
	 5.00000000E-01	 7.50000000E-01	-5.96046000E-08
	 5.00000000E-01	 5.00000000E-01	 5.00000000E-01
	 5.00000000E-01	 7.50000000E-01	 1.00000000E+00
	 5.00000000E-01	 1.00000000E+00	 5.00000000E-01
	 1.00000000E+00	-1.49012000E-08	-5.96046000E-08
	 1.00000000E+00	-1.49012000E-08	 1.00000000E+00
	 5.00000000E-01	-1.49012000E-08	-5.96046000E-08
	 5.00000000E-01	-1.49012000E-08	 1.00000000E+00
	 1.00000000E+00	 2.50000000E-01	-5.96046000E-08
	 1.00000000E+00	-1.49012000E-08	 5.00000000E-01
	 1.00000000E+00	 2.50000000E-01	 1.00000000E+00
	 7.50000000E-01	-1.49012000E-08	-5.96046000E-08
	 7.50000000E-01	-1.49012000E-08	 1.00000000E+00
	 5.00000000E-01	 2.50000000E-01	-5.96046000E-08
	 5.00000000E-01	-1.49012000E-08	 5.00000000E-01
	 5.00000000E-01	 2.50000000E-01	 1.00000000E+00
	-7.45058000E-09	 1.00000000E+00	-5.96046000E-08
	-7.45058000E-09	 5.00000000E-01	-5.96046000E-08
	-7.45058000E-09	 5.00000000E-01	 1.00000000E+00
	-7.45058000E-09	 1.00000000E+00	 1.00000000E+00
	 2.50000000E-01	 1.00000000E+00	-5.96046000E-08
	 2.50000000E-01	 5.00000000E-01	-5.96046000E-08
	 2.50000000E-01	 5.00000000E-01	 1.00000000E+00
	 2.50000000E-01	 1.00000000E+00	 1.00000000E+00
	-7.45058000E-09	 7.50000000E-01	-5.96046000E-08
	-7.45058000E-09	 5.00000000E-01	 5.00000000E-01
	-7.45058000E-09	 7.50000000E-01	 1.00000000E+00
	-7.45058000E-09	 1.00000000E+00	 5.00000000E-01
	-7.45058000E-09	-1.49012000E-08	-5.96046000E-08
	-7.45058000E-09	-1.49012000E-08	 1.00000000E+00
	 2.50000000E-01	-1.49012000E-08	-5.96046000E-08
	 2.50000000E-01	-1.49012000E-08	 1.00000000E+00
	-7.45058000E-09	 2.50000000E-01	-5.96046000E-08
	-7.45058000E-09	-1.49012000E-08	 5.00000000E-01
	-7.45058000E-09	 2.50000000E-01	 1.00000000E+00
	 1.00000000E+00	 5.00000000E-01	 2.00000000E+00
	 1.00000000E+00	 1.00000000E+00	 2.00000000E+00
	 5.00000000E-01	 5.00000000E-01	 2.00000000E+00
	 5.00000000E-01	 1.00000000E+00	 2.00000000E+00
	 1.00000000E+00	 5.00000000E-01	 1.50000000E+00
	 1.00000000E+00	 7.50000000E-01	 2.00000000E+00
	 1.00000000E+00	 1.00000000E+00	 1.50000000E+00
	 7.50000000E-01	 5.00000000E-01	 2.00000000E+00
	 7.50000000E-01	 1.00000000E+00	 2.00000000E+00
	 5.00000000E-01	 5.00000000E-01	 1.50000000E+00
	 5.00000000E-01	 7.50000000E-01	 2.00000000E+00
	 5.00000000E-01	 1.00000000E+00	 1.50000000E+00
	 1.00000000E+00	-1.49012000E-08	 2.00000000E+00
	 5.00000000E-01	-1.49012000E-08	 2.00000000E+00
	 1.00000000E+00	-1.49012000E-08	 1.50000000E+00
	 1.00000000E+00	 2.50000000E-01	 2.00000000E+00
	 7.50000000E-01	-1.49012000E-08	 2.00000000E+00
	 5.00000000E-01	-1.49012000E-08	 1.50000000E+00
	 5.00000000E-01	 2.50000000E-01	 2.00000000E+00
	-7.45058000E-09	 5.00000000E-01	 2.00000000E+00
	-7.45058000E-09	 1.00000000E+00	 2.00000000E+00
	 2.50000000E-01	 5.00000000E-01	 2.00000000E+00
	 2.50000000E-01	 1.00000000E+00	 2.00000000E+00
	-7.45058000E-09	 5.00000000E-01	 1.50000000E+00
	-7.45058000E-09	 7.50000000E-01	 2.00000000E+00
	-7.45058000E-09	 1.00000000E+00	 1.50000000E+00
	-7.45058000E-09	-1.49012000E-08	 2.00000000E+00
	 2.50000000E-01	-1.49012000E-08	 2.00000000E+00
	-7.45058000E-09	-1.49012000E-08	 1.50000000E+00
	-7.45058000E-09	 2.50000000E-01	 2.00000000E+00
	 1.00000000E+00	 5.00000000E-01	 3.00000000E+00
	 1.00000000E+00	 1.00000000E+00	 3.00000000E+00
	 5.00000000E-01	 5.00000000E-01	 3.00000000E+00
	 5.00000000E-01	 1.00000000E+00	 3.00000000E+00
	 1.00000000E+00	 5.00000000E-01	 2.50000000E+00
	 1.00000000E+00	 7.50000000E-01	 3.00000000E+00
	 1.00000000E+00	 1.00000000E+00	 2.50000000E+00
	 7.50000000E-01	 5.00000000E-01	 3.00000000E+00
	 7.50000000E-01	 1.00000000E+00	 3.00000000E+00
	 5.00000000E-01	 5.00000000E-01	 2.50000000E+00
	 5.00000000E-01	 7.50000000E-01	 3.00000000E+00
	 5.00000000E-01	 1.00000000E+00	 2.50000000E+00
	 1.00000000E+00	-1.49012000E-08	 3.00000000E+00
	 5.00000000E-01	-1.49012000E-08	 3.00000000E+00
	 1.00000000E+00	-1.49012000E-08	 2.50000000E+00
	 1.00000000E+00	 2.50000000E-01	 3.00000000E+00
	 7.50000000E-01	-1.49012000E-08	 3.00000000E+00
	 5.00000000E-01	-1.49012000E-08	 2.50000000E+00
	 5.00000000E-01	 2.50000000E-01	 3.00000000E+00
	-7.45058000E-09	 5.00000000E-01	 3.00000000E+00
	-7.45058000E-09	 1.00000000E+00	 3.00000000E+00
	 2.50000000E-01	 5.00000000E-01	 3.00000000E+00
	 2.50000000E-01	 1.00000000E+00	 3.00000000E+00
	-7.45058000E-09	 5.00000000E-01	 2.50000000E+00
	-7.45058000E-09	 7.50000000E-01	 3.00000000E+00
	-7.45058000E-09	 1.00000000E+00	 2.50000000E+00
	-7.45058000E-09	-1.49012000E-08	 3.00000000E+00
	 2.50000000E-01	-1.49012000E-08	 3.00000000E+00
	-7.45058000E-09	-1.49012000E-08	 2.50000000E+00
	-7.45058000E-09	 2.50000000E-01	 3.00000000E+00
	 1.00000000E+00	 5.00000000E-01	 4.00000000E+00
	 1.00000000E+00	 1.00000000E+00	 4.00000000E+00
	 5.00000000E-01	 5.00000000E-01	 4.00000000E+00
	 5.00000000E-01	 1.00000000E+00	 4.00000000E+00
	 1.00000000E+00	 5.00000000E-01	 3.50000000E+00
	 1.00000000E+00	 7.50000000E-01	 4.00000000E+00
	 1.00000000E+00	 1.00000000E+00	 3.50000000E+00
	 7.50000000E-01	 5.00000000E-01	 4.00000000E+00
	 7.50000000E-01	 1.00000000E+00	 4.00000000E+00
	 5.00000000E-01	 5.00000000E-01	 3.50000000E+00
	 5.00000000E-01	 7.50000000E-01	 4.00000000E+00
	 5.00000000E-01	 1.00000000E+00	 3.50000000E+00
	 1.00000000E+00	-1.49012000E-08	 4.00000000E+00
	 5.00000000E-01	-1.49012000E-08	 4.00000000E+00
	 1.00000000E+00	-1.49012000E-08	 3.50000000E+00
	 1.00000000E+00	 2.50000000E-01	 4.00000000E+00
	 7.50000000E-01	-1.49012000E-08	 4.00000000E+00
	 5.00000000E-01	-1.49012000E-08	 3.50000000E+00
	 5.00000000E-01	 2.50000000E-01	 4.00000000E+00
	-7.45058000E-09	 5.00000000E-01	 4.00000000E+00
	-7.45058000E-09	 1.00000000E+00	 4.00000000E+00
	 2.50000000E-01	 5.00000000E-01	 4.00000000E+00
	 2.50000000E-01	 1.00000000E+00	 4.00000000E+00
	-7.45058000E-09	 5.00000000E-01	 3.50000000E+00
	-7.45058000E-09	 7.50000000E-01	 4.00000000E+00
	-7.45058000E-09	 1.00000000E+00	 3.50000000E+00
	-7.45058000E-09	-1.49012000E-08	 4.00000000E+00
	 2.50000000E-01	-1.49012000E-08	 4.00000000E+00
	-7.45058000E-09	-1.49012000E-08	 3.50000000E+00
	-7.45058000E-09	 2.50000000E-01	 4.00000000E+00
	 1.00000000E+00	 5.00000000E-01	 5.00000000E+00
	 1.00000000E+00	 1.00000000E+00	 5.00000000E+00
	 5.00000000E-01	 5.00000000E-01	 5.00000000E+00
	 5.00000000E-01	 1.00000000E+00	 5.00000000E+00
	 1.00000000E+00	 5.00000000E-01	 4.50000000E+00
	 1.00000000E+00	 7.50000000E-01	 5.00000000E+00
	 1.00000000E+00	 1.00000000E+00	 4.50000000E+00
	 7.50000000E-01	 5.00000000E-01	 5.00000000E+00
	 7.50000000E-01	 1.00000000E+00	 5.00000000E+00
	 5.00000000E-01	 5.00000000E-01	 4.50000000E+00
	 5.00000000E-01	 7.50000000E-01	 5.00000000E+00
	 5.00000000E-01	 1.00000000E+00	 4.50000000E+00
	 1.00000000E+00	-1.49012000E-08	 5.00000000E+00
	 5.00000000E-01	-1.49012000E-08	 5.00000000E+00
	 1.00000000E+00	-1.49012000E-08	 4.50000000E+00
	 1.00000000E+00	 2.50000000E-01	 5.00000000E+00
	 7.50000000E-01	-1.49012000E-08	 5.00000000E+00
	 5.00000000E-01	-1.49012000E-08	 4.50000000E+00
	 5.00000000E-01	 2.50000000E-01	 5.00000000E+00
	-7.45058000E-09	 5.00000000E-01	 5.00000000E+00
	-7.45058000E-09	 1.00000000E+00	 5.00000000E+00
	 2.50000000E-01	 5.00000000E-01	 5.00000000E+00
	 2.50000000E-01	 1.00000000E+00	 5.00000000E+00
	-7.45058000E-09	 5.00000000E-01	 4.50000000E+00
	-7.45058000E-09	 7.50000000E-01	 5.00000000E+00
	-7.45058000E-09	 1.00000000E+00	 4.50000000E+00
	-7.45058000E-09	-1.49012000E-08	 5.00000000E+00
	 2.50000000E-01	-1.49012000E-08	 5.00000000E+00
	-7.45058000E-09	-1.49012000E-08	 4.50000000E+00
	-7.45058000E-09	 2.50000000E-01	 5.00000000E+00
	 1.00000000E+00	 5.00000000E-01	 6.00000000E+00
	 1.00000000E+00	 1.00000000E+00	 6.00000000E+00
	 5.00000000E-01	 5.00000000E-01	 6.00000000E+00
	 5.00000000E-01	 1.00000000E+00	 6.00000000E+00
	 1.00000000E+00	 5.00000000E-01	 5.50000000E+00
	 1.00000000E+00	 7.50000000E-01	 6.00000000E+00
	 1.00000000E+00	 1.00000000E+00	 5.50000000E+00
	 7.50000000E-01	 5.00000000E-01	 6.00000000E+00
	 7.50000000E-01	 1.00000000E+00	 6.00000000E+00
	 5.00000000E-01	 5.00000000E-01	 5.50000000E+00
	 5.00000000E-01	 7.50000000E-01	 6.00000000E+00
	 5.00000000E-01	 1.00000000E+00	 5.50000000E+00
	 1.00000000E+00	-1.49012000E-08	 6.00000000E+00
	 5.00000000E-01	-1.49012000E-08	 6.00000000E+00
	 1.00000000E+00	-1.49012000E-08	 5.50000000E+00
	 1.00000000E+00	 2.50000000E-01	 6.00000000E+00
	 7.50000000E-01	-1.49012000E-08	 6.00000000E+00
	 5.00000000E-01	-1.49012000E-08	 5.50000000E+00
	 5.00000000E-01	 2.50000000E-01	 6.00000000E+00
	-7.45058000E-09	 5.00000000E-01	 6.00000000E+00
	-7.45058000E-09	 1.00000000E+00	 6.00000000E+00
	 2.50000000E-01	 5.00000000E-01	 6.00000000E+00
	 2.50000000E-01	 1.00000000E+00	 6.00000000E+00
	-7.45058000E-09	 5.00000000E-01	 5.50000000E+00
	-7.45058000E-09	 7.50000000E-01	 6.00000000E+00
	-7.45058000E-09	 1.00000000E+00	 5.50000000E+00
	-7.45058000E-09	-1.49012000E-08	 6.00000000E+00
	 2.50000000E-01	-1.49012000E-08	 6.00000000E+00
	-7.45058000E-09	-1.49012000E-08	 5.50000000E+00
	-7.45058000E-09	 2.50000000E-01	 6.00000000E+00
	 1.00000000E+00	 5.00000000E-01	 7.00000000E+00
[...]
POINT_DATA 522
FIELD U 1
	U 3 522 double
		 0.00000000E+00	 0.00000000E+00	 0.00000000E+00
		 0.00000000E+00	 0.00000000E+00	 0.00000000E+00
		-1.05487000E-05	-1.47723000E-03	-5.60097000E-06
		 3.83995000E-04	-1.66621000E-03	 1.87609000E-03
		 0.00000000E+00	 0.00000000E+00	 0.00000000E+00
		 0.00000000E+00	 0.00000000E+00	 0.00000000E+00
		-1.12208000E-05	-8.67448000E-04	-7.48730000E-06
		 7.86672000E-04	-1.07440000E-03	 1.86826000E-03
		 0.00000000E+00	 0.00000000E+00	 0.00000000E+00
		-6.30407000E-07	-1.46135000E-04	-6.55471000E-07
		 1.88089000E-04	-1.51302000E-03	 9.17103000E-04
		 9.50814000E-05	-2.98324000E-04	 7.34423000E-04
		 0.00000000E+00	 0.00000000E+00	 0.00000000E+00
		 0.00000000E+00	 0.00000000E+00	 0.00000000E+00
		-1.13360000E-05	-1.22825000E-03	-7.76150000E-06
		 5.85687000E-04	-1.42862000E-03	 1.92898000E-03
		 0.00000000E+00	 0.00000000E+00	 0.00000000E+00
		-1.58885000E-06	 1.10961000E-04	-4.12783000E-06
		 3.87329000E-04	-9.11385000E-04	 9.73285000E-04
		 3.90721000E-04	-5.30304000E-05	 6.87198000E-04
		 0.00000000E+00	 0.00000000E+00	 0.00000000E+00
		-4.09208000E-04	-1.66110000E-03	-1.88882000E-03
		 0.00000000E+00	 0.00000000E+00	 0.00000000E+00
		-8.13042000E-04	-1.06367000E-03	-1.88463000E-03
		 0.00000000E+00	 0.00000000E+00	 0.00000000E+00
		-9.79871000E-05	-2.97614000E-04	-7.35303000E-04
		-2.10548000E-04	-1.51033000E-03	-9.28631000E-04
		 0.00000000E+00	 0.00000000E+00	 0.00000000E+00
		-6.11912000E-04	-1.42030000E-03	-1.94611000E-03
		 0.00000000E+00	 0.00000000E+00	 0.00000000E+00
		-3.95400000E-04	-5.21527000E-05	-6.93800000E-04
		-4.10889000E-04	-9.05093000E-04	-9.88779000E-04
		 0.00000000E+00	 0.00000000E+00	 0.00000000E+00
		 0.00000000E+00	 0.00000000E+00	 0.00000000E+00
		-1.02670000E-05	 1.22485000E-04	-8.46012000E-06
		 1.18209000E-03	-8.25370000E-05	 1.87504000E-03
		 0.00000000E+00	 0.00000000E+00	 0.00000000E+00
		 0.00000000E+00	 0.00000000E+00	 0.00000000E+00
		-1.07011000E-05	-4.30106000E-04	-6.96824000E-06
		 9.82607000E-04	-6.33439000E-04	 1.78381000E-03
		 0.00000000E+00	 0.00000000E+00	 0.00000000E+00
		-2.76950000E-06	 6.40804000E-04	-6.95051000E-06
		 5.88380000E-04	 7.67786000E-05	 1.06286000E-03
		 6.55861000E-04	 4.56342000E-04	 7.29966000E-04
		 0.00000000E+00	 0.00000000E+00	 0.00000000E+00
		-1.20608000E-03	-6.40188000E-05	-1.89356000E-03
		 0.00000000E+00	 0.00000000E+00	 0.00000000E+00
		-1.00832000E-03	-6.19386000E-04	-1.79874000E-03
		 0.00000000E+00	 0.00000000E+00	 0.00000000E+00
		-6.61643000E-04	 4.58670000E-04	-7.41609000E-04
		-6.09554000E-04	 8.82527000E-05	-1.08086000E-03
		-1.17749000E-05	-8.79917000E-03	-5.68257000E-05
		 1.14684000E-03	-9.02667000E-03	 4.68831000E-03
		-1.37504000E-05	-7.43806000E-03	-4.24044000E-05
		 1.55301000E-03	-7.66337000E-03	 4.70832000E-03
		-1.51993000E-05	-4.35758000E-03	-2.54178000E-05
		 5.67389000E-04	-8.86326000E-03	 2.24668000E-03
		 7.59085000E-04	-4.57202000E-03	 3.28480000E-03
		-1.31883000E-05	-8.16872000E-03	-4.90737000E-05
		 1.35010000E-03	-8.39482000E-03	 4.75137000E-03
		-1.70159000E-05	-3.36777000E-03	-1.72297000E-05
		 7.70232000E-04	-7.50067000E-03	 2.31520000E-03
		 1.18599000E-03	-3.58308000E-03	 3.29404000E-03
		-1.16716000E-03	-8.97691000E-03	-4.80598000E-03
		-1.57638000E-03	-7.61769000E-03	-4.79784000E-03
		-7.90458000E-04	-4.55088000E-03	-3.33807000E-03
		-5.90064000E-04	-8.83865000E-03	-2.36114000E-03
		-1.37201000E-03	-8.34638000E-03	-4.85408000E-03
		-1.22054000E-03	-3.55915000E-03	-3.33371000E-03
		-7.96088000E-04	-7.47869000E-03	-2.40099000E-03
		-1.26986000E-05	-5.67103000E-03	-2.56639000E-05
		 1.96715000E-03	-5.88945000E-03	 4.72003000E-03
		-1.36327000E-05	-6.60351000E-03	-3.52805000E-05
		 1.76021000E-03	-6.82807000E-03	 4.67625000E-03
		-1.61466000E-05	-1.95187000E-03	-8.24822000E-06
		 9.74486000E-04	-5.72941000E-03	 2.36832000E-03
		 1.62671000E-03	-2.15861000E-03	 3.30135000E-03
		-1.98877000E-03	-5.84634000E-03	-4.77635000E-03
		-1.78365000E-03	-6.78424000E-03	-4.75188000E-03
		-1.66030000E-03	-2.12939000E-03	-3.32556000E-03
		-9.98555000E-04	-5.70910000E-03	-2.42031000E-03
		-2.21196000E-05	-2.15204000E-02	-1.55428000E-04
		 1.78451000E-03	-2.17706000E-02	 7.14560000E-03
		-2.25229000E-05	-1.95132000E-02	-1.34843000E-04
		 2.17669000E-03	-1.97696000E-02	 7.16026000E-03
		-1.19047000E-05	-1.45803000E-02	-9.71945000E-05
		 8.81185000E-04	-2.15962000E-02	 3.47357000E-03
		 1.49362000E-03	-1.48204000E-02	 5.93553000E-03
		-2.23213000E-05	-2.05651000E-02	-1.46680000E-04
		 1.98125000E-03	-2.08188000E-02	 7.19144000E-03
		-1.33614000E-05	-1.28877000E-02	-8.25251000E-05
		 1.07763000E-03	-1.95936000E-02	 3.53261000E-03
		 1.86987000E-03	-1.31254000E-02	 5.95433000E-03
		-1.83763000E-03	-2.16651000E-02	-7.46104000E-03
		-2.22879000E-03	-1.96518000E-02	-7.43340000E-03
		-1.51906000E-03	-1.47451000E-02	-6.13548000E-03
		-9.27970000E-04	-2.15445000E-02	-3.78491000E-03
		-2.03395000E-03	-2.07055000E-02	-7.48994000E-03
		-1.89685000E-03	-1.30485000E-02	-6.12175000E-03
		-1.12472000E-03	-1.95333000E-02	-3.80339000E-03
		-2.00027000E-05	-1.71155000E-02	-1.08745000E-04
		 2.56880000E-03	-1.73807000E-02	 7.19323000E-03
		-2.18052000E-05	-1.83636000E-02	-1.21525000E-04
		 2.37103000E-03	-1.86215000E-02	 7.12506000E-03
		-1.22175000E-05	-1.08142000E-02	-6.40373000E-05
		 1.27725000E-03	-1.72016000E-02	 3.61247000E-03
		 2.24893000E-03	-1.10554000E-02	 5.97200000E-03
		-2.61329000E-03	-1.72526000E-02	-7.41330000E-03
		-2.42072000E-03	-1.84997000E-02	-7.36981000E-03
		-2.27175000E-03	-1.09781000E-02	-6.09942000E-03
		-1.31824000E-03	-1.71338000E-02	-3.83186000E-03
		-4.55717000E-05	-3.95454000E-02	-3.54858000E-04
		 2.44339000E-03	-3.98701000E-02	 9.83666000E-03
		-4.31202000E-05	-3.68233000E-02	-2.99275000E-04
		 2.89885000E-03	-3.71589000E-02	 9.89599000E-03
		-3.57629000E-05	-2.97333000E-02	-2.40052000E-04
		 1.20237000E-03	-3.96484000E-02	 4.67113000E-03
		 2.07403000E-03	-3.00170000E-02	 8.46734000E-03
		-4.55834000E-05	-3.82408000E-02	-3.29296000E-04
		 2.67020000E-03	-3.85752000E-02	 9.92791000E-03
		-3.63111000E-05	-2.73961000E-02	-2.03908000E-04
		 1.42816000E-03	-3.69316000E-02	 4.79154000E-03
		 2.51287000E-03	-2.76927000E-02	 8.49431000E-03
		-2.53513000E-03	-3.96502000E-02	-1.05572000E-02
		-2.98439000E-03	-3.69339000E-02	-1.05079000E-02
		-2.15295000E-03	-2.98624000E-02	-8.95317000E-03
		-1.29336000E-03	-3.95394000E-02	-5.38416000E-03
		-2.76043000E-03	-3.83507000E-02	-1.05975000E-02
		-2.59094000E-03	-2.75258000E-02	-8.91044000E-03
		-1.51315000E-03	-3.68190000E-02	-5.39344000E-03
		-3.21782000E-05	-3.36647000E-02	-2.31242000E-04
		 3.35783000E-03	-3.39997000E-02	 9.95609000E-03
		-3.87233000E-05	-3.53015000E-02	-2.66175000E-04
		 3.12708000E-03	-3.56369000E-02	 9.86571000E-03
		-3.06515000E-05	-2.46318000E-02	-1.58784000E-04
		 1.66148000E-03	-3.37744000E-02	 4.91514000E-03
		 2.95025000E-03	-2.49350000E-02	 8.54526000E-03
		-3.42231000E-03	-3.37673000E-02	-1.04338000E-02
		-3.20426000E-03	-3.54102000E-02	-1.04134000E-02
		-3.01666000E-03	-2.47551000E-02	-8.87354000E-03
		-1.72514000E-03	-3.36569000E-02	-5.38105000E-03
		-5.33236000E-05	-6.40973000E-02	-6.89392000E-04
		 3.50825000E-03	-6.44127000E-02	 1.20476000E-02
		-4.06744000E-05	-6.04010000E-02	-5.91119000E-04
		 3.80094000E-03	-6.07137000E-02	 1.21699000E-02
		-4.93390000E-05	-5.11057000E-02	-5.04561000E-04
		 1.72743000E-03	-6.42160000E-02	 5.55052000E-03
		 2.94609000E-03	-5.14259000E-02	 1.10880000E-02
		-4.88271000E-05	-6.22854000E-02	-6.40894000E-04
		 3.65364000E-03	-6.26005000E-02	 1.21903000E-02
		-4.13255000E-05	-4.79157000E-02	-4.28617000E-04
		 1.88096000E-03	-6.05188000E-02	 5.73974000E-03
		 3.34209000E-03	-4.82422000E-02	 1.11812000E-02
		-3.60763000E-03	-6.40649000E-02	-1.34371000E-02
		-3.87916000E-03	-6.03678000E-02	-1.33619000E-02
		-3.03945000E-03	-5.11389000E-02	-1.21093000E-02
		-1.83184000E-03	-6.40476000E-02	-6.93159000E-03
		-3.74434000E-03	-6.22513000E-02	-1.34832000E-02
		-3.42057000E-03	-4.79560000E-02	-1.20514000E-02
		-1.96037000E-03	-6.03499000E-02	-6.92448000E-03
		-2.02928000E-05	-5.64212000E-02	-4.85319000E-04
		 4.10871000E-03	-5.67313000E-02	 1.22514000E-02
		-3.07472000E-05	-5.84468000E-02	-5.39343000E-04
		 3.95477000E-03	-5.87589000E-02	 1.21569000E-02
		-2.55810000E-05	-4.43453000E-02	-3.41104000E-04
		 2.04269000E-03	-5.65387000E-02	 5.88812000E-03
		 3.74235000E-03	-4.46699000E-02	 1.12490000E-02
		-4.15281000E-03	-5.63779000E-02	-1.32303000E-02
		-4.01705000E-03	-5.84126000E-02	-1.32432000E-02
		-3.79188000E-03	-4.43805000E-02	-1.19445000E-02
		-2.08386000E-03	-5.63638000E-02	-6.86180000E-03
		-3.79858000E-05	-9.23318000E-02	-1.12441000E-03
		 4.39515000E-03	-9.25720000E-02	 1.26913000E-02
		-1.68038000E-05	-8.78957000E-02	-9.85987000E-04
		 4.44674000E-03	-8.81228000E-02	 1.28503000E-02
		-5.03697000E-05	-7.80292000E-02	-9.01880000E-04
		 2.17450000E-03	-9.24461000E-02	 5.70945000E-03
		 4.02921000E-03	-7.83162000E-02	 1.25574000E-02
		-2.87472000E-05	-9.01190000E-02	-1.05524000E-03
		 4.42110000E-03	-9.03483000E-02	 1.28040000E-02
		-3.42644000E-05	-7.38867000E-02	-7.80464000E-04
		 2.21662000E-03	-8.80036000E-02	 5.88896000E-03
		 4.19226000E-03	-7.41620000E-02	 1.27065000E-02
		-4.46367000E-03	-9.21615000E-02	-1.49454000E-02
		-4.48187000E-03	-8.77161000E-02	-1.48270000E-02
		-4.12316000E-03	-7.79276000E-02	-1.43706000E-02
		-2.24840000E-03	-9.22459000E-02	-7.96047000E-03
		-4.47382000E-03	-8.99405000E-02	-1.49188000E-02
		-4.26113000E-03	-7.37747000E-02	-1.42750000E-02
		-2.25024000E-03	-8.78050000E-02	-7.86237000E-03
		 7.17207000E-06	-8.34091000E-02	-8.42033000E-04
		 4.51654000E-03	-8.36396000E-02	 1.29730000E-02
		-4.19109000E-06	-8.56566000E-02	-9.15166000E-04
		 4.48170000E-03	-8.58849000E-02	 1.29008000E-02
		-1.22041000E-05	-6.95811000E-02	-6.53598000E-04
		 2.26373000E-03	-8.35190000E-02	 6.03387000E-03
		 4.38148000E-03	-6.98539000E-02	 1.28059000E-02
		-4.51288000E-03	-8.32203000E-02	-1.46618000E-02
		-4.49788000E-03	-8.54746000E-02	-1.47359000E-02
		-4.41542000E-03	-6.94533000E-02	-1.41187000E-02
		-2.25175000E-03	-8.33116000E-02	-7.71922000E-03
		-3.60662000E-06	-1.20396000E-01	-1.54131000E-03
		 4.62498000E-03	-1.20587000E-01	 1.21621000E-02
		 2.29180000E-05	-1.15806000E-01	-1.38832000E-03
		 4.59815000E-03	-1.15986000E-01	 1.23113000E-02
		-2.43058000E-05	-1.06516000E-01	-1.33875000E-03
		 2.30854000E-03	-1.20498000E-01	 5.31385000E-03
		 4.57071000E-03	-1.06731000E-01	 1.24894000E-02
		 7.87405000E-06	-1.18094000E-01	-1.46461000E-03
		 4.61112000E-03	-1.18277000E-01	 1.22332000E-02
		 1.83442000E-06	-1.01952000E-01	-1.19149000E-03
		 2.31166000E-03	-1.15902000E-01	 5.46019000E-03
		 4.56162000E-03	-1.02153000E-01	 1.26460000E-02
		-4.62092000E-03	-1.20174000E-01	-1.52367000E-02
		-4.54862000E-03	-1.15585000E-01	-1.50801000E-02
		-4.60847000E-03	-1.06317000E-01	-1.51664000E-02
		-2.31253000E-03	-1.20292000E-01	-8.39332000E-03
		-4.58648000E-03	-1.17872000E-01	-1.51549000E-02
		-4.55697000E-03	-1.01748000E-01	-1.50291000E-02
		-2.26452000E-03	-1.15705000E-01	-8.23429000E-03
		 4.99712000E-05	-1.11259000E-01	-1.24233000E-03
		 4.57554000E-03	-1.11441000E-01	 1.24520000E-02
		 3.81768000E-05	-1.13528000E-01	-1.31455000E-03
		 4.58829000E-03	-1.13706000E-01	 1.23832000E-02
		 2.94544000E-05	-9.74067000E-02	-1.04251000E-03
		 2.31516000E-03	-1.11356000E-01	 5.60084000E-03
		 4.56506000E-03	-9.76115000E-02	 1.27837000E-02
		-4.48020000E-03	-1.11037000E-01	-1.49293000E-02
		-4.51338000E-03	-1.13305000E-01	-1.50058000E-02
		-4.51536000E-03	-9.71975000E-02	-1.48701000E-02
		-2.21667000E-03	-1.11157000E-01	-8.08211000E-03
		 6.66312000E-05	-1.47509000E-01	-1.91779000E-03
		 4.61404000E-03	-1.47716000E-01	 1.16488000E-02
		 7.31440000E-05	-1.42932000E-01	-1.76065000E-03
		 4.62704000E-03	-1.43145000E-01	 1.17821000E-02
		 2.89768000E-05	-1.33987000E-01	-1.73296000E-03
		 2.33875000E-03	-1.47613000E-01	 4.87388000E-03
		 4.61640000E-03	-1.34185000E-01	 1.18727000E-02
		 7.20949000E-05	-1.45225000E-01	-1.83681000E-03
		 4.62223000E-03	-1.45435000E-01	 1.17160000E-02
		 4.89331000E-05	-1.29411000E-01	-1.57632000E-03
		 2.34542000E-03	-1.43040000E-01	 5.01521000E-03
		 4.61567000E-03	-1.29607000E-01	 1.20120000E-02
		-4.49636000E-03	-1.47295000E-01	-1.54642000E-02
		-4.47826000E-03	-1.42709000E-01	-1.52814000E-02
		-4.56154000E-03	-1.33776000E-01	-1.53224000E-02
		-2.20937000E-03	-1.47400000E-01	-8.70236000E-03
		-4.48722000E-03	-1.45003000E-01	-1.53702000E-02
		-4.51463000E-03	-1.29197000E-01	-1.51475000E-02
		-2.19818000E-03	-1.42818000E-01	-8.53022000E-03
		 7.95201000E-05	-1.38372000E-01	-1.62450000E-03
		 4.63370000E-03	-1.38569000E-01	 1.19067000E-02
		 7.40941000E-05	-1.40648000E-01	-1.69042000E-03
		 4.62856000E-03	-1.40855000E-01	 1.18410000E-02
		 6.86346000E-05	-1.24862000E-01	-1.43682000E-03
		 2.35289000E-03	-1.38471000E-01	 5.14790000E-03
		 4.60748000E-03	-1.25053000E-01	 1.21444000E-02
		-4.45479000E-03	-1.38154000E-01	-1.51326000E-02
		-4.46630000E-03	-1.40426000E-01	-1.52001000E-02
		-4.46099000E-03	-1.24654000E-01	-1.50005000E-02
		-2.18866000E-03	-1.38262000E-01	-8.38913000E-03
		 0.00000000E+00	 0.00000000E+00	 0.00000000E+00
		 0.00000000E+00	 0.00000000E+00	 0.00000000E+00
		 1.23617000E-04	-7.72589000E-03	-2.52778000E-04
		-2.07856000E-03	-8.14353000E-03	 7.30916000E-03
		 0.00000000E+00	 0.00000000E+00	 0.00000000E+00
		 0.00000000E+00	 0.00000000E+00	 0.00000000E+00
		 1.02809000E-04	-9.48852000E-03	-2.01899000E-04
		-1.23060000E-03	-9.94198000E-03	 7.46068000E-03
		 0.00000000E+00	 0.00000000E+00	 0.00000000E+00
		 6.43174000E-05	-1.68092000E-03	-1.11626000E-04
		-9.80007000E-04	-7.77338000E-03	 3.51354000E-03
		-1.71315000E-03	-2.33141000E-03	 3.88817000E-03
		 0.00000000E+00	 0.00000000E+00	 0.00000000E+00
		 0.00000000E+00	 0.00000000E+00	 0.00000000E+00
		 1.12030000E-04	-8.76311000E-03	-2.27746000E-04
		-1.64769000E-03	-9.19376000E-03	 7.27498000E-03
		 0.00000000E+00	 0.00000000E+00	 0.00000000E+00
		 3.34666000E-05	-2.83143000E-03	-8.08977000E-05
		-5.62251000E-04	-9.54625000E-03	 3.49579000E-03
		-6.20878000E-04	-3.47763000E-03	 3.82956000E-03
		 0.00000000E+00	 0.00000000E+00	 0.00000000E+00
		 2.30670000E-03	-8.06575000E-03	-7.83091000E-03
		 0.00000000E+00	 0.00000000E+00	 0.00000000E+00
		 1.42695000E-03	-9.84329000E-03	-7.88404000E-03
		 0.00000000E+00	 0.00000000E+00	 0.00000000E+00
		 1.82709000E-03	-2.34411000E-03	-4.13166000E-03
		 1.22209000E-03	-7.73409000E-03	-4.02389000E-03
		 0.00000000E+00	 0.00000000E+00	 0.00000000E+00
		 1.85890000E-03	-9.10538000E-03	-7.74676000E-03
		 0.00000000E+00	 0.00000000E+00	 0.00000000E+00
		 6.78368000E-04	-3.47258000E-03	-4.00498000E-03
		 7.65071000E-04	-9.49839000E-03	-3.90550000E-03
		 0.00000000E+00	 0.00000000E+00	 0.00000000E+00
		 0.00000000E+00	 0.00000000E+00	 0.00000000E+00
		 8.67357000E-05	-1.03843000E-02	-1.33215000E-04
		-3.66392000E-04	-1.08096000E-02	 7.42638000E-03
		 0.00000000E+00	 0.00000000E+00	 0.00000000E+00
		 0.00000000E+00	 0.00000000E+00	 0.00000000E+00
		 9.37691000E-05	-1.00902000E-02	-1.71648000E-04
		-8.06559000E-04	-1.05273000E-02	 7.57395000E-03
		 0.00000000E+00	 0.00000000E+00	 0.00000000E+00
		 1.26406000E-05	-2.98089000E-03	-4.56418000E-05
		-1.37045000E-04	-1.04323000E-02	 3.38537000E-03
		 5.30489000E-04	-3.60223000E-03	 3.95735000E-03
		 0.00000000E+00	 0.00000000E+00	 0.00000000E+00
		 5.34410000E-04	-1.06919000E-02	-7.71044000E-03
		 0.00000000E+00	 0.00000000E+00	 0.00000000E+00
		 9.84480000E-04	-1.04204000E-02	-7.93779000E-03
		 0.00000000E+00	 0.00000000E+00	 0.00000000E+00
		-5.12639000E-04	-3.57217000E-03	-4.05984000E-03
		 3.11852000E-04	-1.03785000E-02	-3.65552000E-03
		 3.59580000E-04	-2.79698000E-02	-6.35432000E-04
		-2.94769000E-03	-2.84301000E-02	 1.20242000E-02
		 3.46601000E-04	-3.09549000E-02	-5.72082000E-04
		-2.31805000E-03	-3.14145000E-02	 1.21084000E-02
		 2.27292000E-04	-1.66084000E-02	-4.23885000E-04
		-1.29513000E-03	-2.81338000E-02	 5.72952000E-03
		-2.55019000E-03	-1.71100000E-02	 9.92327000E-03
		 3.52559000E-04	-2.95310000E-02	-6.05090000E-04
		-2.63312000E-03	-2.99880000E-02	 1.19927000E-02
		 2.07470000E-04	-1.90095000E-02	-3.59222000E-04
		-9.81432000E-04	-3.11164000E-02	 5.73286000E-03
		-1.81248000E-03	-1.95115000E-02	 1.00172000E-02
		 3.67390000E-03	-2.81178000E-02	-1.33133000E-02
		 3.01317000E-03	-3.11189000E-02	-1.32712000E-02
		 2.99678000E-03	-1.69252000E-02	-1.07922000E-02
		 2.01520000E-03	-2.79741000E-02	-7.00603000E-03
		 3.34568000E-03	-2.96928000E-02	-1.32177000E-02
		 2.22481000E-03	-1.93210000E-02	-1.07605000E-02
		 1.68007000E-03	-3.09710000E-02	-6.87873000E-03
		 3.29257000E-04	-3.33060000E-02	-4.93607000E-04
		-1.67397000E-03	-3.37422000E-02	 1.21619000E-02
		 3.37939000E-04	-3.21972000E-02	-5.35205000E-04
		-1.99500000E-03	-3.26780000E-02	 1.22236000E-02
		 1.91127000E-04	-2.06510000E-02	-2.79148000E-04
		-6.78482000E-04	-3.34497000E-02	 5.70749000E-03
		-1.07856000E-03	-2.11627000E-02	 1.00617000E-02
		 2.36311000E-03	-3.34717000E-02	-1.31697000E-02
		 2.68782000E-03	-3.23622000E-02	-1.33175000E-02
		 1.47216000E-03	-2.09756000E-02	-1.06472000E-02
		 1.34550000E-03	-3.33223000E-02	-6.69460000E-03
		 6.90936000E-04	-5.69537000E-02	-1.20473000E-03
		-3.56157000E-03	-5.73422000E-02	 1.49440000E-02
		 6.87372000E-04	-6.09833000E-02	-1.15588000E-03
		-3.17049000E-03	-6.14845000E-02	 1.50306000E-02
		 5.18267000E-04	-4.14973000E-02	-8.91611000E-04
		-1.42836000E-03	-5.70960000E-02	 6.84429000E-03
		-3.28575000E-03	-4.19505000E-02	 1.37320000E-02
		 6.91570000E-04	-5.90211000E-02	-1.17718000E-03
		-3.36851000E-03	-5.94792000E-02	 1.49184000E-02
		 5.07971000E-04	-4.50273000E-02	-8.38397000E-04
		-1.26567000E-03	-6.11851000E-02	 6.82945000E-03
		-2.75506000E-03	-4.54920000E-02	 1.38188000E-02
		 4.90293000E-03	-5.68738000E-02	-1.73493000E-02
		 4.54165000E-03	-6.09209000E-02	-1.73735000E-02
		 4.31818000E-03	-4.15360000E-02	-1.55323000E-02
		 2.79663000E-03	-5.68666000E-02	-9.24514000E-03
		 4.72252000E-03	-5.89455000E-02	-1.72979000E-02
		 3.77635000E-03	-4.50690000E-02	-1.55109000E-02
		 2.61595000E-03	-6.09102000E-02	-9.16397000E-03
		 6.72484000E-04	-6.46586000E-02	-1.09712000E-03
		-2.88457000E-03	-6.52711000E-02	 1.50460000E-02
		 6.80734000E-04	-6.28826000E-02	-1.13138000E-03
		-3.02903000E-03	-6.33154000E-02	 1.51601000E-02
		 5.01212000E-04	-4.80293000E-02	-7.71129000E-04
		-1.07768000E-03	-6.49188000E-02	 6.74143000E-03
		-2.25703000E-03	-4.85121000E-02	 1.38571000E-02
		 4.18644000E-03	-6.46217000E-02	-1.72983000E-02
		 4.36334000E-03	-6.28129000E-02	-1.74559000E-02
		 3.22495000E-03	-4.80681000E-02	-1.54144000E-02
		 2.42387000E-03	-6.46091000E-02	-8.98227000E-03
		 1.10099000E-03	-9.07913000E-02	-1.90928000E-03
		-3.89132000E-03	-9.09665000E-02	 1.51126000E-02
		 1.10569000E-03	-9.58795000E-02	-1.86683000E-03
		-4.06649000E-03	-9.64981000E-02	 1.51773000E-02
		 8.55688000E-04	-7.36993000E-02	-1.55415000E-03
		-1.39942000E-03	-9.08901000E-02	 6.60918000E-03
		-3.75120000E-03	-7.40809000E-02	 1.53337000E-02
		 1.10456000E-03	-9.32920000E-02	-1.88781000E-03
		-3.96877000E-03	-9.36303000E-02	 1.50976000E-02
		 8.50490000E-04	-7.82882000E-02	-1.55210000E-03
		-1.35812000E-03	-9.61842000E-02	 6.61018000E-03
		-3.67906000E-03	-7.86110000E-02	 1.54600000E-02
		 5.93823000E-03	-9.04827000E-02	-1.89276000E-02
		 5.99157000E-03	-9.54187000E-02	-1.89045000E-02
		 5.43929000E-03	-7.34921000E-02	-1.84428000E-02
		 3.52018000E-03	-9.06537000E-02	-1.04266000E-02
		 5.96876000E-03	-9.29365000E-02	-1.88682000E-02
		 5.31356000E-03	-7.80390000E-02	-1.84650000E-02
		 3.53574000E-03	-9.56416000E-02	-1.03445000E-02
		 9.68841000E-04	-1.01041000E-01	-1.82166000E-03
		-4.11199000E-03	-1.02020000E-01	 1.52059000E-02
		 1.03960000E-03	-9.84126000E-02	-1.84598000E-03
		-4.08683000E-03	-9.97334000E-02	 1.52611000E-02
		 8.16716000E-04	-8.27460000E-02	-1.56910000E-03
		-1.68751000E-03	-1.01508000E-01	 6.57501000E-03
		-3.44824000E-03	-8.29518000E-02	 1.54563000E-02
		 6.05749000E-03	-1.00437000E-01	-1.88392000E-02