<?xml version="1.0"?>
<VTKFile type="UnstructuredGrid" version="0.1" byte_order="LittleEndian">
	<UnstructuredGrid>
		<Piece NumberOfPoints="522" NumberOfCells="64">
			<Points>
				<DataArray type="Float64" NumberOfComponents="3" format="ascii">
					 1.00000000E+00	 1.00000000E+00	-5.96046000E-08
					 1.00000000E+00	 5.00000000E-01	-5.96046000E-08
					 1.00000000E+00	 5.00000000E-01	 1.00000000E+00
					 1.00000000E+00	 1.00000000E+00	 1.00000000E+00
					 5.00000000E-01	 1.00000000E+00	-5.96046000E-08
					 5.00000000E-01	 5.00000000E-01	-5.96046000E-08
					 5.00000000E-01	 5.00000000E-01	 1.00000000E+00
					 5.00000000E-01	 1.00000000E+00	 1.00000000E+00
					 1.00000000E+00	 7.50000000E-01	-5.96046000E-08
					 1.00000000E+00	 5.00000000E-01	 5.00000000E-01
					 1.00000000E+00	 7.50000000E-01	 1.00000000E+00
					 1.00000000E+00	 1.00000000E+00	 5.00000000E-01
					 7.50000000E-01	 1.00000000E+00	-5.96046000E-08
					 7.50000000E-01	 5.00000000E-01	-5.96046000E-08
					 7.50000000E-01	 5.00000000E-01	 1.00000000E+00
					 7.50000000E-01	 1.00000000E+00	 1.00000000E+00
					 5.00000000E-01	 7.50000000E-01	-5.96046000E-08
					 5.00000000E-01	 5.00000000E-01	 5.00000000E-01
					 5.00000000E-01	 7.50000000E-01	 1.00000000E+00
					 5.00000000E-01	 1.00000000E+00	 5.00000000E-01
					 1.00000000E+00	-1.49012000E-08	-5.96046000E-08
					 1.00000000E+00	-1.49012000E-08	 1.00000000E+00
					 5.00000000E-01	-1.49012000E-08	-5.96046000E-08
					 5.00000000E-01	-1.49012000E-08	 1.00000000E+00
					 1.00000000E+00	 2.50000000E-01	-5.96046000E-08
					 1.00000000E+00	-1.49012000E-08	 5.00000000E-01
					 1.00000000E+00	 2.50000000E-01	 1.00000000E+00
					 7.50000000E-01	-1.49012000E-08	-5.96046000E-08
					 7.50000000E-01	-1.49012000E-08	 1.00000000E+00
					 5.00000000E-01	 2.50000000E-01	-5.96046000E-08
					 5.00000000E-01	-1.49012000E-08	 5.00000000E-01
					 5.00000000E-01	 2.50000000E-01	 1.00000000E+00
					-7.45058000E-09	 1.00000000E+00	-5.96046000E-08
					-7.45058000E-09	 5.00000000E-01	-5.96046000E-08
					-7.45058000E-09	 5.00000000E-01	 1.00000000E+00
					-7.45058000E-09	 1.00000000E+00	 1.00000000E+00
					 2.50000000E-01	 1.00000000E+00	-5.96046000E-08
					 2.50000000E-01	 5.00000000E-01	-5.96046000E-08
					 2.50000000E-01	 5.00000000E-01	 1.00000000E+00
					 2.50000000E-01	 1.00000000E+00	 1.00000000E+00
					-7.45058000E-09	 7.50000000E-01	-5.96046000E-08
					-7.45058000E-09	 5.00000000E-01	 5.00000000E-01
					-7.45058000E-09	 7.50000000E-01	 1.00000000E+00
					-7.45058000E-09	 1.00000000E+00	 5.00000000E-01
					-7.45058000E-09	-1.49012000E-08	-5.96046000E-08
					-7.45058000E-09	-1.49012000E-08	 1.00000000E+00
					 2.50000000E-01	-1.49012000E-08	-5.96046000E-08
					 2.50000000E-01	-1.49012000E-08	 1.00000000E+00
					-7.45058000E-09	 2.50000000E-01	-5.96046000E-08
					-7.45058000E-09	-1.49012000E-08	 5.00000000E-01
					-7.45058000E-09	 2.50000000E-01	 1.00000000E+00
					 1.00000000E+00	 5.00000000E-01	 2.00000000E+00
					 1.00000000E+00	 1.00000000E+00	 2.00000000E+00
					 5.00000000E-01	 5.00000000E-01	 2.00000000E+00
					 5.00000000E-01	 1.00000000E+00	 2.00000000E+00
					 1.00000000E+00	 5.00000000E-01	 1.50000000E+00
					 1.00000000E+00	 7.50000000E-01	 2.00000000E+00
					 1.00000000E+00	 1.00000000E+00	 1.50000000E+00
					 7.50000000E-01	 5.00000000E-01	 2.00000000E+00
					 7.50000000E-01	 1.00000000E+00	 2.00000000E+00
					 5.00000000E-01	 5.00000000E-01	 1.50000000E+00
					 5.00000000E-01	 7.50000000E-01	 2.00000000E+00
					 5.00000000E-01	 1.00000000E+00	 1.50000000E+00
					 1.00000000E+00	-1.49012000E-08	 2.00000000E+00
					 5.00000000E-01	-1.49012000E-08	 2.00000000E+00
					 1.00000000E+00	-1.49012000E-08	 1.50000000E+00
					 1.00000000E+00	 2.50000000E-01	 2.00000000E+00
					 7.50000000E-01	-1.49012000E-08	 2.00000000E+00
					 5.00000000E-01	-1.49012000E-08	 1.50000000E+00
					 5.00000000E-01	 2.50000000E-01	 2.00000000E+00
					-7.45058000E-09	 5.00000000E-01	 2.00000000E+00
					-7.45058000E-09	 1.00000000E+00	 2.00000000E+00
					 2.50000000E-01	 5.00000000E-01	 2.00000000E+00
					 2.50000000E-01	 1.00000000E+00	 2.00000000E+00
					-7.45058000E-09	 5.00000000E-01	 1.50000000E+00
					-7.45058000E-09	 7.50000000E-01	 2.00000000E+00
					-7.45058000E-09	 1.00000000E+00	 1.50000000E+00
					-7.45058000E-09	-1.49012000E-08	 2.00000000E+00
					 2.50000000E-01	-1.49012000E-08	 2.00000000E+00
					-7.45058000E-09	-1.49012000E-08	 1.50000000E+00
					-7.45058000E-09	 2.50000000E-01	 2.00000000E+00
					 1.00000000E+00	 5.00000000E-01	 3.00000000E+00
					 1.00000000E+00	 1.00000000E+00	 3.00000000E+00
					 5.00000000E-01	 5.00000000E-01	 3.00000000E+00
					 5.00000000E-01	 1.00000000E+00	 3.00000000E+00
					 1.00000000E+00	 5.00000000E-01	 2.50000000E+00
					 1.00000000E+00	 7.50000000E-01	 3.00000000E+00
					 1.00000000E+00	 1.00000000E+00	 2.50000000E+00
					 7.50000000E-01	 5.00000000E-01	 3.00000000E+00
					 7.50000000E-01	 1.00000000E+00	 3.00000000E+00
					 5.00000000E-01	 5.00000000E-01	 2.50000000E+00
					 5.00000000E-01	 7.50000000E-01	 3.00000000E+00
					 5.00000000E-01	 1.00000000E+00	 2.50000000E+00
					 1.00000000E+00	-1.49012000E-08	 3.00000000E+00
					 5.00000000E-01	-1.49012000E-08	 3.00000000E+00
					 1.00000000E+00	-1.49012000E-08	 2.50000000E+00
					 1.00000000E+00	 2.50000000E-01	 3.00000000E+00
					 7.50000000E-01	-1.49012000E-08	 3.00000000E+00
					 5.00000000E-01	-1.49012000E-08	 2.50000000E+00
					 5.00000000E-01	 2.50000000E-01	 3.00000000E+00
					-7.45058000E-09	 5.00000000E-01	 3.00000000E+00
					-7.45058000E-09	 1.00000000E+00	 3.00000000E+00
					 2.50000000E-01	 5.00000000E-01	 3.00000000E+00
					 2.50000000E-01	 1.00000000E+00	 3.00000000E+00
					-7.45058000E-09	 5.00000000E-01	 2.50000000E+00
					-7.45058000E-09	 7.50000000E-01	 3.00000000E+00
					-7.45058000E-09	 1.00000000E+00	 2.50000000E+00
					-7.45058000E-09	-1.49012000E-08	 3.00000000E+00
					 2.50000000E-01	-1.49012000E-08	 3.00000000E+00
					-7.45058000E-09	-1.49012000E-08	 2.50000000E+00
					-7.45058000E-09	 2.50000000E-01	 3.00000000E+00
					 1.00000000E+00	 5.00000000E-01	 4.00000000E+00
					 1.00000000E+00	 1.00000000E+00	 4.00000000E+00
					 5.00000000E-01	 5.00000000E-01	 4.00000000E+00
					 5.00000000E-01	 1.00000000E+00	 4.00000000E+00
					 1.00000000E+00	 5.00000000E-01	 3.50000000E+00
					 1.00000000E+00	 7.50000000E-01	 4.00000000E+00
					 1.00000000E+00	 1.00000000E+00	 3.50000000E+00
					 7.50000000E-01	 5.00000000E-01	 4.00000000E+00
					 7.50000000E-01	 1.00000000E+00	 4.00000000E+00
					 5.00000000E-01	 5.00000000E-01	 3.50000000E+00
					 5.00000000E-01	 7.50000000E-01	 4.00000000E+00
					 5.00000000E-01	 1.00000000E+00	 3.50000000E+00
					 1.00000000E+00	-1.49012000E-08	 4.00000000E+00
					 5.00000000E-01	-1.49012000E-08	 4.00000000E+00
					 1.00000000E+00	-1.49012000E-08	 3.50000000E+00
					 1.00000000E+00	 2.50000000E-01	 4.00000000E+00
					 7.50000000E-01	-1.49012000E-08	 4.00000000E+00
					 5.00000000E-01	-1.49012000E-08	 3.50000000E+00
					 5.00000000E-01	 2.50000000E-01	 4.00000000E+00
					-7.45058000E-09	 5.00000000E-01	 4.00000000E+00
					-7.45058000E-09	 1.00000000E+00	 4.00000000E+00
					 2.50000000E-01	 5.00000000E-01	 4.00000000E+00
					 2.50000000E-01	 1.00000000E+00	 4.00000000E+00
					-7.45058000E-09	 5.00000000E-01	 3.50000000E+00
					-7.45058000E-09	 7.50000000E-01	 4.00000000E+00
					-7.45058000E-09	 1.00000000E+00	 3.50000000E+00
					-7.45058000E-09	-1.49012000E-08	 4.00000000E+00
					 2.50000000E-01	-1.49012000E-08	 4.00000000E+00
					-7.45058000E-09	-1.49012000E-08	 3.50000000E+00
					-7.45058000E-09	 2.50000000E-01	 4.00000000E+00
					 1.00000000E+00	 5.00000000E-01	 5.00000000E+00
					 1.00000000E+00	 1.00000000E+00	 5.00000000E+00
					 5.00000000E-01	 5.00000000E-01	 5.00000000E+00
					 5.00000000E-01	 1.00000000E+00	 5.00000000E+00
					 1.00000000E+00	 5.00000000E-01	 4.50000000E+00
					 1.00000000E+00	 7.50000000E-01	 5.00000000E+00
					 1.00000000E+00	 1.00000000E+00	 4.50000000E+00
					 7.50000000E-01	 5.00000000E-01	 5.00000000E+00
					 7.50000000E-01	 1.00000000E+00	 5.00000000E+00
					 5.00000000E-01	 5.00000000E-01	 4.50000000E+00
					 5.00000000E-01	 7.50000000E-01	 5.00000000E+00
					 5.00000000E-01	 1.00000000E+00	 4.50000000E+00
					 1.00000000E+00	-1.49012000E-08	 5.00000000E+00
					 5.00000000E-01	-1.49012000E-08	 5.00000000E+00
					 1.00000000E+00	-1.49012000E-08	 4.50000000E+00
					 1.00000000E+00	 2.50000000E-01	 5.00000000E+00
					 7.50000000E-01	-1.49012000E-08	 5.00000000E+00
					 5.00000000E-01	-1.49012000E-08	 4.50000000E+00
					 5.00000000E-01	 2.50000000E-01	 5.00000000E+00
					-7.45058000E-09	 5.00000000E-01	 5.00000000E+00
					-7.45058000E-09	 1.00000000E+00	 5.00000000E+00
					 2.50000000E-01	 5.00000000E-01	 5.00000000E+00
					 2.50000000E-01	 1.00000000E+00	 5.00000000E+00
					-7.45058000E-09	 5.00000000E-01	 4.50000000E+00
					-7.45058000E-09	 7.50000000E-01	 5.00000000E+00
					-7.45058000E-09	 1.00000000E+00	 4.50000000E+00
					-7.45058000E-09	-1.49012000E-08	 5.00000000E+00
					 2.50000000E-01	-1.49012000E-08	 5.00000000E+00
					-7.45058000E-09	-1.49012000E-08	 4.50000000E+00
					-7.45058000E-09	 2.50000000E-01	 5.00000000E+00
					 1.00000000E+00	 5.00000000E-01	 6.00000000E+00
					 1.00000000E+00	 1.00000000E+00	 6.00000000E+00
					 5.00000000E-01	 5.00000000E-01	 6.00000000E+00
					 5.00000000E-01	 1.00000000E+00	 6.00000000E+00
					 1.00000000E+00	 5.00000000E-01	 5.50000000E+00
					 1.00000000E+00	 7.50000000E-01	 6.00000000E+00
					 1.00000000E+00	 1.00000000E+00	 5.50000000E+00
					 7.50000000E-01	 5.00000000E-01	 6.00000000E+00
					 7.50000000E-01	 1.00000000E+00	 6.00000000E+00
					 5.00000000E-01	 5.00000000E-01	 5.50000000E+00
					 5.00000000E-01	 7.50000000E-01	 6.00000000E+00
					 5.00000000E-01	 1.00000000E+00	 5.50000000E+00
					 1.00000000E+00	-1.49012000E-08	 6.00000000E+00
[...]
			<PointData>
				<DataArray type="Float32" Name="U" NumberOfComponents="3" ComponentName0="D1" ComponentName1="D2" ComponentName2="D3" format="ascii">
					 0.00000000E+00	 0.00000000E+00	 0.00000000E+00
					 0.00000000E+00	 0.00000000E+00	 0.00000000E+00
					-1.22548000E-05	-9.42998000E-04	 2.39922000E-05
					-1.54343000E-03	-1.21290000E-03	 2.97752000E-03
					 0.00000000E+00	 0.00000000E+00	 0.00000000E+00
					 0.00000000E+00	 0.00000000E+00	 0.00000000E+00
					-1.02935000E-05	-2.20317000E-03	 1.51440000E-05
					-1.01434000E-03	-2.48131000E-03	 2.97099000E-03
					 0.00000000E+00	 0.00000000E+00	 0.00000000E+00
					-6.75430000E-06	 4.14624000E-04	 1.42074000E-05
					-7.81076000E-04	-9.97392000E-04	 1.63205000E-03
					-9.65341000E-04	 1.30052000E-04	 1.31444000E-03
					 0.00000000E+00	 0.00000000E+00	 0.00000000E+00
					 0.00000000E+00	 0.00000000E+00	 0.00000000E+00
					-1.10600000E-05	-1.65314000E-03	 1.91765000E-05
					-1.27483000E-03	-1.92388000E-03	 2.87549000E-03
					 0.00000000E+00	 0.00000000E+00	 0.00000000E+00
					-2.85505000E-06	-3.25665000E-04	 9.22295000E-06
					-5.12360000E-04	-2.25789000E-03	 1.52820000E-03
					-5.37692000E-04	-5.89507000E-04	 1.25213000E-03
					 0.00000000E+00	 0.00000000E+00	 0.00000000E+00
					 1.52148000E-03	-1.17858000E-03	-2.93063000E-03
					 0.00000000E+00	 0.00000000E+00	 0.00000000E+00
					 1.00031000E-03	-2.45289000E-03	-2.94170000E-03
					 0.00000000E+00	 0.00000000E+00	 0.00000000E+00
					 9.50282000E-04	 1.44061000E-04	-1.28410000E-03
					 7.57124000E-04	-9.77834000E-04	-1.58562000E-03
					 0.00000000E+00	 0.00000000E+00	 0.00000000E+00
					 1.25770000E-03	-1.89314000E-03	-2.83665000E-03
					 0.00000000E+00	 0.00000000E+00	 0.00000000E+00
					 5.33943000E-04	-5.77276000E-04	-1.23133000E-03
					 4.94072000E-04	-2.24269000E-03	-1.49841000E-03
					 0.00000000E+00	 0.00000000E+00	 0.00000000E+00
					 0.00000000E+00	 0.00000000E+00	 0.00000000E+00
					-8.16705000E-06	-2.95642000E-03	 6.38295000E-06
					-4.79094000E-04	-3.21143000E-03	 2.95988000E-03
					 0.00000000E+00	 0.00000000E+00	 0.00000000E+00
					 0.00000000E+00	 0.00000000E+00	 0.00000000E+00
					-9.36250000E-06	-2.65775000E-03	 1.10721000E-05
					-7.49640000E-04	-2.92659000E-03	 3.03034000E-03
					 0.00000000E+00	 0.00000000E+00	 0.00000000E+00
					-2.42125000E-07	-6.57161000E-04	 5.59147000E-06
					-2.44634000E-04	-3.00084000E-03	 1.45154000E-03
					-7.77969000E-05	-9.03876000E-04	 1.30546000E-03
					 0.00000000E+00	 0.00000000E+00	 0.00000000E+00
					 4.72001000E-04	-3.19204000E-03	-2.94732000E-03
					 0.00000000E+00	 0.00000000E+00	 0.00000000E+00
					 7.38992000E-04	-2.90105000E-03	-3.00996000E-03
					 0.00000000E+00	 0.00000000E+00	 0.00000000E+00
					 8.13340000E-05	-8.96300000E-04	-1.29255000E-03
					 2.31305000E-04	-2.99206000E-03	-1.43827000E-03
					-7.28755000E-06	-9.98105000E-03	-5.19314000E-06
					-2.28617000E-03	-1.02968000E-02	 6.81297000E-03
					-3.69029000E-06	-1.19616000E-02	-2.76694000E-05
					-1.70803000E-03	-1.22903000E-02	 6.80396000E-03
					-1.19357000E-05	-4.33776000E-03	 1.90848000E-05
					-1.14136000E-03	-1.00695000E-02	 3.40010000E-03
					-1.99739000E-03	-4.63769000E-03	 4.90365000E-03
					-5.17250000E-06	-1.10393000E-02	-1.70761000E-05
					-1.99802000E-03	-1.13675000E-02	 6.78214000E-03
					-1.11791000E-05	-6.01656000E-03	 3.97410000E-06
					-8.57791000E-04	-1.20562000E-02	 3.35724000E-03
					-1.40295000E-03	-6.32795000E-03	 4.88705000E-03
					 2.27203000E-03	-1.01810000E-02	-6.83446000E-03
					 1.70598000E-03	-1.21801000E-02	-6.86955000E-03
					 1.97855000E-03	-4.56558000E-03	-4.86927000E-03
					 1.12626000E-03	-1.00095000E-02	-3.41271000E-03
					 1.99081000E-03	-1.12550000E-02	-6.82794000E-03
					 1.38915000E-03	-6.26596000E-03	-4.88261000E-03
					 8.52025000E-04	-1.20002000E-02	-3.41496000E-03
					-1.53563000E-06	-1.33935000E-02	-3.94474000E-05
					-1.14482000E-03	-1.37127000E-02	 6.78111000E-03
					-2.80132000E-06	-1.27466000E-02	-3.54228000E-05
					-1.42611000E-03	-1.30727000E-02	 6.83448000E-03
					-1.06962000E-05	-7.12652000E-03	-5.59106000E-06
					-5.76780000E-04	-1.34828000E-02	 3.29794000E-03
					-8.29129000E-04	-7.43530000E-03	 4.88031000E-03
					 1.15041000E-03	-1.36119000E-02	-6.86907000E-03
					 1.42796000E-03	-1.29649000E-02	-6.91483000E-03
					 8.18933000E-04	-7.38361000E-03	-4.89425000E-03
					 5.76220000E-04	-1.34341000E-02	-3.37855000E-03
					 1.68163000E-05	-2.72370000E-02	-1.39863000E-04
					-2.45185000E-03	-2.74940000E-02	 9.66783000E-03
					 2.58958000E-05	-2.95472000E-02	-1.74727000E-04
					-2.12520000E-03	-2.98049000E-02	 9.66257000E-03
					 2.48018000E-06	-1.77759000E-02	-5.79789000E-05
					-1.21742000E-03	-2.73240000E-02	 4.71417000E-03
					-2.41023000E-03	-1.80684000E-02	 8.44039000E-03
					 2.20479000E-05	-2.84322000E-02	-1.57329000E-04
					-2.28901000E-03	-2.86897000E-02	 9.65738000E-03
					 9.10944000E-06	-1.99555000E-02	-8.62711000E-05
					-1.04973000E-03	-2.96353000E-02	 4.68220000E-03
					-1.94175000E-03	-2.02529000E-02	 8.44004000E-03
					 2.48336000E-03	-2.72896000E-02	-9.95781000E-03
					 2.17599000E-03	-2.96008000E-02	-1.00212000E-02
					 2.41217000E-03	-1.79090000E-02	-8.57073000E-03
					 1.25065000E-03	-2.72259000E-02	-4.99671000E-03
					 2.33051000E-03	-2.84846000E-02	-9.98200000E-03
					 1.96161000E-03	-2.00940000E-02	-8.62592000E-03
					 1.10077000E-03	-2.95361000E-02	-5.03385000E-03
					 3.06210000E-05	-3.15383000E-02	-2.02949000E-04
					-1.80622000E-03	-3.17963000E-02	 9.60310000E-03
					 2.88854000E-05	-3.05830000E-02	-1.90647000E-04
					-1.96424000E-03	-3.08412000E-02	 9.67579000E-03
					 1.26143000E-05	-2.16803000E-02	-1.04679000E-04
					-8.87560000E-04	-3.16257000E-02	 4.59621000E-03
					-1.48196000E-03	-2.19718000E-02	 8.39428000E-03
					 1.86912000E-03	-3.15974000E-02	-1.00167000E-02
					 2.02253000E-03	-3.06380000E-02	-1.00642000E-02
					 1.51338000E-03	-2.18218000E-02	-8.61564000E-03
					 9.49285000E-04	-3.15306000E-02	-5.00461000E-03
					 3.60684000E-05	-4.88148000E-02	-3.53844000E-04
					-2.46490000E-03	-4.89901000E-02	 1.06629000E-02
					 4.82459000E-05	-5.12826000E-02	-4.02340000E-04
					-2.38132000E-03	-5.14526000E-02	 1.06281000E-02
					 2.98915000E-05	-3.77704000E-02	-2.41324000E-04
					-1.21728000E-03	-4.88945000E-02	 5.13702000E-03
					-2.45834000E-03	-3.79858000E-02	 1.03513000E-02
					 4.17031000E-05	-5.00567000E-02	-3.79085000E-04
					-2.42205000E-03	-5.02266000E-02	 1.06380000E-02
					 4.04374000E-05	-4.01698000E-02	-2.84329000E-04
					-1.16648000E-03	-5.13599000E-02	 5.08758000E-03
					-2.27095000E-03	-4.03838000E-02	 1.03357000E-02
					 2.53908000E-03	-4.87327000E-02	-1.13704000E-02
					 2.47144000E-03	-5.11971000E-02	-1.14330000E-02
					 2.51667000E-03	-3.77514000E-02	-1.08390000E-02
					 1.28929000E-03	-4.87675000E-02	-5.84519000E-03
					 2.50482000E-03	-4.99720000E-02	-1.13953000E-02
					 2.34595000E-03	-4.01492000E-02	-1.09079000E-02
					 1.26037000E-03	-5.12347000E-02	-5.89248000E-03
					 5.69713000E-05	-5.36656000E-02	-4.48181000E-04
					-2.30149000E-03	-5.38488000E-02	 1.05679000E-02
					 5.39977000E-05	-5.24823000E-02	-4.24997000E-04
					-2.34236000E-03	-5.26556000E-02	 1.06183000E-02
					 4.69415000E-05	-4.23850000E-02	-3.22955000E-04
					-1.11803000E-03	-5.37501000E-02	 5.01519000E-03
					-2.09138000E-03	-4.26095000E-02	 1.02682000E-02
					 2.40300000E-03	-5.35812000E-02	-1.14657000E-02
					 2.43849000E-03	-5.23953000E-02	-1.14700000E-02
					 2.17653000E-03	-4.23682000E-02	-1.09163000E-02
					 1.22847000E-03	-5.36164000E-02	-5.91151000E-03
					 4.04497000E-05	-7.11441000E-02	-5.82616000E-04
					-2.68177000E-03	-7.13283000E-02	 1.08756000E-02
					 4.93936000E-05	-7.38254000E-02	-6.41663000E-04
					-2.59145000E-03	-7.40082000E-02	 1.08137000E-02
					 3.80893000E-05	-5.99410000E-02	-4.67449000E-04
					-1.32099000E-03	-7.12263000E-02	 5.17535000E-03
					-2.54459000E-03	-6.01212000E-02	 1.07712000E-02
					 4.53695000E-05	-7.24952000E-02	-6.11860000E-04
					-2.63633000E-03	-7.26780000E-02	 1.08215000E-02
					 4.97071000E-05	-6.24989000E-02	-5.19888000E-04
					-1.27099000E-03	-7.39063000E-02	 5.09320000E-03
					-2.47867000E-03	-6.26723000E-02	 1.07174000E-02
					 2.76163000E-03	-7.10465000E-02	-1.20410000E-02
					 2.69341000E-03	-7.37283000E-02	-1.20979000E-02
					 2.62465000E-03	-5.98487000E-02	-1.17051000E-02
					 1.40168000E-03	-7.10841000E-02	-6.33966000E-03
					 2.72706000E-03	-7.23971000E-02	-1.20465000E-02
					 2.57859000E-03	-6.24043000E-02	-1.17585000E-02
					 1.37062000E-03	-7.37653000E-02	-6.37669000E-03
					 5.60979000E-05	-7.64286000E-02	-7.04174000E-04
					-2.50053000E-03	-7.66053000E-02	 1.07571000E-02
					 5.28050000E-05	-7.51373000E-02	-6.72171000E-04
					-2.54551000E-03	-7.53184000E-02	 1.07995000E-02
					 5.88782000E-05	-6.49973000E-02	-5.72443000E-04
					-1.22314000E-03	-7.65056000E-02	 5.02021000E-03
					-2.41181000E-03	-6.51741000E-02	 1.06662000E-02
					 2.62027000E-03	-7.63349000E-02	-1.21667000E-02
					 2.65754000E-03	-7.50415000E-02	-1.21453000E-02
					 2.52876000E-03	-6.49060000E-02	-1.18152000E-02
					 1.33730000E-03	-7.63715000E-02	-6.42862000E-03
					 3.79130000E-05	-9.44464000E-02	-8.43055000E-04
					-2.98233000E-03	-9.46357000E-02	 1.12160000E-02
					 4.24281000E-05	-9.74297000E-02	-9.21032000E-04
					-2.90138000E-03	-9.76229000E-02	 1.11471000E-02
					 4.23146000E-05	-8.26104000E-02	-7.07113000E-04
					-1.47034000E-03	-9.45316000E-02	 5.19050000E-03
					-2.83641000E-03	-8.27971000E-02	 1.10616000E-02
					 4.14755000E-05	-9.59466000E-02	-8.82518000E-04
					-2.94152000E-03	-9.61390000E-02	 1.11610000E-02
					 4.77103000E-05	-8.54387000E-02	-7.75405000E-04
					-1.42838000E-03	-9.75170000E-02	 5.09638000E-03
					-2.73462000E-03	-8.56288000E-02	 1.09968000E-02
					 3.05475000E-03	-9.43230000E-02	-1.29027000E-02
					 2.98767000E-03	-9.73068000E-02	-1.29909000E-02
					 2.91499000E-03	-8.25027000E-02	-1.24761000E-02
					 1.54518000E-03	-9.43745000E-02	-6.87708000E-03
					 3.02276000E-03	-9.58248000E-02	-1.29259000E-02
					 2.82997000E-03	-8.53308000E-02	-1.25470000E-02
					 1.51382000E-03	-9.73580000E-02	-6.93858000E-03
					 4.59977000E-05	-1.00340000E-01	-9.94969000E-04
					-2.82147000E-03	-1.00530000E-01	 1.10680000E-02
					 4.31724000E-05	-9.88958000E-02	-9.58877000E-04
					-2.86146000E-03	-9.90886000E-02	 1.11376000E-02
					 5.06958000E-05	-8.81753000E-02	-8.46240000E-04
					-1.38804000E-03	-1.00425000E-01	 4.99071000E-03
					-2.63103000E-03	-8.83581000E-02	 1.09285000E-02
					 2.91933000E-03	-1.00221000E-01	-1.30610000E-02
					 2.95228000E-03	-9.87737000E-02	-1.30582000E-02
					 2.73749000E-03	-8.80669000E-02	-1.26193000E-02
					 1.48208000E-03	-1.00271000E-01	-6.98134000E-03
					 2.06884000E-05	-1.18797000E-01	-1.13337000E-03
					-3.20019000E-03	-1.18961000E-01	 1.11536000E-02
					 3.07276000E-05	-1.22022000E-01	-1.21852000E-03
					-3.17818000E-03	-1.22185000E-01	 1.10605000E-02
					 2.86144000E-05	-1.06567000E-01	-9.85998000E-04
					-1.58755000E-03	-1.18879000E-01	 5.01827000E-03
					-3.10290000E-03	-1.06746000E-01	 1.12344000E-02
					 2.50892000E-05	-1.20406000E-01	-1.17552000E-03
					-3.18995000E-03	-1.20572000E-01	 1.10971000E-02
					 3.74727000E-05	-1.09690000E-01	-1.07048000E-03
					-1.57134000E-03	-1.22104000E-01	 4.91491000E-03
					-3.05716000E-03	-1.09869000E-01	 1.11568000E-02
					 3.24074000E-03	-1.18633000E-01	-1.34113000E-02
					 3.25169000E-03	-1.21859000E-01	-1.34891000E-02
					 3.16243000E-03	-1.06420000E-01	-1.32062000E-02
					 1.62895000E-03	-1.18715000E-01	-7.28010000E-03
					 3.24426000E-03	-1.20243000E-01	-1.34405000E-02
					 3.14006000E-03	-1.09546000E-01	-1.33003000E-02
					 1.63713000E-03	-1.21942000E-01	-7.34829000E-03
					 4.24322000E-05	-1.25239000E-01	-1.31281000E-03
					-3.16232000E-03	-1.25394000E-01	 1.09520000E-02
					 3.66324000E-05	-1.23634000E-01	-1.26540000E-03
					-3.16789000E-03	-1.23793000E-01	 1.10191000E-02
					 4.73025000E-05	-1.12779000E-01	-1.14987000E-03
					-1.55903000E-03	-1.25316000E-01	 4.79770000E-03
					-3.01610000E-03	-1.12954000E-01	 1.10678000E-02
					 3.26903000E-03	-1.25094000E-01	-1.35698000E-02
					 3.26100000E-03	-1.23475000E-01	-1.35434000E-02
					 3.12268000E-03	-1.12646000E-01	-1.33731000E-02
					 1.64987000E-03	-1.25171000E-01	-7.41811000E-03
					 2.34052000E-05	-1.43262000E-01	-1.43456000E-03
					-3.34127000E-03	-1.43443000E-01	 1.08780000E-02
					-3.95224000E-06	-1.46556000E-01	-1.51662000E-03
					-3.33365000E-03	-1.46750000E-01	 1.07534000E-02
					 1.76679000E-05	-1.31012000E-01	-1.28483000E-03
					-1.66187000E-03	-1.43356000E-01	 4.72909000E-03
					-3.28619000E-03	-1.31183000E-01	 1.10237000E-02
					 1.53710000E-05	-1.44919000E-01	-1.47180000E-03
					-3.33551000E-03	-1.45108000E-01	 1.08188000E-02
					 1.53657000E-05	-1.34303000E-01	-1.36652000E-03
					-1.67903000E-03	-1.46659000E-01	 4.61857000E-03
					-3.26739000E-03	-1.34477000E-01	 1.09118000E-02
					 3.35383000E-03	-1.43082000E-01	-1.37167000E-02
					 3.33556000E-03	-1.46353000E-01	-1.37492000E-02
					 3.30211000E-03	-1.30852000E-01	-1.35679000E-02
					 1.70044000E-03	-1.43169000E-01	-7.58902000E-03
					 3.34807000E-03	-1.44720000E-01	-1.37312000E-02
					 3.30878000E-03	-1.34129000E-01	-1.36158000E-02
					 1.67567000E-03	-1.46449000E-01	-7.64193000E-03
					-3.18109000E-05	-1.49845000E-01	-1.63663000E-03
					-3.34705000E-03	-1.50012000E-01	 1.05953000E-02
					-2.38326000E-05	-1.48192000E-01	-1.57122000E-03
					-3.34239000E-03	-1.48381000E-01	 1.06761000E-02
					 1.49301000E-05	-1.37590000E-01	-1.47950000E-03
					-1.70084000E-03	-1.49931000E-01	 4.47592000E-03
					-3.26246000E-03	-1.37741000E-01	 1.07717000E-02
					 3.33862000E-03	-1.49666000E-01	-1.38230000E-02
					 3.33371000E-03	-1.47996000E-01	-1.37769000E-02
					 3.33375000E-03	-1.37438000E-01	-1.36975000E-02
					 1.65229000E-03	-1.49754000E-01	-7.73552000E-03
					 0.00000000E+00	 0.00000000E+00	 0.00000000E+00
					 0.00000000E+00	 0.00000000E+00	 0.00000000E+00
					 8.81165000E-05	-9.79270000E-03	 3.26742000E-06
					-1.98232000E-03	-1.03924000E-02	 9.30354000E-03
					 0.00000000E+00	 0.00000000E+00	 0.00000000E+00
					 0.00000000E+00	 0.00000000E+00	 0.00000000E+00
					 1.07323000E-04	-1.13041000E-02	 4.91188000E-05
					-8.52275000E-04	-1.19462000E-02	 9.47379000E-03
					 0.00000000E+00	 0.00000000E+00	 0.00000000E+00
					 2.78665000E-05	-2.18142000E-03	 1.31303000E-05
					-9.48849000E-04	-9.88986000E-03	 4.58623000E-03
					-1.79387000E-03	-3.02422000E-03	 4.87904000E-03
					 0.00000000E+00	 0.00000000E+00	 0.00000000E+00
					 0.00000000E+00	 0.00000000E+00	 0.00000000E+00
					 9.71404000E-05	-1.07442000E-02	 2.48714000E-05
					-1.40991000E-03	-1.13615000E-02	 9.30315000E-03
					 0.00000000E+00	 0.00000000E+00	 0.00000000E+00
					 3.71808000E-05	-3.22174000E-03	 3.60306000E-05
					-3.71070000E-04	-1.14130000E-02	 4.59954000E-03
					-3.85277000E-04	-4.06748000E-03	 4.78520000E-03
					 0.00000000E+00	 0.00000000E+00	 0.00000000E+00
					 2.14307000E-03	-1.01571000E-02	-9.32263000E-03
					 0.00000000E+00	 0.00000000E+00	 0.00000000E+00
					 1.06627000E-03	-1.16941000E-02	-9.40688000E-03
					 0.00000000E+00	 0.00000000E+00	 0.00000000E+00
					 1.82931000E-03	-2.92908000E-03	-4.85892000E-03
					 1.12148000E-03	-9.77147000E-03	-4.58963000E-03
					 0.00000000E+00	 0.00000000E+00	 0.00000000E+00
					 1.59759000E-03	-1.11166000E-02	-9.27963000E-03
					 0.00000000E+00	 0.00000000E+00	 0.00000000E+00
					 4.50704000E-04	-3.95329000E-03	-4.71345000E-03
					 5.85961000E-04	-1.12886000E-02	-4.51259000E-03
					 0.00000000E+00	 0.00000000E+00	 0.00000000E+00
					 0.00000000E+00	 0.00000000E+00	 0.00000000E+00
					 1.30981000E-04	-1.17135000E-02	 1.18113000E-04
					 2.96869000E-04	-1.23069000E-02	 9.41819000E-03
					 0.00000000E+00	 0.00000000E+00	 0.00000000E+00
					 0.00000000E+00	 0.00000000E+00	 0.00000000E+00
					 1.17596000E-04	-1.17029000E-02	 7.67261000E-05
					-2.85791000E-04	-1.23206000E-02	 9.55328000E-03
					 0.00000000E+00	 0.00000000E+00	 0.00000000E+00
					 5.63575000E-05	-3.01726000E-03	 8.33786000E-05
					 2.14339000E-04	-1.18029000E-02	 4.50052000E-03
					 1.07263000E-03	-3.84020000E-03	 4.95114000E-03
					 0.00000000E+00	 0.00000000E+00	 0.00000000E+00
					-2.70950000E-05	-1.20553000E-02	-9.20993000E-03
					 0.00000000E+00	 0.00000000E+00	 0.00000000E+00
					 5.22850000E-04	-1.20677000E-02	-9.43232000E-03
					 0.00000000E+00	 0.00000000E+00	 0.00000000E+00
					-9.62828000E-04	-3.70297000E-03	-4.78630000E-03
					 5.24567000E-05	-1.16844000E-02	-4.27204000E-03
					 2.95495000E-04	-3.52977000E-02	-1.90580000E-04
					-2.70461000E-03	-3.59328000E-02	 1.53029000E-02
					 3.25384000E-04	-3.79422000E-02	-1.58489000E-04
					-1.95575000E-03	-3.85721000E-02	 1.53672000E-02
					 1.85553000E-04	-2.10756000E-02	-6.03359000E-05
					-1.20894000E-03	-3.55439000E-02	 7.57690000E-03
					-2.33468000E-03	-2.17756000E-02	 1.26941000E-02
					 3.10249000E-04	-3.66952000E-02	-1.77683000E-04
					-2.32975000E-03	-3.73209000E-02	 1.52550000E-02
					 2.05189000E-04	-2.31491000E-02	-1.64650000E-05
					-8.09720000E-04	-3.81849000E-02	 7.54885000E-03
					-1.39595000E-03	-2.38377000E-02	 1.27920000E-02
					 3.29692000E-03	-3.53747000E-02	-1.57171000E-02
					 2.60480000E-03	-3.80236000E-02	-1.57149000E-02
					 2.69963000E-03	-2.13786000E-02	-1.28497000E-02
					 1.79868000E-03	-3.52626000E-02	-7.96705000E-03
					 2.95224000E-03	-3.67766000E-02	-1.56395000E-02
					 1.81038000E-03	-2.34411000E-02	-1.28599000E-02
					 1.46441000E-03	-3.79136000E-02	-7.87071000E-03
					 3.49643000E-04	-3.98655000E-02	-9.95664000E-05
					-1.18589000E-03	-4.04744000E-02	 1.53914000E-02
					 3.37546000E-04	-3.89772000E-02	-1.31580000E-04
					-1.56958000E-03	-3.96301000E-02	 1.54913000E-02
					 2.27892000E-04	-2.42915000E-02	 5.39944000E-05
					-4.21980000E-04	-4.00890000E-02	 7.47698000E-03
					-4.44877000E-04	-2.49770000E-02	 1.28080000E-02
					 1.91494000E-03	-3.99502000E-02	-1.56219000E-02
					 2.25990000E-03	-3.90576000E-02	-1.57885000E-02
					 9.24857000E-04	-2.45966000E-02	-1.27327000E-02
					 1.12918000E-03	-3.98379000E-02	-7.67919000E-03
					 5.76669000E-04	-7.00467000E-02	-6.66066000E-04
					-3.61856000E-03	-7.06801000E-02	 1.89114000E-02
					 6.14223000E-04	-7.39379000E-02	-6.55191000E-04
					-3.02708000E-03	-7.46815000E-02	 1.89388000E-02
					 4.26762000E-04	-5.16970000E-02	-3.88999000E-04
					-1.51544000E-03	-7.02938000E-02	 9.18029000E-03
					-3.15572000E-03	-5.23546000E-02	 1.73055000E-02
					 5.97420000E-04	-7.20646000E-02	-6.57968000E-04
					-3.32432000E-03	-7.27640000E-02	 1.88270000E-02
					 4.59629000E-04	-5.49679000E-02	-3.69552000E-04
					-1.23098000E-03	-7.42418000E-02	 9.09308000E-03
					-2.50680000E-03	-5.56325000E-02	 1.73500000E-02
					 4.73249000E-03	-6.98921000E-02	-2.02539000E-02
					 4.25388000E-03	-7.38025000E-02	-2.02935000E-02
					 3.99864000E-03	-5.16671000E-02	-1.81140000E-02
					 2.65605000E-03	-6.98996000E-02	-1.05084000E-02
					 4.49088000E-03	-7.19152000E-02	-2.01813000E-02
					 3.42919000E-03	-5.49305000E-02	-1.81189000E-02
					 2.43570000E-03	-7.38067000E-02	-1.04293000E-02
					 6.40145000E-04	-7.73190000E-02	-6.30380000E-04
					-2.54412000E-03	-7.81765000E-02	 1.89463000E-02
					 6.28498000E-04	-7.57099000E-02	-6.48330000E-04
					-2.78852000E-03	-7.63847000E-02	 1.90576000E-02
					 4.95226000E-04	-5.76313000E-02	-3.28881000E-04
					-9.21484000E-04	-7.76812000E-02	 8.98789000E-03
					-1.89149000E-03	-5.83232000E-02	 1.73691000E-02
					 3.78399000E-03	-7.72130000E-02	-2.02769000E-02
					 4.02116000E-03	-7.55662000E-02	-2.03991000E-02
					 2.84930000E-03	-5.76001000E-02	-1.80588000E-02
					 2.20380000E-03	-7.72150000E-02	-1.02980000E-02
					 9.84258000E-04	-1.11809000E-01	-1.45292000E-03
					-4.23118000E-03	-1.12385000E-01	 2.09206000E-02