# vtk DataFile Version 3.0

ASCII
DATASET UNSTRUCTURED_GRID

POINTS 522 double
	 1.00000000E+00	 1.00000000E+00	-5.96046000E-08
	 1.00000000E+00	 5.00000000E-01	-5.96046000E-08
	 1.00000000E+00	 5.00000000E-01	 1.00000000E+00
	 1.00000000E+00	 1.00000000E+00	 1.00000000E+00
	 5.00000000E-01	 1.00000000E+00	-5.96046000E-08
	 5.00000000E-01	 5.00000000E-01	-5.96046000E-08
	 5.00000000E-01	 5.00000000E-01	 1.00000000E+00
	 5.00000000E-01	 1.00000000E+00	 1.00000000E+00
	 1.00000000E+00	 7.50000000E-01	-5.96046000E-08
	 1.00000000E+00	 5.00000000E-01	 5.00000000E-01
	 1.00000000E+00	 7.50000000E-01	 1.00000000E+00
	 1.00000000E+00	 1.00000000E+00	 5.00000000E-01
	 7.50000000E-01	 1.00000000E+00	-5.96046000E-08
	 7.50000000E-01	 5.00000000E-01	-5.96046000E-08
	 7.50000000E-01	 5.00000000E-01	 1.00000000E+00
	 7.50000000E-01	 1.00000000E+00	 1.00000000E+00
	 5.00000000E-01	 7.50000000E-01	-5.96046000E-08
	 5.00000000E-01	 5.00000000E-01	 5.00000000E-01
	 5.00000000E-01	 7.50000000E-01	 1.00000000E+00
	 5.00000000E-01	 1.00000000E+00	 5.00000000E-01
	 1.00000000E+00	-1.49012000E-08	-5.96046000E-08
	 1.00000000E+00	-1.49012000E-08	 1.00000000E+00
	 5.00000000E-01	-1.49012000E-08	-5.96046000E-08
	 5.00000000E-01	-1.49012000E-08	 1.00000000E+00
	 1.00000000E+00	 2.50000000E-01	-5.96046000E-08
	 1.00000000E+00	-1.49012000E-08	 5.00000000E-01
	 1.00000000E+00	 2.50000000E-01	 1.00000000E+00
	 7.50000000E-01	-1.49012000E-08	-5.96046000E-08
	 7.50000000E-01	-1.49012000E-08	 1.00000000E+00
	 5.00000000E-01	 2.50000000E-01	-5.96046000E-08
	 5.00000000E-01	-1.49012000E-08	 5.00000000E-01
	 5.00000000E-01	 2.50000000E-01	 1.00000000E+00
	-7.45058000E-09	 1.00000000E+00	-5.96046000E-08
	-7.45058000E-09	 5.00000000E-01	-5.96046000E-08
	-7.45058000E-09	 5.00000000E-01	 1.00000000E+00
	-7.45058000E-09	 1.00000000E+00	 1.00000000E+00
	 2.50000000E-01	 1.00000000E+00	-5.96046000E-08
	 2.50000000E-01	 5.00000000E-01	-5.96046000E-08
	 2.50000000E-01	 5.00000000E-01	 1.00000000E+00
	 2.50000000E-01	 1.00000000E+00	 1.00000000E+00
	-7.45058000E-09	 7.50000000E-01	-5.96046000E-08
	-7.45058000E-09	 5.00000000E-01	 5.00000000E-01
	-7.45058000E-09	 7.50000000E-01	 1.00000000E+00
	-7.45058000E-09	 1.00000000E+00	 5.00000000E-01
	-7.45058000E-09	-1.49012000E-08	-5.96046000E-08
	-7.45058000E-09	-1.49012000E-08	 1.00000000E+00
	 2.50000000E-01	-1.49012000E-08	-5.96046000E-08
	 2.50000000E-01	-1.49012000E-08	 1.00000000E+00
	-7.45058000E-09	 2.50000000E-01	-5.96046000E-08
	-7.45058000E-09	-1.49012000E-08	 5.00000000E-01
	-7.45058000E-09	 2.50000000E-01	 1.00000000E+00
	 1.00000000E+00	 5.00000000E-01	 2.00000000E+00
	 1.00000000E+00	 1.00000000E+00	 2.00000000E+00
	 5.00000000E-01	 5.00000000E-01	 2.00000000E+00
	 5.00000000E-01	 1.00000000E+00	 2.00000000E+00
	 1.00000000E+00	 5.00000000E-01	 1.50000000E+00
	 1.00000000E+00	 7.50000000E-01	 2.00000000E+00
	 1.00000000E+00	 1.00000000E+00	 1.50000000E+00
	 7.50000000E-01	 5.00000000E-01	 2.00000000E+00
	 7.50000000E-01	 1.00000000E+00	 2.00000000E+00
	 5.00000000E-01	 5.00000000E-01	 1.50000000E+00
	 5.00000000E-01	 7.50000000E-01	 2.00000000E+00
	 5.00000000E-01	 1.00000000E+00	 1.50000000E+00
	 1.00000000E+00	-1.49012000E-08	 2.00000000E+00
	 5.00000000E-01	-1.49012000E-08	 2.00000000E+00
	 1.00000000E+00	-1.49012000E-08	 1.50000000E+00
	 1.00000000E+00	 2.50000000E-01	 2.00000000E+00
	 7.50000000E-01	-1.49012000E-08	 2.00000000E+00
	 5.00000000E-01	-1.49012000E-08	 1.50000000E+00
	 5.00000000E-01	 2.50000000E-01	 2.00000000E+00
	-7.45058000E-09	 5.00000000E-01	 2.00000000E+00
	-7.45058000E-09	 1.00000000E+00	 2.00000000E+00
	 2.50000000E-01	 5.00000000E-01	 2.00000000E+00
	 2.50000000E-01	 1.00000000E+00	 2.00000000E+00
	-7.45058000E-09	 5.00000000E-01	 1.50000000E+00
	-7.45058000E-09	 7.50000000E-01	 2.00000000E+00
	-7.45058000E-09	 1.00000000E+00	 1.50000000E+00
	-7.45058000E-09	-1.49012000E-08	 2.00000000E+00
	 2.50000000E-01	-1.49012000E-08	 2.00000000E+00
	-7.45058000E-09	-1.49012000E-08	 1.50000000E+00
	-7.45058000E-09	 2.50000000E-01	 2.00000000E+00
	 1.00000000E+00	 5.00000000E-01	 3.00000000E+00
	 1.00000000E+00	 1.00000000E+00	 3.00000000E+00
	 5.00000000E-01	 5.00000000E-01	 3.00000000E+00
	 5.00000000E-01	 1.00000000E+00	 3.00000000E+00
	 1.00000000E+00	 5.00000000E-01	 2.50000000E+00
	 1.00000000E+00	 7.50000000E-01	 3.00000000E+00
	 1.00000000E+00	 1.00000000E+00	 2.50000000E+00
	 7.50000000E-01	 5.00000000E-01	 3.00000000E+00
	 7.50000000E-01	 1.00000000E+00	 3.00000000E+00
	 5.00000000E-01	 5.00000000E-01	 2.50000000E+00
	 5.00000000E-01	 7.50000000E-01	 3.00000000E+00
	 5.00000000E-01	 1.00000000E+00	 2.50000000E+00
	 1.00000000E+00	-1.49012000E-08	 3.00000000E+00
	 5.00000000E-01	-1.49012000E-08	 3.00000000E+00
	 1.00000000E+00	-1.49012000E-08	 2.50000000E+00
	 1.00000000E+00	 2.50000000E-01	 3.00000000E+00
	 7.50000000E-01	-1.49012000E-08	 3.00000000E+00
	 5.00000000E-01	-1.49012000E-08	 2.50000000E+00
	 5.00000000E-01	 2.50000000E-01	 3.00000000E+00
	-7.45058000E-09	 5.00000000E-01	 3.00000000E+00
	-7.45058000E-09	 1.00000000E+00	 3.00000000E+00
	 2.50000000E-01	 5.00000000E-01	 3.00000000E+00
	 2.50000000E-01	 1.00000000E+00	 3.00000000E+00
	-7.45058000E-09	 5.00000000E-01	 2.50000000E+00
	-7.45058000E-09	 7.50000000E-01	 3.00000000E+00
	-7.45058000E-09	 1.00000000E+00	 2.50000000E+00
	-7.45058000E-09	-1.49012000E-08	 3.00000000E+00
	 2.50000000E-01	-1.49012000E-08	 3.00000000E+00
	-7.45058000E-09	-1.49012000E-08	 2.50000000E+00
	-7.45058000E-09	 2.50000000E-01	 3.00000000E+00
	 1.00000000E+00	 5.00000000E-01	 4.00000000E+00
	 1.00000000E+00	 1.00000000E+00	 4.00000000E+00
	 5.00000000E-01	 5.00000000E-01	 4.00000000E+00
	 5.00000000E-01	 1.00000000E+00	 4.00000000E+00
	 1.00000000E+00	 5.00000000E-01	 3.50000000E+00
	 1.00000000E+00	 7.50000000E-01	 4.00000000E+00
	 1.00000000E+00	 1.00000000E+00	 3.50000000E+00
	 7.50000000E-01	 5.00000000E-01	 4.00000000E+00
	 7.50000000E-01	 1.00000000E+00	 4.00000000E+00
	 5.00000000E-01	 5.00000000E-01	 3.50000000E+00
	 5.00000000E-01	 7.50000000E-01	 4.00000000E+00
	 5.00000000E-01	 1.00000000E+00	 3.50000000E+00
	 1.00000000E+00	-1.49012000E-08	 4.00000000E+00
	 5.00000000E-01	-1.49012000E-08	 4.00000000E+00
	 1.00000000E+00	-1.49012000E-08	 3.50000000E+00
	 1.00000000E+00	 2.50000000E-01	 4.00000000E+00
	 7.50000000E-01	-1.49012000E-08	 4.00000000E+00
	 5.00000000E-01	-1.49012000E-08	 3.50000000E+00
	 5.00000000E-01	 2.50000000E-01	 4.00000000E+00
	-7.45058000E-09	 5.00000000E-01	 4.00000000E+00
	-7.45058000E-09	 1.00000000E+00	 4.00000000E+00
	 2.50000000E-01	 5.00000000E-01	 4.00000000E+00
	 2.50000000E-01	 1.00000000E+00	 4.00000000E+00
	-7.45058000E-09	 5.00000000E-01	 3.50000000E+00
	-7.45058000E-09	 7.50000000E-01	 4.00000000E+00
	-7.45058000E-09	 1.00000000E+00	 3.50000000E+00
	-7.45058000E-09	-1.49012000E-08	 4.00000000E+00
	 2.50000000E-01	-1.49012000E-08	 4.00000000E+00
	-7.45058000E-09	-1.49012000E-08	 3.50000000E+00
	-7.45058000E-09	 2.50000000E-01	 4.00000000E+00
	 1.00000000E+00	 5.00000000E-01	 5.00000000E+00
	 1.00000000E+00	 1.00000000E+00	 5.00000000E+00
	 5.00000000E-01	 5.00000000E-01	 5.00000000E+00
	 5.00000000E-01	 1.00000000E+00	 5.00000000E+00
	 1.00000000E+00	 5.00000000E-01	 4.50000000E+00
	 1.00000000E+00	 7.50000000E-01	 5.00000000E+00
	 1.00000000E+00	 1.00000000E+00	 4.50000000E+00
	 7.50000000E-01	 5.00000000E-01	 5.00000000E+00
	 7.50000000E-01	 1.00000000E+00	 5.00000000E+00
	 5.00000000E-01	 5.00000000E-01	 4.50000000E+00
	 5.00000000E-01	 7.50000000E-01	 5.00000000E+00
	 5.00000000E-01	 1.00000000E+00	 4.50000000E+00
	 1.00000000E+00	-1.49012000E-08	 5.00000000E+00
	 5.00000000E-01	-1.49012000E-08	 5.00000000E+00
	 1.00000000E+00	-1.49012000E-08	 4.50000000E+00
	 1.00000000E+00	 2.50000000E-01	 5.00000000E+00
	 7.50000000E-01	-1.49012000E-08	 5.00000000E+00
	 5.00000000E-01	-1.49012000E-08	 4.50000000E+00
	 5.00000000E-01	 2.50000000E-01	 5.00000000E+00
	-7.45058000E-09	 5.00000000E-01	 5.00000000E+00
	-7.45058000E-09	 1.00000000E+00	 5.00000000E+00
	 2.50000000E-01	 5.00000000E-01	 5.00000000E+00
	 2.50000000E-01	 1.00000000E+00	 5.00000000E+00
	-7.45058000E-09	 5.00000000E-01	 4.50000000E+00
	-7.45058000E-09	 7.50000000E-01	 5.00000000E+00
	-7.45058000E-09	 1.00000000E+00	 4.50000000E+00
	-7.45058000E-09	-1.49012000E-08	 5.00000000E+00
	 2.50000000E-01	-1.49012000E-08	 5.00000000E+00
	-7.45058000E-09	-1.49012000E-08	 4.50000000E+00
	-7.45058000E-09	 2.50000000E-01	 5.00000000E+00
	 1.00000000E+00	 5.00000000E-01	 6.00000000E+00
	 1.00000000E+00	 1.00000000E+00	 6.00000000E+00
	 5.00000000E-01	 5.00000000E-01	 6.00000000E+00
	 5.00000000E-01	 1.00000000E+00	 6.00000000E+00
	 1.00000000E+00	 5.00000000E-01	 5.50000000E+00
	 1.00000000E+00	 7.50000000E-01	 6.00000000E+00
	 1.00000000E+00	 1.00000000E+00	 5.50000000E+00
	 7.50000000E-01	 5.00000000E-01	 6.00000000E+00
	 7.50000000E-01	 1.00000000E+00	 6.00000000E+00
	 5.00000000E-01	 5.00000000E-01	 5.50000000E+00
	 5.00000000E-01	 7.50000000E-01	 6.00000000E+00
	 5.00000000E-01	 1.00000000E+00	 5.50000000E+00
	 1.00000000E+00	-1.49012000E-08	 6.00000000E+00
	 5.00000000E-01	-1.49012000E-08	 6.00000000E+00
	 1.00000000E+00	-1.49012000E-08	 5.50000000E+00
	 1.00000000E+00	 2.50000000E-01	 6.00000000E+00
	 7.50000000E-01	-1.49012000E-08	 6.00000000E+00
	 5.00000000E-01	-1.49012000E-08	 5.50000000E+00
	 5.00000000E-01	 2.50000000E-01	 6.00000000E+00
	-7.45058000E-09	 5.00000000E-01	 6.00000000E+00
	-7.45058000E-09	 1.00000000E+00	 6.00000000E+00
	 2.50000000E-01	 5.00000000E-01	 6.00000000E+00
	 2.50000000E-01	 1.00000000E+00	 6.00000000E+00
	-7.45058000E-09	 5.00000000E-01	 5.50000000E+00
	-7.45058000E-09	 7.50000000E-01	 6.00000000E+00
	-7.45058000E-09	 1.00000000E+00	 5.50000000E+00
	-7.45058000E-09	-1.49012000E-08	 6.00000000E+00
	 2.50000000E-01	-1.49012000E-08	 6.00000000E+00
	-7.45058000E-09	-1.49012000E-08	 5.50000000E+00
	-7.45058000E-09	 2.50000000E-01	 6.00000000E+00
	 1.00000000E+00	 5.00000000E-01	 7.00000000E+00
[...]
POINT_DATA 522
FIELD U 1
	U 3 522 double
		 0.00000000E+00	 0.00000000E+00	 0.00000000E+00
		 0.00000000E+00	 0.00000000E+00	 0.00000000E+00
		 1.04539000E-05	 5.21544000E-06	-5.66009000E-07
		-8.14011000E-06	-1.33358000E-06	 8.77544000E-06
		 0.00000000E+00	 0.00000000E+00	 0.00000000E+00
		 0.00000000E+00	 0.00000000E+00	 0.00000000E+00
		 2.98328000E-06	-4.88591000E-06	-1.54510000E-06
		-5.17397000E-06	 4.69902000E-06	 1.77490000E-06
		 0.00000000E+00	 0.00000000E+00	 0.00000000E+00
		-1.05825000E-05	 2.50620000E-06	-4.01481000E-06
		-2.93232000E-06	 8.30215000E-06	-4.33998000E-06
		-7.82446000E-06	-1.02874000E-05	-7.52816000E-08
		 0.00000000E+00	 0.00000000E+00	 0.00000000E+00
		 0.00000000E+00	 0.00000000E+00	 0.00000000E+00
		-6.97353000E-06	-8.26584000E-07	-5.71636000E-07
		 8.93827000E-06	-8.24098000E-06	-3.94416000E-06
		 0.00000000E+00	 0.00000000E+00	 0.00000000E+00
		-1.30964000E-07	 1.26875000E-07	-2.30256000E-06
		 5.00080000E-06	 4.95253000E-06	-8.23545000E-07
		 5.08309000E-06	-4.96786000E-06	-1.77593000E-06
		 0.00000000E+00	 0.00000000E+00	 0.00000000E+00
		-8.90654000E-06	 1.40347000E-05	-1.40532000E-05
		 0.00000000E+00	 0.00000000E+00	 0.00000000E+00
		-4.08725000E-06	-1.35348000E-05	 3.59558000E-07
		 0.00000000E+00	 0.00000000E+00	 0.00000000E+00
		 1.10724000E-06	-3.86943000E-06	 9.24107000E-06
		-2.67708000E-06	-1.42695000E-05	 4.70297000E-06
		 0.00000000E+00	 0.00000000E+00	 0.00000000E+00
		 9.99333000E-06	-4.43235000E-07	 5.14453000E-06
		 0.00000000E+00	 0.00000000E+00	 0.00000000E+00
		-1.82306000E-07	 1.10950000E-05	 4.15599000E-06
		-7.87345000E-07	 1.04392000E-05	 3.89479000E-07
		 0.00000000E+00	 0.00000000E+00	 0.00000000E+00
		 0.00000000E+00	 0.00000000E+00	 0.00000000E+00
		-4.31768000E-07	 1.18468000E-05	 2.99078000E-06
		 3.81559000E-06	 5.68827000E-06	-1.78325000E-06
		 0.00000000E+00	 0.00000000E+00	 0.00000000E+00
		 0.00000000E+00	 0.00000000E+00	 0.00000000E+00
		-1.68236000E-06	-1.00271000E-05	-1.30257000E-06
		-3.48792000E-06	-5.20601000E-06	-5.65593000E-07
		 0.00000000E+00	 0.00000000E+00	 0.00000000E+00
		 7.67330000E-06	-4.08299000E-06	-5.21028000E-06
		-3.91902000E-06	 3.08405000E-06	 1.04021000E-06
		 1.92245000E-07	-2.77074000E-06	-2.56731000E-06
		 0.00000000E+00	 0.00000000E+00	 0.00000000E+00
		-3.54042000E-06	 1.73211000E-06	 1.67375000E-05
		 0.00000000E+00	 0.00000000E+00	 0.00000000E+00
		-1.84656000E-06	 6.10228000E-06	-8.47595000E-06
		 0.00000000E+00	 0.00000000E+00	 0.00000000E+00
		 5.03782000E-06	 4.68068000E-06	-1.71734000E-06
		 7.06695000E-06	-8.58908000E-06	-3.89619000E-06
		-9.90545000E-06	-8.05353000E-06	-8.23867000E-06
		 1.11414000E-05	-3.44371000E-06	-8.66890000E-07
		-1.65607000E-06	 4.21647000E-06	-5.37359000E-06
		 1.78112000E-06	 1.20669000E-06	-5.13219000E-06
		 7.09568000E-07	-1.20953000E-07	 4.96967000E-06
		 2.72355000E-06	-3.69678000E-06	-2.97540000E-07
		 2.46948000E-06	-2.85708000E-07	-6.41228000E-06
		 7.00276000E-06	-7.17042000E-07	 3.68723000E-06
		-9.69981000E-06	 1.04631000E-05	-2.67697000E-07
		-6.00215000E-08	-1.03694000E-06	 4.27821000E-06
		-2.88710000E-06	-6.51402000E-06	 3.19325000E-07
		 2.69910000E-06	-2.49703000E-06	 2.04249000E-06
		 3.34228000E-06	-1.28095000E-05	 2.89426000E-06
		 7.78276000E-06	 4.24960000E-06	 2.35083000E-06
		-2.11146000E-07	 1.17213000E-06	-2.21072000E-06
		 7.82366000E-07	 1.03558000E-05	-4.15169000E-08
		-4.85997000E-06	 3.07635000E-06	-3.85842000E-06
		 1.03038000E-07	 2.14962000E-06	-2.99503000E-06
		-1.39750000E-06	-1.03286000E-05	-3.37648000E-06
		 4.93146000E-06	-1.09019000E-05	-3.92215000E-06
		-5.46906000E-06	-6.55878000E-06	-3.45738000E-06
		 8.07216000E-07	 1.10809000E-05	 2.01088000E-06
		 8.16203000E-06	-4.40800000E-07	 6.61630000E-06
		-3.41340000E-06	-3.33329000E-06	 5.06913000E-06
		-3.13097000E-06	 2.78520000E-06	-2.61595000E-06
		-5.88152000E-06	-3.63440000E-06	 2.91080000E-06
		 6.27771000E-07	-6.35473000E-07	-7.82928000E-06
		 1.44973000E-06	 3.91363000E-06	 2.64515000E-06
		 1.45189000E-06	 7.96920000E-06	-1.19987000E-05
		-4.51404000E-06	-7.18794000E-07	-8.08575000E-07
		 9.68277000E-06	 2.16279000E-06	 3.39128000E-06
		-1.04232000E-05	-2.70029000E-06	-2.90013000E-06
		-1.24170000E-06	-2.12354000E-06	 2.51431000E-06
		 2.65118000E-06	-1.01714000E-05	 3.26653000E-06
		 6.14402000E-06	-3.62752000E-06	 2.30395000E-06
		-1.09675000E-06	 6.90155000E-07	-5.57523000E-07
		 2.98525000E-07	 1.41352000E-05	 1.39208000E-06
		-3.85792000E-06	 4.88315000E-06	-7.09919000E-06
		 1.04170000E-05	 1.24358000E-06	-6.34223000E-06
		-1.38349000E-07	 9.11824000E-07	-1.39313000E-06
		-3.32693000E-06	-3.02136000E-06	 1.47301000E-06
		-2.72479000E-06	 5.65515000E-06	-9.95988000E-07
		-3.32736000E-06	-9.14798000E-06	 3.83412000E-06
		 1.96247000E-06	 8.51138000E-06	-9.27775000E-06
		-5.59901000E-07	 5.98081000E-06	-5.08212000E-06
		 5.37365000E-07	-5.04194000E-06	-3.76692000E-06
		 7.28761000E-06	 1.00158000E-05	-9.37615000E-06
		-2.26842000E-06	-5.66870000E-06	-1.98868000E-06
		-4.15318000E-06	-6.45977000E-06	-2.33400000E-06
		-1.96661000E-05	-2.95632000E-06	-3.99607000E-07
		 1.53160000E-05	 5.30609000E-06	 5.41602000E-06
		 8.30333000E-06	 1.13739000E-05	-6.13112000E-06
		-1.65709000E-05	 2.02757000E-05	-1.50955000E-05
		-9.04688000E-07	 1.00403000E-05	-4.42309000E-06
		 9.90906000E-06	-2.36958000E-05	-2.95232000E-07
		 7.35458000E-07	 2.57931000E-06	-3.15789000E-06
		 8.13514000E-06	-1.03886000E-05	-1.98765000E-05
		-1.19227000E-05	-5.02131000E-06	 9.91455000E-06
		-6.75454000E-06	-9.86982000E-06	 1.93247000E-05
		 2.88402000E-06	 6.94139000E-06	-3.66613000E-06
		-2.76976000E-08	 3.84897000E-08	-1.40776000E-05
		 1.12100000E-05	 1.84315000E-05	-2.82879000E-05
		 3.63175000E-06	 9.27479000E-06	-1.89655000E-05
		 9.11557000E-06	 6.02907000E-06	-2.60403000E-05
		-5.23541000E-06	 1.30672000E-06	-1.62481000E-05
		-7.46880000E-06	 9.00145000E-06	-2.65970000E-05
		-1.61157000E-06	-1.50063000E-05	-1.18573000E-05
		 3.93108000E-06	-3.82303000E-06	-2.21488000E-05
		 7.27558000E-06	-1.35381000E-05	-1.52050000E-05
		-3.05925000E-06	 8.06140000E-07	-1.17543000E-05
		-3.91527000E-06	 1.56631000E-05	-2.62511000E-05
		-5.21049000E-06	 1.61124000E-06	-1.39753000E-05
		 4.91214000E-06	 1.82086000E-05	-2.29270000E-05
		-1.00342000E-05	-4.61187000E-07	-9.09138000E-06
		 1.18848000E-05	-5.98830000E-06	-1.46037000E-06
		 1.11332000E-05	 5.80020000E-06	-1.83549000E-05
		-1.23652000E-05	-2.32887000E-05	-1.07255000E-05
		-3.61243000E-06	-3.59176000E-06	-1.24618000E-06
		 1.81538000E-05	 1.70463000E-05	-1.06039000E-05
		-5.57400000E-07	 1.88389000E-05	-2.45468000E-05
		-2.47122000E-05	 3.18823000E-06	-3.28680000E-05
		-1.35080000E-05	-3.48635000E-05	-1.75032000E-05
		 3.55901000E-06	 1.13869000E-05	-1.52847000E-05
		 9.94528000E-06	-4.91691000E-06	-1.14241000E-05
		 1.18598000E-07	 1.76170000E-05	-1.42159000E-05
		 2.11003000E-05	 1.00926000E-05	-1.80952000E-05
		-8.35945000E-06	-1.30995000E-07	 9.22867000E-06
		 9.75104000E-07	-2.81800000E-05	-3.75403000E-05
		 7.38373000E-06	-1.21965000E-05	-2.04761000E-05
		-2.46029000E-06	 2.21654000E-05	-1.03101000E-05
		-1.18256000E-05	 6.35547000E-05	-4.73137000E-05
		-1.50230000E-06	 3.84728000E-05	-3.62326000E-05
		-9.25257000E-07	 5.78586000E-05	-4.06483000E-05
		-1.14874000E-05	 7.87683000E-05	-3.81985000E-05
		 1.73433000E-05	 2.91924000E-05	-3.14101000E-05
		 2.17046000E-05	 6.62282000E-05	-1.95149000E-05
		 2.43293000E-05	 3.64077000E-05	-3.05684000E-05
		 6.51151000E-06	 8.19995000E-05	-3.11509000E-05
		-2.39008000E-05	 8.17913000E-05	-3.88124000E-05
		 2.32371000E-06	 2.11499000E-05	-2.82834000E-05
		-1.14570000E-06	 4.49952000E-05	-3.66488000E-05
		-1.37806000E-05	 2.68215000E-05	-3.61396000E-05
		 2.06148000E-05	 5.59471000E-05	-5.36415000E-05
		-6.02395000E-06	 4.17820000E-05	-5.73686000E-05
		-2.42265000E-05	 1.91800000E-05	-3.34844000E-05
		-2.79781000E-06	 5.59463000E-05	-7.25412000E-05
		-5.37438000E-06	 5.85577000E-05	-2.39977000E-05
		 1.13238000E-05	 1.79206000E-05	-3.10376000E-05
		-4.88641000E-06	 6.36073000E-05	-5.76628000E-05
		 2.38577000E-05	 5.90423000E-05	-3.17636000E-05
		-2.39862000E-05	 3.86716000E-05	-1.86606000E-05
		-7.91448000E-06	 8.35621000E-05	-3.76791000E-05
		 1.10241000E-05	 1.69166000E-05	-3.04651000E-05
		-2.17689000E-05	 8.99297000E-06	-1.89002000E-05
		 8.02841000E-07	 8.89982000E-05	-5.94581000E-05
		-3.58197000E-05	 3.47442000E-05	-2.07180000E-05
		-6.60963000E-06	 7.61984000E-05	-7.22500000E-05
		 2.20092000E-05	 7.57624000E-05	-3.07974000E-05
		-1.21799000E-05	 2.84525000E-05	-3.12708000E-05
		-1.72058000E-05	 2.80318000E-05	-4.80214000E-05
		-1.63585000E-05	 3.52289000E-04	-1.16130000E-05
		-2.15356000E-04	 2.28740000E-04	 4.27220000E-04
		 1.71226000E-06	 2.03577000E-04	-2.83231000E-05
		-4.79355000E-05	 1.25382000E-04	 3.93029000E-04
		-1.78358000E-05	 2.78395000E-04	-4.54342000E-05
		-1.02484000E-04	 3.09876000E-04	 3.11634000E-04
		-6.23590000E-05	 2.14755000E-04	 5.71066000E-05
		-1.03741000E-05	 2.48862000E-04	-2.02976000E-05
		-1.47769000E-04	 1.71107000E-04	 3.63000000E-04
		 1.92436000E-06	 2.28031000E-04	-4.39693000E-05
		-9.32777000E-06	 1.96139000E-04	 2.51623000E-04
		 8.73911000E-06	 1.82614000E-04	 6.37035000E-05
		 1.83222000E-04	 2.61959000E-04	-4.03543000E-04
		 6.45635000E-05	 1.41776000E-04	-3.91525000E-04
		 6.23181000E-05	 1.91763000E-04	-1.33068000E-04
		 9.69041000E-05	 3.32150000E-04	-2.73768000E-04
		 1.45688000E-04	 2.08632000E-04	-3.97451000E-04
		 2.39916000E-05	 1.85932000E-04	-1.17625000E-04
		 2.04192000E-05	 1.88245000E-04	-2.64857000E-04
		 1.06076000E-05	 2.18366000E-04	-2.93823000E-05
		 9.48479000E-05	 1.28705000E-04	 4.02638000E-04
		 9.51509000E-06	 2.08433000E-04	-1.98427000E-05
		 1.73229000E-05	 1.19275000E-04	 4.02709000E-04
		 1.90167000E-05	 2.46942000E-04	-4.55796000E-05
		 2.96997000E-05	 1.82142000E-04	 2.78571000E-04
		 6.82500000E-05	 1.62940000E-04	 7.65046000E-05
		-5.42266000E-05	 1.17051000E-04	-4.16233000E-04
		 8.88569000E-06	 1.30795000E-04	-4.20588000E-04
		-4.74189000E-06	 2.07200000E-04	-1.15662000E-04
		-1.65306000E-05	 1.99114000E-04	-2.72816000E-04
		 2.34075000E-05	-1.07216000E-03	 6.30488000E-05
		-8.03282000E-04	-1.11657000E-03	 2.05037000E-03
		 1.79904000E-06	-1.65393000E-03	 9.83107000E-05
		-3.56894000E-04	-1.82577000E-03	 2.06205000E-03
		-3.93194000E-06	 6.96477000E-05	 8.47630000E-05
		-3.86673000E-04	-1.08072000E-03	 9.64883000E-04
		-5.04537000E-04	-1.00300000E-04	 1.18907000E-03
		 1.23823000E-05	-1.43605000E-03	 6.25771000E-05
		-5.65047000E-04	-1.51633000E-03	 2.04161000E-03
		 3.91554000E-06	-3.21900000E-04	 5.51172000E-05
		-2.32224000E-04	-1.72083000E-03	 1.01662000E-03
		-2.43733000E-04	-4.63814000E-04	 1.12153000E-03
		 8.08331000E-04	-1.15319000E-03	-1.94135000E-03
		 4.17913000E-04	-1.80457000E-03	-1.95064000E-03
		 5.22552000E-04	-9.21846000E-06	-1.05236000E-03
		 3.46108000E-04	-1.08905000E-03	-9.82135000E-04
		 5.91689000E-04	-1.60828000E-03	-1.89574000E-03
		 2.28941000E-04	-3.92483000E-04	-1.05647000E-03
		 2.29494000E-04	-1.70156000E-03	-9.06355000E-04
		-5.68550000E-05	-1.93767000E-03	 5.43620000E-05
		-1.40184000E-04	-2.06864000E-03	 2.00197000E-03
		-3.68936000E-05	-1.86502000E-03	 5.87416000E-05
		-2.57936000E-04	-1.97090000E-03	 2.07970000E-03
		 1.73392000E-06	-4.38741000E-04	 8.90163000E-06
		-9.54225000E-05	-2.00163000E-03	 1.01548000E-03
		 1.32406000E-05	-4.84852000E-04	 1.08032000E-03
		 8.04203000E-05	-2.01117000E-03	-1.96958000E-03
		 2.51009000E-04	-2.01463000E-03	-1.97175000E-03
		-8.36610000E-05	-5.00449000E-04	-1.09125000E-03
		 7.69406000E-05	-1.96242000E-03	-9.57619000E-04
		-1.78521000E-04	-6.54846000E-03	 3.77226000E-04
		-1.09697000E-03	-6.15104000E-03	 2.85720000E-03
		 1.03655000E-04	-7.60437000E-03	-2.31361000E-05
		-9.36897000E-04	-7.72284000E-03	 2.81121000E-03
		 5.34060000E-05	-3.56639000E-03	 9.83977000E-05
		-4.80875000E-04	-6.33302000E-03	 1.69688000E-03
		-9.08385000E-04	-3.81430000E-03	 2.65896000E-03
		-2.01462000E-05	-7.10704000E-03	 1.32648000E-04
		-1.01270000E-03	-6.98980000E-03	 2.78820000E-03
		 1.38635000E-05	-4.33367000E-03	 1.82483000E-05
		-3.59326000E-04	-7.64129000E-03	 1.39617000E-03
		-7.29519000E-04	-4.49863000E-03	 2.67593000E-03
		 8.56239000E-04	-7.00765000E-03	-3.34685000E-03
		 8.88206000E-04	-7.62935000E-03	-3.23944000E-03
		 9.78132000E-04	-3.50215000E-03	-2.72498000E-03
		 3.54089000E-04	-6.74471000E-03	-1.31909000E-03
		 8.85310000E-04	-7.29095000E-03	-3.27249000E-03
		 7.07094000E-04	-4.40992000E-03	-2.76720000E-03
		 4.81226000E-04	-7.60225000E-03	-1.54721000E-03
		 1.00545000E-04	-8.46029000E-03	 1.14121000E-04
		-7.72549000E-04	-9.27846000E-03	 3.46633000E-03
		 1.27676000E-04	-8.02871000E-03	-1.72367000E-05
		-8.54294000E-04	-8.51844000E-03	 3.21944000E-03
		-1.43067000E-05	-4.96007000E-03	 7.89828000E-05
		-3.41077000E-04	-8.81515000E-03	 1.49647000E-03
		-5.65575000E-04	-5.06550000E-03	 2.75735000E-03
		 9.23192000E-04	-8.56180000E-03	-3.11875000E-03
		 8.92213000E-04	-8.06401000E-03	-3.19181000E-03
		 4.46522000E-04	-4.88822000E-03	-2.65948000E-03
		 4.67906000E-04	-8.46381000E-03	-1.33816000E-03
		 0.00000000E+00	 0.00000000E+00	 0.00000000E+00
		 0.00000000E+00	 0.00000000E+00	 0.00000000E+00
		 1.21847000E-04	-1.16081000E-02	-2.36519000E-04
		-2.76113000E-03	-1.24791000E-02	 1.22556000E-02
		 0.00000000E+00	 0.00000000E+00	 0.00000000E+00
		 0.00000000E+00	 0.00000000E+00	 0.00000000E+00
		 7.28376000E-05	-1.36927000E-02	-2.38809000E-04
		-1.13752000E-03	-1.46001000E-02	 1.23985000E-02
		 0.00000000E+00	 0.00000000E+00	 0.00000000E+00
		 1.33841000E-05	-2.22149000E-03	-7.83014000E-05
		-1.29140000E-03	-1.17145000E-02	 6.02142000E-03
		-2.40931000E-03	-3.26241000E-03	 6.20113000E-03
		 0.00000000E+00	 0.00000000E+00	 0.00000000E+00
		 0.00000000E+00	 0.00000000E+00	 0.00000000E+00
		 7.86403000E-05	-1.28704000E-02	-2.39490000E-04
		-1.91908000E-03	-1.38877000E-02	 1.22266000E-02
		 0.00000000E+00	 0.00000000E+00	 0.00000000E+00
		 1.10163000E-05	-3.57660000E-03	-7.18374000E-05
		-5.38052000E-04	-1.38695000E-02	 5.96475000E-03
		-5.19327000E-04	-4.63804000E-03	 6.01564000E-03
		 0.00000000E+00	 0.00000000E+00	 0.00000000E+00
		 2.81597000E-03	-1.22949000E-02	-1.28158000E-02
		 0.00000000E+00	 0.00000000E+00	 0.00000000E+00
		 1.20193000E-03	-1.42938000E-02	-1.29375000E-02
		 0.00000000E+00	 0.00000000E+00	 0.00000000E+00
		 2.44496000E-03	-3.19366000E-03	-6.38333000E-03
		 1.43784000E-03	-1.16666000E-02	-6.55567000E-03
		 0.00000000E+00	 0.00000000E+00	 0.00000000E+00
		 2.03147000E-03	-1.35816000E-02	-1.27402000E-02
		 0.00000000E+00	 0.00000000E+00	 0.00000000E+00
		 5.22911000E-04	-4.61697000E-03	-6.16070000E-03
		 6.59962000E-04	-1.36902000E-02	-6.48794000E-03
		 0.00000000E+00	 0.00000000E+00	 0.00000000E+00
		 0.00000000E+00	 0.00000000E+00	 0.00000000E+00
		-2.30975000E-05	-1.40761000E-02	-2.34983000E-04
		 5.61537000E-04	-1.49624000E-02	 1.22791000E-02
		 0.00000000E+00	 0.00000000E+00	 0.00000000E+00
		 0.00000000E+00	 0.00000000E+00	 0.00000000E+00
		 2.65637000E-05	-1.41502000E-02	-2.51162000E-04
		-2.93073000E-04	-1.50863000E-02	 1.24211000E-02
		 0.00000000E+00	 0.00000000E+00	 0.00000000E+00
		-1.24409000E-05	-3.24829000E-03	-9.45707000E-05
		 3.18527000E-04	-1.42029000E-02	 5.83938000E-03
		 1.32866000E-03	-4.40361000E-03	 6.20100000E-03
		 0.00000000E+00	 0.00000000E+00	 0.00000000E+00
		-5.61644000E-04	-1.45815000E-02	-1.28378000E-02
		 0.00000000E+00	 0.00000000E+00	 0.00000000E+00
		 3.13739000E-04	-1.46491000E-02	-1.30106000E-02
		 0.00000000E+00	 0.00000000E+00	 0.00000000E+00
		-1.36167000E-03	-4.29239000E-03	-6.41111000E-03
		-3.37514000E-04	-1.40256000E-02	-6.28179000E-03
		 2.26222000E-04	-4.78804000E-02	-1.05932000E-03
		-3.54258000E-03	-4.91552000E-02	 2.23411000E-02
		 1.44249000E-04	-5.08757000E-02	-1.10147000E-03
		-1.96485000E-03	-5.22097000E-02	 2.21972000E-02
		 1.43498000E-04	-2.70515000E-02	-5.35932000E-04
		-1.64670000E-03	-4.83899000E-02	 1.06107000E-02
		-3.21740000E-03	-2.81476000E-02	 1.76311000E-02
		 2.07061000E-04	-4.95716000E-02	-1.07029000E-03
		-2.75334000E-03	-5.08595000E-02	 2.22100000E-02
		 1.13769000E-04	-2.95537000E-02	-5.86884000E-04
		-9.04852000E-04	-5.13670000E-02	 1.05040000E-02
		-1.58572000E-03	-3.06929000E-02	 1.76206000E-02
		 3.99231000E-03	-4.80182000E-02	-2.43779000E-02
		 2.45805000E-03	-5.09545000E-02	-2.45152000E-02
		 3.54751000E-03	-2.74175000E-02	-1.87874000E-02
		 2.08127000E-03	-4.77967000E-02	-1.26562000E-02
		 3.19912000E-03	-4.97113000E-02	-2.44762000E-02
		 1.78307000E-03	-3.00327000E-02	-1.88689000E-02
		 1.30953000E-03	-5.07398000E-02	-1.27039000E-02
		 1.24346000E-04	-5.24058000E-02	-1.03972000E-03
		-6.12962000E-04	-5.36269000E-02	 2.22078000E-02
		 1.18924000E-04	-5.18175000E-02	-1.07852000E-03
		-1.28773000E-03	-5.31030000E-02	 2.22909000E-02
		 6.55770000E-05	-3.04313000E-02	-5.30849000E-04
		-2.51698000E-04	-5.28420000E-02	 1.04204000E-02
		-2.42252000E-05	-3.16277000E-02	 1.75789000E-02
		 1.07301000E-03	-5.25677000E-02	-2.44173000E-02
		 1.77654000E-03	-5.19126000E-02	-2.45268000E-02
		 2.60716000E-04	-3.10309000E-02	-1.87966000E-02
		 5.81832000E-04	-5.23417000E-02	-1.25990000E-02
		 4.15816000E-04	-1.03918000E-01	-2.58792000E-03
		-3.77985000E-03	-1.05553000E-01	 2.90280000E-02
		 3.56926000E-04	-1.07503000E-01	-2.75180000E-03
		-2.61224000E-03	-1.09134000E-01	 2.89787000E-02
		 2.97039000E-04	-7.37747000E-02	-1.71078000E-03
		-1.66475000E-03	-1.04603000E-01	 1.31699000E-02
		-3.72219000E-03	-7.51748000E-02	 2.60931000E-02
		 3.82129000E-04	-1.05862000E-01	-2.70911000E-03
		-3.18376000E-03	-1.07517000E-01	 2.89619000E-02
		 2.94948000E-04	-7.70719000E-02	-1.80152000E-03
		-1.20490000E-03	-1.08168000E-01	 1.30219000E-02
		-2.40745000E-03	-7.85287000E-02	 2.60317000E-02
		 4.57140000E-03	-1.03438000E-01	-3.44127000E-02
		 3.53032000E-03	-1.07050000E-01	-3.45971000E-02
		 4.14359000E-03	-7.36746000E-02	-2.95941000E-02
		 2.54934000E-03	-1.03529000E-01	-1.84404000E-02
		 4.07448000E-03	-1.05333000E-01	-3.44363000E-02
		 2.97484000E-03	-7.68989000E-02	-2.97155000E-02
		 1.91630000E-03	-1.07155000E-01	-1.85659000E-02
		 3.69890000E-04	-1.09998000E-01	-2.83090000E-03
		-1.76262000E-03	-1.11671000E-01	 2.88449000E-02
		 3.87508000E-04	-1.08925000E-01	-2.82051000E-03
		-2.20163000E-03	-1.10394000E-01	 2.89971000E-02
		 2.69152000E-04	-7.91511000E-02	-1.80295000E-03
		-6.34604000E-04	-1.10704000E-01	 1.28566000E-02
		-1.21813000E-03	-8.06013000E-02	 2.59876000E-02
		 2.33103000E-03	-1.09563000E-01	-3.45678000E-02
		 2.90760000E-03	-1.08463000E-01	-3.46948000E-02
		 1.70472000E-03	-7.90137000E-02	-2.96595000E-02
		 1.35124000E-03	-1.09643000E-01	-1.85184000E-02
		 6.00863000E-04	-1.74227000E-01	-5.14459000E-03
		-3.68962000E-03	-1.75873000E-01	 3.21993000E-02
		 6.49093000E-04	-1.78300000E-01	-5.31819000E-03
		-3.17994000E-03	-1.80357000E-01	 3.21040000E-02
		 4.79770000E-04	-1.37650000E-01	-3.75476000E-03
		-1.54567000E-03	-1.74959000E-01	 1.34485000E-02
		-3.77587000E-03	-1.39292000E-01	 3.10519000E-02
		 6.25632000E-04	-1.76296000E-01	-5.22281000E-03
		-3.43810000E-03	-1.78125000E-01	 3.21479000E-02
		 4.81518000E-04	-1.41523000E-01	-3.99813000E-03
		-1.09789000E-03	-1.79244000E-01	 1.33295000E-02
		-2.98581000E-03	-1.43120000E-01	 3.09472000E-02
		 5.08801000E-03	-1.73203000E-01	-4.25848000E-02
		 4.26995000E-03	-1.77125000E-01	-4.27452000E-02
		 4.80343000E-03	-1.36803000E-01	-3.86983000E-02
		 2.73613000E-03	-1.73663000E-01	-2.38043000E-02
		 4.67432000E-03	-1.75294000E-01	-4.26694000E-02
		 3.93625000E-03	-1.40688000E-01	-3.89152000E-02
		 2.47367000E-03	-1.77637000E-01	-2.39859000E-02
		 5.86201000E-04	-1.81774000E-01	-5.42538000E-03
		-2.42939000E-03	-1.84077000E-01	 3.19851000E-02
		 6.08930000E-04	-1.80015000E-01	-5.36682000E-03
		-2.80063000E-03	-1.82826000E-01	 3.20477000E-02
		 4.39183000E-04	-1.44564000E-01	-4.11684000E-03
		-1.09007000E-03	-1.82830000E-01	 1.31450000E-02
		-1.97500000E-03	-1.45988000E-01	 3.08055000E-02
		 3.73452000E-03	-1.80479000E-01	-4.28602000E-02