# vtk DataFile Version 3.0

ASCII
DATASET UNSTRUCTURED_GRID

POINTS 522 double
	 1.00000000E+00	 1.00000000E+00	-5.96046000E-08
	 1.00000000E+00	 5.00000000E-01	-5.96046000E-08
	 1.00000000E+00	 5.00000000E-01	 1.00000000E+00
	 1.00000000E+00	 1.00000000E+00	 1.00000000E+00
	 5.00000000E-01	 1.00000000E+00	-5.96046000E-08
	 5.00000000E-01	 5.00000000E-01	-5.96046000E-08
	 5.00000000E-01	 5.00000000E-01	 1.00000000E+00
	 5.00000000E-01	 1.00000000E+00	 1.00000000E+00
	 1.00000000E+00	 7.50000000E-01	-5.96046000E-08
	 1.00000000E+00	 5.00000000E-01	 5.00000000E-01
	 1.00000000E+00	 7.50000000E-01	 1.00000000E+00
	 1.00000000E+00	 1.00000000E+00	 5.00000000E-01
	 7.50000000E-01	 1.00000000E+00	-5.96046000E-08
	 7.50000000E-01	 5.00000000E-01	-5.96046000E-08
	 7.50000000E-01	 5.00000000E-01	 1.00000000E+00
	 7.50000000E-01	 1.00000000E+00	 1.00000000E+00
	 5.00000000E-01	 7.50000000E-01	-5.96046000E-08
	 5.00000000E-01	 5.00000000E-01	 5.00000000E-01
	 5.00000000E-01	 7.50000000E-01	 1.00000000E+00
	 5.00000000E-01	 1.00000000E+00	 5.00000000E-01
	 1.00000000E+00	-1.49012000E-08	-5.96046000E-08
	 1.00000000E+00	-1.49012000E-08	 1.00000000E+00
	 5.00000000E-01	-1.49012000E-08	-5.96046000E-08
	 5.00000000E-01	-1.49012000E-08	 1.00000000E+00
	 1.00000000E+00	 2.50000000E-01	-5.96046000E-08
	 1.00000000E+00	-1.49012000E-08	 5.00000000E-01
	 1.00000000E+00	 2.50000000E-01	 1.00000000E+00
	 7.50000000E-01	-1.49012000E-08	-5.96046000E-08
	 7.50000000E-01	-1.49012000E-08	 1.00000000E+00
	 5.00000000E-01	 2.50000000E-01	-5.96046000E-08
	 5.00000000E-01	-1.49012000E-08	 5.00000000E-01
	 5.00000000E-01	 2.50000000E-01	 1.00000000E+00
	-7.45058000E-09	 1.00000000E+00	-5.96046000E-08
	-7.45058000E-09	 5.00000000E-01	-5.96046000E-08
	-7.45058000E-09	 5.00000000E-01	 1.00000000E+00
	-7.45058000E-09	 1.00000000E+00	 1.00000000E+00
	 2.50000000E-01	 1.00000000E+00	-5.96046000E-08
	 2.50000000E-01	 5.00000000E-01	-5.96046000E-08
	 2.50000000E-01	 5.00000000E-01	 1.00000000E+00
	 2.50000000E-01	 1.00000000E+00	 1.00000000E+00
	-7.45058000E-09	 7.50000000E-01	-5.96046000E-08
	-7.45058000E-09	 5.00000000E-01	 5.00000000E-01
	-7.45058000E-09	 7.50000000E-01	 1.00000000E+00
	-7.45058000E-09	 1.00000000E+00	 5.00000000E-01
	-7.45058000E-09	-1.49012000E-08	-5.96046000E-08
	-7.45058000E-09	-1.49012000E-08	 1.00000000E+00
	 2.50000000E-01	-1.49012000E-08	-5.96046000E-08
	 2.50000000E-01	-1.49012000E-08	 1.00000000E+00
	-7.45058000E-09	 2.50000000E-01	-5.96046000E-08
	-7.45058000E-09	-1.49012000E-08	 5.00000000E-01
	-7.45058000E-09	 2.50000000E-01	 1.00000000E+00
	 1.00000000E+00	 5.00000000E-01	 2.00000000E+00
	 1.00000000E+00	 1.00000000E+00	 2.00000000E+00
	 5.00000000E-01	 5.00000000E-01	 2.00000000E+00
	 5.00000000E-01	 1.00000000E+00	 2.00000000E+00
	 1.00000000E+00	 5.00000000E-01	 1.50000000E+00
	 1.00000000E+00	 7.50000000E-01	 2.00000000E+00
	 1.00000000E+00	 1.00000000E+00	 1.50000000E+00
	 7.50000000E-01	 5.00000000E-01	 2.00000000E+00
	 7.50000000E-01	 1.00000000E+00	 2.00000000E+00
	 5.00000000E-01	 5.00000000E-01	 1.50000000E+00
	 5.00000000E-01	 7.50000000E-01	 2.00000000E+00
	 5.00000000E-01	 1.00000000E+00	 1.50000000E+00
	 1.00000000E+00	-1.49012000E-08	 2.00000000E+00
	 5.00000000E-01	-1.49012000E-08	 2.00000000E+00
	 1.00000000E+00	-1.49012000E-08	 1.50000000E+00
	 1.00000000E+00	 2.50000000E-01	 2.00000000E+00
	 7.50000000E-01	-1.49012000E-08	 2.00000000E+00
	 5.00000000E-01	-1.49012000E-08	 1.50000000E+00
	 5.00000000E-01	 2.50000000E-01	 2.00000000E+00
	-7.45058000E-09	 5.00000000E-01	 2.00000000E+00
	-7.45058000E-09	 1.00000000E+00	 2.00000000E+00
	 2.50000000E-01	 5.00000000E-01	 2.00000000E+00
	 2.50000000E-01	 1.00000000E+00	 2.00000000E+00
	-7.45058000E-09	 5.00000000E-01	 1.50000000E+00
	-7.45058000E-09	 7.50000000E-01	 2.00000000E+00
	-7.45058000E-09	 1.00000000E+00	 1.50000000E+00
	-7.45058000E-09	-1.49012000E-08	 2.00000000E+00
	 2.50000000E-01	-1.49012000E-08	 2.00000000E+00
	-7.45058000E-09	-1.49012000E-08	 1.50000000E+00
	-7.45058000E-09	 2.50000000E-01	 2.00000000E+00
	 1.00000000E+00	 5.00000000E-01	 3.00000000E+00
	 1.00000000E+00	 1.00000000E+00	 3.00000000E+00
	 5.00000000E-01	 5.00000000E-01	 3.00000000E+00
	 5.00000000E-01	 1.00000000E+00	 3.00000000E+00
	 1.00000000E+00	 5.00000000E-01	 2.50000000E+00
	 1.00000000E+00	 7.50000000E-01	 3.00000000E+00
	 1.00000000E+00	 1.00000000E+00	 2.50000000E+00
	 7.50000000E-01	 5.00000000E-01	 3.00000000E+00
	 7.50000000E-01	 1.00000000E+00	 3.00000000E+00
	 5.00000000E-01	 5.00000000E-01	 2.50000000E+00
	 5.00000000E-01	 7.50000000E-01	 3.00000000E+00
	 5.00000000E-01	 1.00000000E+00	 2.50000000E+00
	 1.00000000E+00	-1.49012000E-08	 3.00000000E+00
	 5.00000000E-01	-1.49012000E-08	 3.00000000E+00
	 1.00000000E+00	-1.49012000E-08	 2.50000000E+00
	 1.00000000E+00	 2.50000000E-01	 3.00000000E+00
	 7.50000000E-01	-1.49012000E-08	 3.00000000E+00
	 5.00000000E-01	-1.49012000E-08	 2.50000000E+00
	 5.00000000E-01	 2.50000000E-01	 3.00000000E+00
	-7.45058000E-09	 5.00000000E-01	 3.00000000E+00
	-7.45058000E-09	 1.00000000E+00	 3.00000000E+00
	 2.50000000E-01	 5.00000000E-01	 3.00000000E+00
	 2.50000000E-01	 1.00000000E+00	 3.00000000E+00
	-7.45058000E-09	 5.00000000E-01	 2.50000000E+00
	-7.45058000E-09	 7.50000000E-01	 3.00000000E+00
	-7.45058000E-09	 1.00000000E+00	 2.50000000E+00
	-7.45058000E-09	-1.49012000E-08	 3.00000000E+00
	 2.50000000E-01	-1.49012000E-08	 3.00000000E+00
	-7.45058000E-09	-1.49012000E-08	 2.50000000E+00
	-7.45058000E-09	 2.50000000E-01	 3.00000000E+00
	 1.00000000E+00	 5.00000000E-01	 4.00000000E+00
	 1.00000000E+00	 1.00000000E+00	 4.00000000E+00
	 5.00000000E-01	 5.00000000E-01	 4.00000000E+00
	 5.00000000E-01	 1.00000000E+00	 4.00000000E+00
	 1.00000000E+00	 5.00000000E-01	 3.50000000E+00
	 1.00000000E+00	 7.50000000E-01	 4.00000000E+00
	 1.00000000E+00	 1.00000000E+00	 3.50000000E+00
	 7.50000000E-01	 5.00000000E-01	 4.00000000E+00
	 7.50000000E-01	 1.00000000E+00	 4.00000000E+00
	 5.00000000E-01	 5.00000000E-01	 3.50000000E+00
	 5.00000000E-01	 7.50000000E-01	 4.00000000E+00
	 5.00000000E-01	 1.00000000E+00	 3.50000000E+00
	 1.00000000E+00	-1.49012000E-08	 4.00000000E+00
	 5.00000000E-01	-1.49012000E-08	 4.00000000E+00
	 1.00000000E+00	-1.49012000E-08	 3.50000000E+00
	 1.00000000E+00	 2.50000000E-01	 4.00000000E+00
	 7.50000000E-01	-1.49012000E-08	 4.00000000E+00
	 5.00000000E-01	-1.49012000E-08	 3.50000000E+00
	 5.00000000E-01	 2.50000000E-01	 4.00000000E+00
	-7.45058000E-09	 5.00000000E-01	 4.00000000E+00
	-7.45058000E-09	 1.00000000E+00	 4.00000000E+00
	 2.50000000E-01	 5.00000000E-01	 4.00000000E+00
	 2.50000000E-01	 1.00000000E+00	 4.00000000E+00
	-7.45058000E-09	 5.00000000E-01	 3.50000000E+00
	-7.45058000E-09	 7.50000000E-01	 4.00000000E+00
	-7.45058000E-09	 1.00000000E+00	 3.50000000E+00
	-7.45058000E-09	-1.49012000E-08	 4.00000000E+00
	 2.50000000E-01	-1.49012000E-08	 4.00000000E+00
	-7.45058000E-09	-1.49012000E-08	 3.50000000E+00
	-7.45058000E-09	 2.50000000E-01	 4.00000000E+00
	 1.00000000E+00	 5.00000000E-01	 5.00000000E+00
	 1.00000000E+00	 1.00000000E+00	 5.00000000E+00
	 5.00000000E-01	 5.00000000E-01	 5.00000000E+00
	 5.00000000E-01	 1.00000000E+00	 5.00000000E+00
	 1.00000000E+00	 5.00000000E-01	 4.50000000E+00
	 1.00000000E+00	 7.50000000E-01	 5.00000000E+00
	 1.00000000E+00	 1.00000000E+00	 4.50000000E+00
	 7.50000000E-01	 5.00000000E-01	 5.00000000E+00
	 7.50000000E-01	 1.00000000E+00	 5.00000000E+00
	 5.00000000E-01	 5.00000000E-01	 4.50000000E+00
	 5.00000000E-01	 7.50000000E-01	 5.00000000E+00
	 5.00000000E-01	 1.00000000E+00	 4.50000000E+00
	 1.00000000E+00	-1.49012000E-08	 5.00000000E+00
	 5.00000000E-01	-1.49012000E-08	 5.00000000E+00
	 1.00000000E+00	-1.49012000E-08	 4.50000000E+00
	 1.00000000E+00	 2.50000000E-01	 5.00000000E+00
	 7.50000000E-01	-1.49012000E-08	 5.00000000E+00
	 5.00000000E-01	-1.49012000E-08	 4.50000000E+00
	 5.00000000E-01	 2.50000000E-01	 5.00000000E+00
	-7.45058000E-09	 5.00000000E-01	 5.00000000E+00
	-7.45058000E-09	 1.00000000E+00	 5.00000000E+00
	 2.50000000E-01	 5.00000000E-01	 5.00000000E+00
	 2.50000000E-01	 1.00000000E+00	 5.00000000E+00
	-7.45058000E-09	 5.00000000E-01	 4.50000000E+00
	-7.45058000E-09	 7.50000000E-01	 5.00000000E+00
	-7.45058000E-09	 1.00000000E+00	 4.50000000E+00
	-7.45058000E-09	-1.49012000E-08	 5.00000000E+00
	 2.50000000E-01	-1.49012000E-08	 5.00000000E+00
	-7.45058000E-09	-1.49012000E-08	 4.50000000E+00
	-7.45058000E-09	 2.50000000E-01	 5.00000000E+00
	 1.00000000E+00	 5.00000000E-01	 6.00000000E+00
	 1.00000000E+00	 1.00000000E+00	 6.00000000E+00
	 5.00000000E-01	 5.00000000E-01	 6.00000000E+00
	 5.00000000E-01	 1.00000000E+00	 6.00000000E+00
	 1.00000000E+00	 5.00000000E-01	 5.50000000E+00
	 1.00000000E+00	 7.50000000E-01	 6.00000000E+00
	 1.00000000E+00	 1.00000000E+00	 5.50000000E+00
	 7.50000000E-01	 5.00000000E-01	 6.00000000E+00
	 7.50000000E-01	 1.00000000E+00	 6.00000000E+00
	 5.00000000E-01	 5.00000000E-01	 5.50000000E+00
	 5.00000000E-01	 7.50000000E-01	 6.00000000E+00
	 5.00000000E-01	 1.00000000E+00	 5.50000000E+00
	 1.00000000E+00	-1.49012000E-08	 6.00000000E+00
	 5.00000000E-01	-1.49012000E-08	 6.00000000E+00
	 1.00000000E+00	-1.49012000E-08	 5.50000000E+00
	 1.00000000E+00	 2.50000000E-01	 6.00000000E+00
	 7.50000000E-01	-1.49012000E-08	 6.00000000E+00
	 5.00000000E-01	-1.49012000E-08	 5.50000000E+00
	 5.00000000E-01	 2.50000000E-01	 6.00000000E+00
	-7.45058000E-09	 5.00000000E-01	 6.00000000E+00
	-7.45058000E-09	 1.00000000E+00	 6.00000000E+00
	 2.50000000E-01	 5.00000000E-01	 6.00000000E+00
	 2.50000000E-01	 1.00000000E+00	 6.00000000E+00
	-7.45058000E-09	 5.00000000E-01	 5.50000000E+00
	-7.45058000E-09	 7.50000000E-01	 6.00000000E+00
	-7.45058000E-09	 1.00000000E+00	 5.50000000E+00
	-7.45058000E-09	-1.49012000E-08	 6.00000000E+00
	 2.50000000E-01	-1.49012000E-08	 6.00000000E+00
	-7.45058000E-09	-1.49012000E-08	 5.50000000E+00
	-7.45058000E-09	 2.50000000E-01	 6.00000000E+00
	 1.00000000E+00	 5.00000000E-01	 7.00000000E+00
[...]
POINT_DATA 522
FIELD U 1
	U 3 522 double
		 0.00000000E+00	 0.00000000E+00	 0.00000000E+00
		 0.00000000E+00	 0.00000000E+00	 0.00000000E+00
		-5.69070000E-06	 3.36361000E-03	 1.66368000E-05
		 9.27718000E-04	 3.55459000E-03	-3.65054000E-03
		 0.00000000E+00	 0.00000000E+00	 0.00000000E+00
		 0.00000000E+00	 0.00000000E+00	 0.00000000E+00
		-2.47350000E-06	 4.04797000E-03	 1.07219000E-05
		 4.47837000E-04	 4.25805000E-03	-3.70004000E-03
		 0.00000000E+00	 0.00000000E+00	 0.00000000E+00
		-3.42682000E-06	 5.58595000E-04	 1.09052000E-05
		 4.61626000E-04	 3.37350000E-03	-1.80884000E-03
		 7.80675000E-04	 8.63282000E-04	-1.83467000E-03
		 0.00000000E+00	 0.00000000E+00	 0.00000000E+00
		 0.00000000E+00	 0.00000000E+00	 0.00000000E+00
		-3.94960000E-06	 3.78707000E-03	 1.30080000E-05
		 6.84874000E-04	 3.98733000E-03	-3.64030000E-03
		 0.00000000E+00	 0.00000000E+00	 0.00000000E+00
		-7.95022000E-07	 1.04274000E-03	 7.13264000E-06
		 2.22412000E-04	 4.06397000E-03	-1.79840000E-03
		 2.37505000E-04	 1.34514000E-03	-1.78571000E-03
		 0.00000000E+00	 0.00000000E+00	 0.00000000E+00
		-9.40771000E-04	 3.59346000E-03	 3.67822000E-03
		 0.00000000E+00	 0.00000000E+00	 0.00000000E+00
		-4.52212000E-04	 4.29735000E-03	 3.71560000E-03
		 0.00000000E+00	 0.00000000E+00	 0.00000000E+00
		-7.88342000E-04	 8.83004000E-04	 1.85610000E-03
		-4.73566000E-04	 3.39345000E-03	 1.84015000E-03
		 0.00000000E+00	 0.00000000E+00	 0.00000000E+00
		-6.92975000E-04	 4.02653000E-03	 3.66076000E-03
		 0.00000000E+00	 0.00000000E+00	 0.00000000E+00
		-2.38323000E-04	 1.36315000E-03	 1.80049000E-03
		-2.27206000E-04	 4.08375000E-03	 1.81781000E-03
		 0.00000000E+00	 0.00000000E+00	 0.00000000E+00
		 0.00000000E+00	 0.00000000E+00	 0.00000000E+00
		 4.04489000E-07	 4.26361000E-03	 8.24175000E-06
		-3.22083000E-05	 4.45572000E-03	-3.65848000E-03
		 0.00000000E+00	 0.00000000E+00	 0.00000000E+00
		 0.00000000E+00	 0.00000000E+00	 0.00000000E+00
		-1.03946000E-06	 4.23665000E-03	 8.94187000E-06
		 2.10627000E-04	 4.43816000E-03	-3.71848000E-03
		 0.00000000E+00	 0.00000000E+00	 0.00000000E+00
		 1.17683000E-06	 1.03440000E-03	 6.78364000E-06
		-1.58806000E-05	 4.27436000E-03	-1.74282000E-03
		-3.21913000E-04	 1.32499000E-03	-1.83850000E-03
		 0.00000000E+00	 0.00000000E+00	 0.00000000E+00
		 3.55356000E-05	 4.49294000E-03	 3.67024000E-03
		 0.00000000E+00	 0.00000000E+00	 0.00000000E+00
		-2.11476000E-04	 4.47737000E-03	 3.73079000E-03
		 0.00000000E+00	 0.00000000E+00	 0.00000000E+00
		 3.26498000E-04	 1.34183000E-03	 1.85227000E-03
		 1.75496000E-05	 4.29243000E-03	 1.75789000E-03
		-1.91913000E-06	 1.41691000E-02	-2.07931000E-05
		 9.55236000E-04	 1.42551000E-02	-6.41250000E-03
		 1.88111000E-06	 1.49689000E-02	-2.86213000E-05
		 6.58071000E-04	 1.50661000E-02	-6.44547000E-03
		-4.91191000E-06	 7.99708000E-03	 6.15795000E-06
		 4.74437000E-04	 1.41809000E-02	-3.14948000E-03
		 1.00700000E-03	 8.16217000E-03	-5.19689000E-03
		 1.67411000E-07	 1.46003000E-02	-2.49499000E-05
		 8.07748000E-04	 1.46950000E-02	-6.44530000E-03
		-1.85200000E-06	 8.79745000E-03	-9.50770000E-07
		 3.30772000E-04	 1.49874000E-02	-3.18400000E-03
		 5.97024000E-04	 8.97175000E-03	-5.22938000E-03
		-9.58675000E-04	 1.43476000E-02	 6.36607000E-03
		-6.53402000E-04	 1.51577000E-02	 6.38281000E-03
		-1.01842000E-03	 8.22661000E-03	 5.20285000E-03
		-4.78227000E-04	 1.42254000E-02	 3.10688000E-03
		-8.06758000E-04	 1.47874000E-02	 6.39031000E-03
		-6.00247000E-04	 9.03660000E-03	 5.22072000E-03
		-3.26781000E-04	 1.50317000E-02	 3.12563000E-03
		 4.87402000E-06	 1.54805000E-02	-3.25929000E-05
		 3.73076000E-04	 1.55812000E-02	-6.42473000E-03
		 3.40001000E-06	 1.52578000E-02	-3.13870000E-05
		 5.15634000E-04	 1.53547000E-02	-6.45023000E-03
		 7.21884000E-07	 9.19428000E-03	-3.88843000E-06
		 1.87746000E-04	 1.55006000E-02	-3.16308000E-03
		 2.02559000E-04	 9.37620000E-03	-5.20711000E-03
		-3.61933000E-04	 1.56701000E-02	 6.35381000E-03
		-5.07684000E-04	 1.54455000E-02	 6.38187000E-03
		-1.98797000E-04	 9.43913000E-03	 5.19255000E-03
		-1.77617000E-04	 1.55432000E-02	 3.09673000E-03
		 6.57752000E-07	 2.93393000E-02	-1.09656000E-04
		 5.40170000E-04	 2.93028000E-02	-7.62634000E-03
		 4.07719000E-06	 2.98540000E-02	-1.18900000E-04
		 4.93038000E-04	 2.98191000E-02	-7.66015000E-03
		 1.33270000E-06	 2.14340000E-02	-6.01283000E-05
		 2.70775000E-04	 2.93158000E-02	-3.78432000E-03
		 7.92455000E-04	 2.14593000E-02	-7.20334000E-03
		 2.49935000E-06	 2.96033000E-02	-1.14684000E-04
		 5.16864000E-04	 2.95669000E-02	-7.68155000E-03
		 4.97426000E-06	 2.21348000E-02	-6.93086000E-05
		 2.48764000E-04	 2.98309000E-02	-3.84116000E-03
		 6.20685000E-04	 2.21648000E-02	-7.24007000E-03
		-5.38251000E-04	 2.94235000E-02	 7.40586000E-03
		-4.84270000E-04	 2.99394000E-02	 7.42137000E-03
		-7.88932000E-04	 2.15706000E-02	 7.07962000E-03
		-2.69325000E-04	 2.93734000E-02	 3.56474000E-03
		-5.11250000E-04	 2.96886000E-02	 7.45098000E-03
		-6.09713000E-04	 2.22749000E-02	 7.09787000E-03
		-2.40468000E-04	 2.98894000E-02	 3.60304000E-03
		 6.89204000E-06	 3.03164000E-02	-1.27263000E-04
		 4.51916000E-04	 3.02877000E-02	-7.64386000E-03
		 5.53295000E-06	 3.00924000E-02	-1.22884000E-04
		 4.72683000E-04	 3.00590000E-02	-7.64009000E-03
		 7.80453000E-06	 2.26642000E-02	-7.60142000E-05
		 2.27780000E-04	 3.02962000E-02	-3.85149000E-03
		 4.59363000E-04	 2.27028000E-02	-7.21939000E-03
		-4.37322000E-04	 3.04058000E-02	 7.38844000E-03
		-4.60901000E-04	 3.01779000E-02	 7.39354000E-03
		-4.42333000E-04	 2.28097000E-02	 7.06364000E-03
		-2.13836000E-04	 3.03542000E-02	 3.59653000E-03
		-4.91762000E-06	 4.52256000E-02	-2.16644000E-04
		-4.00012000E-05	 4.51159000E-02	-7.41854000E-03
		-2.24238000E-06	 4.52561000E-02	-2.17671000E-04
		 8.47265000E-05	 4.51416000E-02	-7.43049000E-03
		-2.44728000E-06	 3.74008000E-02	-1.64211000E-04
		-2.10132000E-05	 4.51883000E-02	-3.75948000E-03
		 2.49026000E-04	 3.73243000E-02	-7.65584000E-03
		-3.61405000E-06	 4.52252000E-02	-2.17142000E-04
		 2.23659000E-05	 4.51113000E-02	-7.46235000E-03
		 5.22459000E-07	 3.76786000E-02	-1.70294000E-04
		 4.11876000E-05	 4.52163000E-02	-3.80312000E-03
		 3.00474000E-04	 3.75998000E-02	-7.68091000E-03
		 2.93712000E-05	 4.52248000E-02	 6.98694000E-03
		-8.97749000E-05	 4.52522000E-02	 6.99730000E-03
		-2.54114000E-04	 3.74423000E-02	 7.32810000E-03
		 1.09754000E-05	 4.52411000E-02	 3.32664000E-03
		-3.03369000E-05	 4.52221000E-02	 7.02988000E-03
		-2.99474000E-04	 3.77189000E-02	 7.34123000E-03
		-4.58241000E-05	 4.52710000E-02	 3.36826000E-03
		 1.12944000E-06	 4.54000000E-02	-2.20299000E-04
		 2.08837000E-04	 4.52878000E-02	-7.42176000E-03
		-6.34963000E-07	 4.53121000E-02	-2.18518000E-04
		 1.46480000E-04	 4.51986000E-02	-7.39852000E-03
		 3.63063000E-06	 3.80006000E-02	-1.76948000E-04
		 1.04153000E-04	 4.53604000E-02	-3.82796000E-03
		 3.55166000E-04	 3.79269000E-02	-7.66843000E-03
		-2.06994000E-04	 4.53992000E-02	 6.98351000E-03
		-1.48262000E-04	 4.53089000E-02	 6.96388000E-03
		-3.47871000E-04	 3.80455000E-02	 7.31549000E-03
		-1.02037000E-04	 4.54163000E-02	 3.38783000E-03
		-3.39950000E-06	 5.91961000E-02	-3.02647000E-04
		-4.32921000E-04	 5.90788000E-02	-6.50284000E-03
		-1.53474000E-06	 5.88560000E-02	-2.89619000E-04
		-2.62530000E-04	 5.87323000E-02	-6.49082000E-03
		-5.75271000E-06	 5.25209000E-02	-2.62409000E-04
		-2.16368000E-04	 5.91597000E-02	-3.38413000E-03
		-2.69316000E-04	 5.24075000E-02	-6.99995000E-03
		-2.85971000E-06	 5.90053000E-02	-2.96524000E-04
		-3.47936000E-04	 5.88831000E-02	-6.51432000E-03
		-3.51001000E-06	 5.23397000E-02	-2.57591000E-04
		-1.31841000E-04	 5.88161000E-02	-3.38855000E-03
		-1.11969000E-04	 5.22184000E-02	-6.99952000E-03
		 4.23273000E-04	 5.91578000E-02	 5.89916000E-03
		 2.56605000E-04	 5.88165000E-02	 5.91354000E-03
		 2.56148000E-04	 5.25023000E-02	 6.47632000E-03
		 2.08715000E-04	 5.91986000E-02	 2.77897000E-03
		 3.39572000E-04	 5.89650000E-02	 5.92328000E-03
		 1.03310000E-04	 5.23162000E-02	 6.48660000E-03
		 1.28094000E-04	 5.88583000E-02	 2.80970000E-03
		 2.60052000E-06	 5.86773000E-02	-2.78393000E-04
		-9.22508000E-05	 5.85520000E-02	-6.47856000E-03
		 2.11916000E-07	 5.87453000E-02	-2.83158000E-04
		-1.77989000E-04	 5.86209000E-02	-6.46786000E-03
		 9.83105000E-08	 5.23055000E-02	-2.54621000E-04
		-4.48530000E-05	 5.86358000E-02	-3.39312000E-03
		 3.98305000E-05	 5.21821000E-02	-6.99120000E-03
		 9.51996000E-05	 5.86415000E-02	 5.92417000E-03
		 1.75829000E-04	 5.87074000E-02	 5.90368000E-03
		-4.08354000E-05	 5.22825000E-02	 6.48502000E-03
		 4.98077000E-05	 5.86814000E-02	 2.83677000E-03
		 3.58794000E-05	 7.06208000E-02	-3.67864000E-04
		-5.78650000E-04	 7.05286000E-02	-5.53154000E-03
		 3.81829000E-05	 7.00722000E-02	-3.31879000E-04
		-4.49967000E-04	 6.99785000E-02	-5.48588000E-03
		 9.05556000E-06	 6.52083000E-02	-3.39582000E-04
		-2.70863000E-04	 7.05903000E-02	-2.95473000E-03
		-5.23119000E-04	 6.51035000E-02	-5.99059000E-03
		 3.68327000E-05	 7.03294000E-02	-3.48894000E-04
		-5.14678000E-04	 7.02365000E-02	-5.52188000E-03
		 1.08750000E-05	 6.47591000E-02	-3.14093000E-04
		-2.05816000E-04	 7.00421000E-02	-2.92933000E-03
		-3.63057000E-04	 6.46492000E-02	-5.96225000E-03
		 6.49155000E-04	 7.05869000E-02	 4.79690000E-03
		 5.25847000E-04	 7.00393000E-02	 4.82278000E-03
		 5.37816000E-04	 6.51686000E-02	 5.31481000E-03
		 3.43241000E-04	 7.06205000E-02	 2.22039000E-03
		 5.87084000E-04	 7.02972000E-02	 4.82394000E-03
		 3.82727000E-04	 6.47203000E-02	 5.33577000E-03
		 2.82136000E-04	 7.00729000E-02	 2.26581000E-03
		 4.30279000E-05	 6.96463000E-02	-2.98065000E-04
		-3.16441000E-04	 6.95559000E-02	-5.46238000E-03
		 4.01895000E-05	 6.98438000E-02	-3.15457000E-04
		-3.83373000E-04	 6.97502000E-02	-5.44882000E-03
		 1.55840000E-05	 6.44633000E-02	-2.90696000E-04
		-1.38709000E-04	 6.96182000E-02	-2.92460000E-03
		-2.00076000E-04	 6.43543000E-02	-5.94398000E-03
		 4.00140000E-04	 6.96197000E-02	 4.86648000E-03
		 4.62538000E-04	 6.98118000E-02	 4.81885000E-03
		 2.28603000E-04	 6.44309000E-02	 5.36283000E-03
		 2.23364000E-04	 6.96497000E-02	 2.32874000E-03
		 1.08137000E-04	 8.04250000E-02	-4.12424000E-04
		-8.17072000E-04	 8.03993000E-02	-5.11624000E-03
		 1.10880000E-04	 7.95010000E-02	-3.60863000E-04
		-8.08417000E-04	 7.94727000E-02	-5.06823000E-03
		 7.15103000E-05	 7.55994000E-02	-3.86352000E-04
		-3.56470000E-04	 8.04155000E-02	-2.75209000E-03
		-6.61011000E-04	 7.55371000E-02	-5.23887000E-03
		 1.09278000E-04	 7.99640000E-02	-3.87327000E-04
		-8.12150000E-04	 7.99387000E-02	-5.12319000E-03
		 7.35622000E-05	 7.48970000E-02	-3.46161000E-04
		-3.46815000E-04	 7.94864000E-02	-2.73413000E-03
		-5.97665000E-04	 7.48374000E-02	-5.18126000E-03
		 1.03257000E-03	 8.04397000E-02	 4.30608000E-03
		 1.02503000E-03	 7.95220000E-02	 4.34742000E-03
		 8.00919000E-04	 7.55845000E-02	 4.46031000E-03
		 5.70397000E-04	 8.04321000E-02	 1.93060000E-03
		 1.02858000E-03	 7.99809000E-02	 4.36036000E-03
		 7.40629000E-04	 7.48897000E-02	 4.48890000E-03
		 5.67652000E-04	 7.95119000E-02	 2.01263000E-03
		 1.12128000E-04	 7.85875000E-02	-3.12342000E-04
		-8.05887000E-04	 7.85508000E-02	-5.03848000E-03
		 1.12064000E-04	 7.90423000E-02	-3.35793000E-04
		-8.06690000E-04	 7.90112000E-02	-5.00959000E-03
		 7.57852000E-05	 7.42616000E-02	-3.06377000E-04
		-3.43259000E-04	 7.85658000E-02	-2.74027000E-03
		-5.22186000E-04	 7.42045000E-02	-5.15321000E-03
		 1.02488000E-03	 7.86096000E-02	 4.40776000E-03
		 1.02445000E-03	 7.90658000E-02	 4.33339000E-03
		 6.73541000E-04	 7.42606000E-02	 4.54415000E-03
		 5.67640000E-04	 7.86016000E-02	 2.11173000E-03
		 1.67425000E-04	 9.00548000E-02	-4.31406000E-04
		-1.01084000E-03	 9.00858000E-02	-5.20499000E-03
		 1.67087000E-04	 8.89226000E-02	-3.99950000E-04
		-9.73590000E-04	 8.89242000E-02	-5.19748000E-03
		 1.43650000E-04	 8.52589000E-02	-4.27124000E-04
		-4.24912000E-04	 9.00562000E-02	-2.79417000E-03
		-9.48857000E-04	 8.52161000E-02	-5.13512000E-03
		 1.66128000E-04	 8.94802000E-02	-4.17974000E-04
		-9.89053000E-04	 8.94936000E-02	-5.19803000E-03
		 1.42903000E-04	 8.41622000E-02	-3.76341000E-04
		-4.21184000E-04	 8.89224000E-02	-2.78654000E-03
		-9.41809000E-04	 8.41364000E-02	-5.12131000E-03
		 1.39034000E-03	 9.01150000E-02	 4.30854000E-03
		 1.38422000E-03	 8.89385000E-02	 4.37431000E-03
		 1.26825000E-03	 8.53003000E-02	 4.29627000E-03
		 7.79883000E-04	 9.00884000E-02	 1.92365000E-03
		 1.38515000E-03	 8.95201000E-02	 4.34525000E-03
		 1.27055000E-03	 8.41830000E-02	 4.35472000E-03
		 7.81475000E-04	 8.89267000E-02	 1.98147000E-03
		 1.92707000E-04	 8.77871000E-02	-3.54544000E-04
		-9.78708000E-04	 8.78763000E-02	-5.22751000E-03
		 1.75289000E-04	 8.83670000E-02	-3.77140000E-04
		-9.77882000E-04	 8.84181000E-02	-5.22909000E-03
		 1.54172000E-04	 8.30503000E-02	-3.18857000E-04
		-4.03263000E-04	 8.78372000E-02	-2.76181000E-03
		-9.78449000E-04	 8.30307000E-02	-5.11371000E-03
		 1.42151000E-03	 8.77471000E-02	 4.44057000E-03
		 1.40569000E-03	 8.83533000E-02	 4.40744000E-03
		 1.29998000E-03	 8.30536000E-02	 4.42034000E-03
		 8.05087000E-04	 8.77526000E-02	 2.04095000E-03
		 0.00000000E+00	 0.00000000E+00	 0.00000000E+00
		 0.00000000E+00	 0.00000000E+00	 0.00000000E+00
		-2.23246000E-05	-1.30427000E-02	-2.23655000E-04
		-3.13106000E-03	-1.40183000E-02	 1.32751000E-02
		 0.00000000E+00	 0.00000000E+00	 0.00000000E+00
		 0.00000000E+00	 0.00000000E+00	 0.00000000E+00
		-4.39701000E-05	-1.52454000E-02	-3.42243000E-04
		-1.38476000E-03	-1.62741000E-02	 1.33140000E-02
		 0.00000000E+00	 0.00000000E+00	 0.00000000E+00
		 2.92945000E-05	-2.48531000E-03	-7.28539000E-05
		-1.58044000E-03	-1.32216000E-02	 6.48451000E-03
		-2.66349000E-03	-3.70793000E-03	 6.78011000E-03
		 0.00000000E+00	 0.00000000E+00	 0.00000000E+00
		 0.00000000E+00	 0.00000000E+00	 0.00000000E+00
		-2.95940000E-05	-1.44420000E-02	-2.89933000E-04
		-2.24035000E-03	-1.54421000E-02	 1.31729000E-02
		 0.00000000E+00	 0.00000000E+00	 0.00000000E+00
		-6.93435000E-06	-4.05902000E-03	-1.21225000E-04
		-7.16425000E-04	-1.54368000E-02	 6.31928000E-03
		-6.67757000E-04	-5.25800000E-03	 6.54675000E-03
		 0.00000000E+00	 0.00000000E+00	 0.00000000E+00
		 3.06641000E-03	-1.36116000E-02	-1.37849000E-02
		 0.00000000E+00	 0.00000000E+00	 0.00000000E+00
		 1.31053000E-03	-1.58813000E-02	-1.40656000E-02
		 0.00000000E+00	 0.00000000E+00	 0.00000000E+00
		 2.71282000E-03	-3.58269000E-03	-6.95331000E-03
		 1.52665000E-03	-1.30143000E-02	-6.95201000E-03
		 0.00000000E+00	 0.00000000E+00	 0.00000000E+00
		 2.18222000E-03	-1.50391000E-02	-1.38151000E-02
		 0.00000000E+00	 0.00000000E+00	 0.00000000E+00
		 6.66517000E-04	-5.16279000E-03	-6.80839000E-03
		 6.29953000E-04	-1.52394000E-02	-7.02523000E-03
		 0.00000000E+00	 0.00000000E+00	 0.00000000E+00
		 0.00000000E+00	 0.00000000E+00	 0.00000000E+00
		-8.01670000E-05	-1.57328000E-02	-4.02726000E-04
		 3.57836000E-04	-1.66727000E-02	 1.31028000E-02
		 0.00000000E+00	 0.00000000E+00	 0.00000000E+00
		 0.00000000E+00	 0.00000000E+00	 0.00000000E+00
		-6.03781000E-05	-1.57849000E-02	-3.81128000E-04
		-5.24970000E-04	-1.67718000E-02	 1.33254000E-02
		 0.00000000E+00	 0.00000000E+00	 0.00000000E+00
		-5.79388000E-05	-3.81739000E-03	-1.46414000E-04
		 1.35827000E-04	-1.58876000E-02	 6.06619000E-03
		 1.36142000E-03	-4.96534000E-03	 6.70815000E-03
		 0.00000000E+00	 0.00000000E+00	 0.00000000E+00
		-4.74918000E-04	-1.63159000E-02	-1.39618000E-02
		 0.00000000E+00	 0.00000000E+00	 0.00000000E+00
		 4.27322000E-04	-1.63906000E-02	-1.41517000E-02
		 0.00000000E+00	 0.00000000E+00	 0.00000000E+00
		-1.44688000E-03	-4.88987000E-03	-7.02669000E-03
		-2.81243000E-04	-1.57167000E-02	-6.88463000E-03
		-1.73834000E-04	-5.19972000E-02	-1.06167000E-03
		-3.98034000E-03	-5.31479000E-02	 2.26558000E-02
		-1.76471000E-04	-5.51855000E-02	-1.29383000E-03
		-2.77865000E-03	-5.63398000E-02	 2.24933000E-02
		-8.53988000E-05	-2.98508000E-02	-5.41637000E-04
		-2.07672000E-03	-5.24388000E-02	 1.07004000E-02
		-3.62759000E-03	-3.10101000E-02	 1.85892000E-02
		-1.73809000E-04	-5.37215000E-02	-1.18843000E-03
		-3.37884000E-03	-5.48740000E-02	 2.25316000E-02
		-1.04385000E-04	-3.26146000E-02	-7.20729000E-04
		-1.47431000E-03	-5.56293000E-02	 1.04674000E-02
		-2.10556000E-03	-3.37715000E-02	 1.84874000E-02
		 3.63744000E-03	-5.19774000E-02	-2.48487000E-02
		 2.43264000E-03	-5.51949000E-02	-2.51509000E-02
		 3.44361000E-03	-3.02448000E-02	-1.97546000E-02
		 1.72821000E-03	-5.18626000E-02	-1.28399000E-02
		 3.03968000E-03	-5.37235000E-02	-2.49753000E-02
		 1.90932000E-03	-3.30228000E-02	-2.00113000E-02
		 1.12752000E-03	-5.50698000E-02	-1.30684000E-02
		-1.96792000E-04	-5.71955000E-02	-1.46040000E-03
		-1.57966000E-03	-5.83101000E-02	 2.22581000E-02
		-1.85397000E-04	-5.63197000E-02	-1.38350000E-03
		-2.17649000E-03	-5.74915000E-02	 2.24857000E-02
		-1.38203000E-04	-3.38594000E-02	-8.33171000E-04
		-8.96224000E-04	-5.76094000E-02	 1.01545000E-02
		-6.07753000E-04	-3.49975000E-02	 1.83009000E-02
		 1.23089000E-03	-5.72143000E-02	-2.52472000E-02
		 1.83182000E-03	-5.63306000E-02	-2.53245000E-02
		 3.79529000E-04	-3.42974000E-02	-2.00452000E-02
		 5.15934000E-04	-5.70855000E-02	-1.30868000E-02
		-3.20462000E-04	-1.07262000E-01	-2.64694000E-03
		-4.47716000E-03	-1.08361000E-01	 2.67821000E-02
		-3.10726000E-04	-1.11109000E-01	-2.92677000E-03
		-3.91172000E-03	-1.12315000E-01	 2.65671000E-02
		-2.51621000E-04	-7.81812000E-02	-1.77203000E-03
		-2.39516000E-03	-1.07735000E-01	 1.19656000E-02
		-4.25470000E-03	-7.93524000E-02	 2.53183000E-02
		-3.13772000E-04	-1.09259000E-01	-2.78831000E-03
		-4.19644000E-03	-1.10423000E-01	 2.66355000E-02
		-2.49642000E-04	-8.17363000E-02	-2.03866000E-03
		-2.13605000E-03	-1.11638000E-01	 1.16691000E-02
		-3.38121000E-03	-8.29144000E-02	 2.51304000E-02
		 3.80076000E-03	-1.06648000E-01	-3.20946000E-02
		 3.29352000E-03	-1.10510000E-01	-3.24746000E-02
		 3.74704000E-03	-7.78610000E-02	-2.89195000E-02
		 1.74233000E-03	-1.06894000E-01	-1.72575000E-02
		 3.54631000E-03	-1.08645000E-01	-3.22597000E-02
		 2.89199000E-03	-8.14166000E-02	-2.92636000E-02
		 1.49265000E-03	-1.10754000E-01	-1.75513000E-02
		-3.12342000E-04	-1.14435000E-01	-3.17463000E-03
		-3.45817000E-03	-1.15754000E-01	 2.62480000E-02
		-3.10379000E-04	-1.12855000E-01	-3.05652000E-03
		-3.68722000E-03	-1.13992000E-01	 2.65176000E-02
		-2.50859000E-04	-8.44318000E-02	-2.25318000E-03
		-1.85367000E-03	-1.15019000E-01	 1.12744000E-02
		-2.55476000E-03	-8.56296000E-02	 2.48421000E-02
		 2.79616000E-03	-1.13874000E-01	-3.26791000E-02
		 3.04579000E-03	-1.12248000E-01	-3.26876000E-02
		 2.02715000E-03	-8.41282000E-02	-2.94057000E-02
		 1.23148000E-03	-1.14113000E-01	-1.76755000E-02
		-3.50301000E-04	-1.69361000E-01	-4.63837000E-03
		-4.70311000E-03	-1.70203000E-01	 2.62141000E-02
		-3.41557000E-04	-1.73789000E-01	-4.90984000E-03
		-4.86469000E-03	-1.75083000E-01	 2.59834000E-02
		-3.83612000E-04	-1.38019000E-01	-3.62359000E-03
		-2.52918000E-03	-1.69788000E-01	 1.07275000E-02
		-4.63508000E-03	-1.39102000E-01	 2.69435000E-02
		-3.44603000E-04	-1.71532000E-01	-4.77114000E-03
		-4.77435000E-03	-1.72544000E-01	 2.60946000E-02
		-3.78035000E-04	-1.42196000E-01	-3.94528000E-03
		-2.48030000E-03	-1.74428000E-01	 1.04600000E-02
		-4.47253000E-03	-1.43226000E-01	 2.67663000E-02
		 3.83785000E-03	-1.68394000E-01	-3.54871000E-02
		 3.88819000E-03	-1.72663000E-01	-3.57906000E-02
		 3.84291000E-03	-1.37198000E-01	-3.42033000E-02
		 1.74458000E-03	-1.68898000E-01	-2.00006000E-02
		 3.86673000E-03	-1.70514000E-01	-3.56320000E-02
		 3.64823000E-03	-1.41331000E-01	-3.45653000E-02
		 1.76089000E-03	-1.73220000E-01	-2.02801000E-02
		-4.74430000E-04	-1.78282000E-01	-5.18797000E-03
		-4.89656000E-03	-1.79938000E-01	 2.56748000E-02
		-4.05781000E-04	-1.75989000E-01	-5.05160000E-03
		-4.87849000E-03	-1.77987000E-01	 2.58733000E-02
		-4.01339000E-04	-1.46162000E-01	-4.28072000E-03
		-2.80100000E-03	-1.79083000E-01	 1.01184000E-02
		-4.14970000E-03	-1.47078000E-01	 2.64341000E-02
		 3.95182000E-03	-1.77010000E-01	-3.60276000E-02