<?xml version="1.0"?>
<VTKFile type="UnstructuredGrid" version="0.1" byte_order="LittleEndian">
	<UnstructuredGrid>
		<Piece NumberOfPoints="522" NumberOfCells="64">
			<Points>
				<DataArray type="Float64" NumberOfComponents="3" format="ascii">
					 1.00000000E+00	 1.00000000E+00	-5.96046000E-08
					 1.00000000E+00	 5.00000000E-01	-5.96046000E-08
					 1.00000000E+00	 5.00000000E-01	 1.00000000E+00
					 1.00000000E+00	 1.00000000E+00	 1.00000000E+00
					 5.00000000E-01	 1.00000000E+00	-5.96046000E-08
					 5.00000000E-01	 5.00000000E-01	-5.96046000E-08
					 5.00000000E-01	 5.00000000E-01	 1.00000000E+00
					 5.00000000E-01	 1.00000000E+00	 1.00000000E+00
					 1.00000000E+00	 7.50000000E-01	-5.96046000E-08
					 1.00000000E+00	 5.00000000E-01	 5.00000000E-01
					 1.00000000E+00	 7.50000000E-01	 1.00000000E+00
					 1.00000000E+00	 1.00000000E+00	 5.00000000E-01
					 7.50000000E-01	 1.00000000E+00	-5.96046000E-08
					 7.50000000E-01	 5.00000000E-01	-5.96046000E-08
					 7.50000000E-01	 5.00000000E-01	 1.00000000E+00
					 7.50000000E-01	 1.00000000E+00	 1.00000000E+00
					 5.00000000E-01	 7.50000000E-01	-5.96046000E-08
					 5.00000000E-01	 5.00000000E-01	 5.00000000E-01
					 5.00000000E-01	 7.50000000E-01	 1.00000000E+00
					 5.00000000E-01	 1.00000000E+00	 5.00000000E-01
					 1.00000000E+00	-1.49012000E-08	-5.96046000E-08
					 1.00000000E+00	-1.49012000E-08	 1.00000000E+00
					 5.00000000E-01	-1.49012000E-08	-5.96046000E-08
					 5.00000000E-01	-1.49012000E-08	 1.00000000E+00
					 1.00000000E+00	 2.50000000E-01	-5.96046000E-08
					 1.00000000E+00	-1.49012000E-08	 5.00000000E-01
					 1.00000000E+00	 2.50000000E-01	 1.00000000E+00
					 7.50000000E-01	-1.49012000E-08	-5.96046000E-08
					 7.50000000E-01	-1.49012000E-08	 1.00000000E+00
					 5.00000000E-01	 2.50000000E-01	-5.96046000E-08
					 5.00000000E-01	-1.49012000E-08	 5.00000000E-01
					 5.00000000E-01	 2.50000000E-01	 1.00000000E+00
					-7.45058000E-09	 1.00000000E+00	-5.96046000E-08
					-7.45058000E-09	 5.00000000E-01	-5.96046000E-08
					-7.45058000E-09	 5.00000000E-01	 1.00000000E+00
					-7.45058000E-09	 1.00000000E+00	 1.00000000E+00
					 2.50000000E-01	 1.00000000E+00	-5.96046000E-08
					 2.50000000E-01	 5.00000000E-01	-5.96046000E-08
					 2.50000000E-01	 5.00000000E-01	 1.00000000E+00
					 2.50000000E-01	 1.00000000E+00	 1.00000000E+00
					-7.45058000E-09	 7.50000000E-01	-5.96046000E-08
					-7.45058000E-09	 5.00000000E-01	 5.00000000E-01
					-7.45058000E-09	 7.50000000E-01	 1.00000000E+00
					-7.45058000E-09	 1.00000000E+00	 5.00000000E-01
					-7.45058000E-09	-1.49012000E-08	-5.96046000E-08
					-7.45058000E-09	-1.49012000E-08	 1.00000000E+00
					 2.50000000E-01	-1.49012000E-08	-5.96046000E-08
					 2.50000000E-01	-1.49012000E-08	 1.00000000E+00
					-7.45058000E-09	 2.50000000E-01	-5.96046000E-08
					-7.45058000E-09	-1.49012000E-08	 5.00000000E-01
					-7.45058000E-09	 2.50000000E-01	 1.00000000E+00
					 1.00000000E+00	 5.00000000E-01	 2.00000000E+00
					 1.00000000E+00	 1.00000000E+00	 2.00000000E+00
					 5.00000000E-01	 5.00000000E-01	 2.00000000E+00
					 5.00000000E-01	 1.00000000E+00	 2.00000000E+00
					 1.00000000E+00	 5.00000000E-01	 1.50000000E+00
					 1.00000000E+00	 7.50000000E-01	 2.00000000E+00
					 1.00000000E+00	 1.00000000E+00	 1.50000000E+00
					 7.50000000E-01	 5.00000000E-01	 2.00000000E+00
					 7.50000000E-01	 1.00000000E+00	 2.00000000E+00
					 5.00000000E-01	 5.00000000E-01	 1.50000000E+00
					 5.00000000E-01	 7.50000000E-01	 2.00000000E+00
					 5.00000000E-01	 1.00000000E+00	 1.50000000E+00
					 1.00000000E+00	-1.49012000E-08	 2.00000000E+00
					 5.00000000E-01	-1.49012000E-08	 2.00000000E+00
					 1.00000000E+00	-1.49012000E-08	 1.50000000E+00
					 1.00000000E+00	 2.50000000E-01	 2.00000000E+00
					 7.50000000E-01	-1.49012000E-08	 2.00000000E+00
					 5.00000000E-01	-1.49012000E-08	 1.50000000E+00
					 5.00000000E-01	 2.50000000E-01	 2.00000000E+00
					-7.45058000E-09	 5.00000000E-01	 2.00000000E+00
					-7.45058000E-09	 1.00000000E+00	 2.00000000E+00
					 2.50000000E-01	 5.00000000E-01	 2.00000000E+00
					 2.50000000E-01	 1.00000000E+00	 2.00000000E+00
					-7.45058000E-09	 5.00000000E-01	 1.50000000E+00
					-7.45058000E-09	 7.50000000E-01	 2.00000000E+00
					-7.45058000E-09	 1.00000000E+00	 1.50000000E+00
					-7.45058000E-09	-1.49012000E-08	 2.00000000E+00
					 2.50000000E-01	-1.49012000E-08	 2.00000000E+00
					-7.45058000E-09	-1.49012000E-08	 1.50000000E+00
					-7.45058000E-09	 2.50000000E-01	 2.00000000E+00
					 1.00000000E+00	 5.00000000E-01	 3.00000000E+00
					 1.00000000E+00	 1.00000000E+00	 3.00000000E+00
					 5.00000000E-01	 5.00000000E-01	 3.00000000E+00
					 5.00000000E-01	 1.00000000E+00	 3.00000000E+00
					 1.00000000E+00	 5.00000000E-01	 2.50000000E+00
					 1.00000000E+00	 7.50000000E-01	 3.00000000E+00
					 1.00000000E+00	 1.00000000E+00	 2.50000000E+00
					 7.50000000E-01	 5.00000000E-01	 3.00000000E+00
					 7.50000000E-01	 1.00000000E+00	 3.00000000E+00
					 5.00000000E-01	 5.00000000E-01	 2.50000000E+00
					 5.00000000E-01	 7.50000000E-01	 3.00000000E+00
					 5.00000000E-01	 1.00000000E+00	 2.50000000E+00
					 1.00000000E+00	-1.49012000E-08	 3.00000000E+00
					 5.00000000E-01	-1.49012000E-08	 3.00000000E+00
					 1.00000000E+00	-1.49012000E-08	 2.50000000E+00
					 1.00000000E+00	 2.50000000E-01	 3.00000000E+00
					 7.50000000E-01	-1.49012000E-08	 3.00000000E+00
					 5.00000000E-01	-1.49012000E-08	 2.50000000E+00
					 5.00000000E-01	 2.50000000E-01	 3.00000000E+00
					-7.45058000E-09	 5.00000000E-01	 3.00000000E+00
					-7.45058000E-09	 1.00000000E+00	 3.00000000E+00
					 2.50000000E-01	 5.00000000E-01	 3.00000000E+00
					 2.50000000E-01	 1.00000000E+00	 3.00000000E+00
					-7.45058000E-09	 5.00000000E-01	 2.50000000E+00
					-7.45058000E-09	 7.50000000E-01	 3.00000000E+00
					-7.45058000E-09	 1.00000000E+00	 2.50000000E+00
					-7.45058000E-09	-1.49012000E-08	 3.00000000E+00
					 2.50000000E-01	-1.49012000E-08	 3.00000000E+00
					-7.45058000E-09	-1.49012000E-08	 2.50000000E+00
					-7.45058000E-09	 2.50000000E-01	 3.00000000E+00
					 1.00000000E+00	 5.00000000E-01	 4.00000000E+00
					 1.00000000E+00	 1.00000000E+00	 4.00000000E+00
					 5.00000000E-01	 5.00000000E-01	 4.00000000E+00
					 5.00000000E-01	 1.00000000E+00	 4.00000000E+00
					 1.00000000E+00	 5.00000000E-01	 3.50000000E+00
					 1.00000000E+00	 7.50000000E-01	 4.00000000E+00
					 1.00000000E+00	 1.00000000E+00	 3.50000000E+00
					 7.50000000E-01	 5.00000000E-01	 4.00000000E+00
					 7.50000000E-01	 1.00000000E+00	 4.00000000E+00
					 5.00000000E-01	 5.00000000E-01	 3.50000000E+00
					 5.00000000E-01	 7.50000000E-01	 4.00000000E+00
					 5.00000000E-01	 1.00000000E+00	 3.50000000E+00
					 1.00000000E+00	-1.49012000E-08	 4.00000000E+00
					 5.00000000E-01	-1.49012000E-08	 4.00000000E+00
					 1.00000000E+00	-1.49012000E-08	 3.50000000E+00
					 1.00000000E+00	 2.50000000E-01	 4.00000000E+00
					 7.50000000E-01	-1.49012000E-08	 4.00000000E+00
					 5.00000000E-01	-1.49012000E-08	 3.50000000E+00
					 5.00000000E-01	 2.50000000E-01	 4.00000000E+00
					-7.45058000E-09	 5.00000000E-01	 4.00000000E+00
					-7.45058000E-09	 1.00000000E+00	 4.00000000E+00
					 2.50000000E-01	 5.00000000E-01	 4.00000000E+00
					 2.50000000E-01	 1.00000000E+00	 4.00000000E+00
					-7.45058000E-09	 5.00000000E-01	 3.50000000E+00
					-7.45058000E-09	 7.50000000E-01	 4.00000000E+00
					-7.45058000E-09	 1.00000000E+00	 3.50000000E+00
					-7.45058000E-09	-1.49012000E-08	 4.00000000E+00
					 2.50000000E-01	-1.49012000E-08	 4.00000000E+00
					-7.45058000E-09	-1.49012000E-08	 3.50000000E+00
					-7.45058000E-09	 2.50000000E-01	 4.00000000E+00
					 1.00000000E+00	 5.00000000E-01	 5.00000000E+00
					 1.00000000E+00	 1.00000000E+00	 5.00000000E+00
					 5.00000000E-01	 5.00000000E-01	 5.00000000E+00
					 5.00000000E-01	 1.00000000E+00	 5.00000000E+00
					 1.00000000E+00	 5.00000000E-01	 4.50000000E+00
					 1.00000000E+00	 7.50000000E-01	 5.00000000E+00
					 1.00000000E+00	 1.00000000E+00	 4.50000000E+00
					 7.50000000E-01	 5.00000000E-01	 5.00000000E+00
					 7.50000000E-01	 1.00000000E+00	 5.00000000E+00
					 5.00000000E-01	 5.00000000E-01	 4.50000000E+00
					 5.00000000E-01	 7.50000000E-01	 5.00000000E+00
					 5.00000000E-01	 1.00000000E+00	 4.50000000E+00
					 1.00000000E+00	-1.49012000E-08	 5.00000000E+00
					 5.00000000E-01	-1.49012000E-08	 5.00000000E+00
					 1.00000000E+00	-1.49012000E-08	 4.50000000E+00
					 1.00000000E+00	 2.50000000E-01	 5.00000000E+00
					 7.50000000E-01	-1.49012000E-08	 5.00000000E+00
					 5.00000000E-01	-1.49012000E-08	 4.50000000E+00
					 5.00000000E-01	 2.50000000E-01	 5.00000000E+00
					-7.45058000E-09	 5.00000000E-01	 5.00000000E+00
					-7.45058000E-09	 1.00000000E+00	 5.00000000E+00
					 2.50000000E-01	 5.00000000E-01	 5.00000000E+00
					 2.50000000E-01	 1.00000000E+00	 5.00000000E+00
					-7.45058000E-09	 5.00000000E-01	 4.50000000E+00
					-7.45058000E-09	 7.50000000E-01	 5.00000000E+00
					-7.45058000E-09	 1.00000000E+00	 4.50000000E+00
					-7.45058000E-09	-1.49012000E-08	 5.00000000E+00
					 2.50000000E-01	-1.49012000E-08	 5.00000000E+00
					-7.45058000E-09	-1.49012000E-08	 4.50000000E+00
					-7.45058000E-09	 2.50000000E-01	 5.00000000E+00
					 1.00000000E+00	 5.00000000E-01	 6.00000000E+00
					 1.00000000E+00	 1.00000000E+00	 6.00000000E+00
					 5.00000000E-01	 5.00000000E-01	 6.00000000E+00
					 5.00000000E-01	 1.00000000E+00	 6.00000000E+00
					 1.00000000E+00	 5.00000000E-01	 5.50000000E+00
					 1.00000000E+00	 7.50000000E-01	 6.00000000E+00
					 1.00000000E+00	 1.00000000E+00	 5.50000000E+00
					 7.50000000E-01	 5.00000000E-01	 6.00000000E+00
					 7.50000000E-01	 1.00000000E+00	 6.00000000E+00
					 5.00000000E-01	 5.00000000E-01	 5.50000000E+00
					 5.00000000E-01	 7.50000000E-01	 6.00000000E+00
					 5.00000000E-01	 1.00000000E+00	 5.50000000E+00
					 1.00000000E+00	-1.49012000E-08	 6.00000000E+00
[...]
			<PointData>
				<DataArray type="Float32" Name="U" NumberOfComponents="3" ComponentName0="D1" ComponentName1="D2" ComponentName2="D3" format="ascii">
					 0.00000000E+00	 0.00000000E+00	 0.00000000E+00
					 0.00000000E+00	 0.00000000E+00	 0.00000000E+00
					 2.22720000E-06	-6.34334000E-03	-2.06105000E-05
					-1.48888000E-04	-6.61583000E-03	 4.94057000E-03
					 0.00000000E+00	 0.00000000E+00	 0.00000000E+00
					 0.00000000E+00	 0.00000000E+00	 0.00000000E+00
					 4.65256000E-06	-6.20231000E-03	-1.56372000E-05
					 4.25356000E-04	-6.49938000E-03	 5.01969000E-03
					 0.00000000E+00	 0.00000000E+00	 0.00000000E+00
					 3.04860000E-06	-1.70397000E-03	-5.18858000E-06
					-7.28549000E-05	-6.37043000E-03	 2.31972000E-03
					-5.58498000E-04	-2.11956000E-03	 2.61758000E-03
					 0.00000000E+00	 0.00000000E+00	 0.00000000E+00
					 0.00000000E+00	 0.00000000E+00	 0.00000000E+00
					 2.44245000E-06	-6.37391000E-03	-1.94823000E-05
					 1.43252000E-04	-6.66065000E-03	 5.02939000E-03
					 0.00000000E+00	 0.00000000E+00	 0.00000000E+00
					 2.18699000E-06	-1.83317000E-03	-2.97863000E-06
					 2.15429000E-04	-6.23625000E-03	 2.40850000E-03
					 1.99299000E-04	-2.26557000E-03	 2.56050000E-03
					 0.00000000E+00	 0.00000000E+00	 0.00000000E+00
					 1.55899000E-04	-6.55067000E-03	-4.98905000E-03
					 0.00000000E+00	 0.00000000E+00	 0.00000000E+00
					-4.19779000E-04	-6.43815000E-03	-5.05857000E-03
					 0.00000000E+00	 0.00000000E+00	 0.00000000E+00
					 5.66172000E-04	-2.09299000E-03	-2.62888000E-03
					 7.76792000E-05	-6.33848000E-03	-2.36155000E-03
					 0.00000000E+00	 0.00000000E+00	 0.00000000E+00
					-1.35574000E-04	-6.59742000E-03	-5.07807000E-03
					 0.00000000E+00	 0.00000000E+00	 0.00000000E+00
					-1.96193000E-04	-2.24332000E-03	-2.56740000E-03
					-2.07380000E-04	-6.20791000E-03	-2.44225000E-03
					 0.00000000E+00	 0.00000000E+00	 0.00000000E+00
					 0.00000000E+00	 0.00000000E+00	 0.00000000E+00
					 7.35500000E-06	-5.50124000E-03	-5.47157000E-06
					 9.97842000E-04	-5.78176000E-03	 4.96040000E-03
					 0.00000000E+00	 0.00000000E+00	 0.00000000E+00
					 0.00000000E+00	 0.00000000E+00	 0.00000000E+00
					 6.77144000E-06	-5.95498000E-03	-1.13078000E-05
					 7.05673000E-04	-6.24136000E-03	 4.95821000E-03
					 0.00000000E+00	 0.00000000E+00	 0.00000000E+00
					 2.82205000E-06	-1.30809000E-03	 2.63287000E-06
					 5.05646000E-04	-5.53401000E-03	 2.42103000E-03
					 9.41987000E-04	-1.74441000E-03	 2.62789000E-03
					 0.00000000E+00	 0.00000000E+00	 0.00000000E+00
					-9.92640000E-04	-5.70786000E-03	-4.97653000E-03
					 0.00000000E+00	 0.00000000E+00	 0.00000000E+00
					-7.02637000E-04	-6.17638000E-03	-4.98553000E-03
					 0.00000000E+00	 0.00000000E+00	 0.00000000E+00
					-9.39579000E-04	-1.71492000E-03	-2.62454000E-03
					-4.92794000E-04	-5.49548000E-03	-2.43465000E-03
					 1.32051000E-05	-2.11022000E-02	-1.24401000E-04
					 5.25028000E-04	-2.13124000E-02	 7.86818000E-03
					 1.50546000E-05	-2.04433000E-02	-1.02528000E-04
					 8.08902000E-04	-2.06583000E-02	 7.91915000E-03
					 5.67108000E-06	-1.29832000E-02	-5.93608000E-05
					 2.66266000E-04	-2.11777000E-02	 3.77933000E-03
					 2.06882000E-04	-1.32758000E-02	 6.66943000E-03
					 1.50312000E-05	-2.08026000E-02	-1.14494000E-04
					 6.67903000E-04	-2.10120000E-02	 7.92567000E-03
					 7.41486000E-06	-1.25599000E-02	-4.74783000E-05
					 4.13764000E-04	-2.05245000E-02	 3.84742000E-03
					 6.46826000E-04	-1.28520000E-02	 6.72145000E-03
					-5.15823000E-04	-2.11941000E-02	-8.12263000E-03
					-7.90991000E-04	-2.05192000E-02	-8.13317000E-03
					-2.07959000E-04	-1.31864000E-02	-6.80122000E-03
					-2.45054000E-04	-2.11248000E-02	-4.03012000E-03
					-6.54583000E-04	-2.08801000E-02	-8.15972000E-03
					-6.43849000E-04	-1.27483000E-02	-6.82702000E-03
					-3.88089000E-04	-2.04560000E-02	-4.05455000E-03
					 1.51181000E-05	-1.95015000E-02	-7.53599000E-05
					 1.10707000E-03	-1.97114000E-02	 7.91606000E-03
					 1.47994000E-05	-1.99999000E-02	-8.90431000E-05
					 9.58083000E-04	-2.02142000E-02	 7.92053000E-03
					 8.62152000E-06	-1.16952000E-02	-2.96495000E-05
					 5.61882000E-04	-1.95787000E-02	 3.85933000E-03
					 1.09843000E-03	-1.19912000E-02	 6.70328000E-03
					-1.08151000E-03	-1.95645000E-02	-8.07875000E-03
					-9.36136000E-04	-2.00704000E-02	-8.11136000E-03
					-1.09242000E-03	-1.18718000E-02	-6.77125000E-03
					-5.33182000E-04	-1.95055000E-02	-4.01186000E-03
					 2.34556000E-05	-3.90990000E-02	-2.72036000E-04
					 6.59681000E-04	-3.92518000E-02	 8.89469000E-03
					 2.51560000E-05	-3.84314000E-02	-2.55767000E-04
					 7.49149000E-04	-3.85682000E-02	 8.92178000E-03
					 2.05952000E-05	-2.99572000E-02	-1.98098000E-04
					 3.37413000E-04	-3.91649000E-02	 4.31213000E-03
					 6.88013000E-04	-3.01482000E-02	 8.53501000E-03
					 2.30868000E-05	-3.87782000E-02	-2.64522000E-04
					 7.05023000E-04	-3.89192000E-02	 8.88497000E-03
					 2.28936000E-05	-2.92194000E-02	-1.74948000E-04
					 3.86595000E-04	-3.84868000E-02	 4.31012000E-03
					 8.47959000E-04	-2.93927000E-02	 8.57795000E-03
					-5.97161000E-04	-3.90630000E-02	-9.44213000E-03
					-6.88050000E-04	-3.83977000E-02	-9.43658000E-03
					-6.43525000E-04	-2.99876000E-02	-8.92953000E-03
					-2.86226000E-04	-3.90671000E-02	-4.85741000E-03
					-6.43429000E-04	-3.87425000E-02	-9.41693000E-03
					-7.98934000E-04	-2.92362000E-02	-8.93266000E-03
					-3.32445000E-04	-3.84032000E-02	-4.82294000E-03
					 2.96783000E-05	-3.76637000E-02	-2.36082000E-04
					 8.45085000E-04	-3.77985000E-02	 8.93318000E-03
					 2.76631000E-05	-3.80600000E-02	-2.46136000E-04
					 7.96604000E-04	-3.81951000E-02	 8.95847000E-03
					 2.50457000E-05	-2.83101000E-02	-1.47999000E-04
					 4.38499000E-04	-3.77168000E-02	 4.29621000E-03
					 1.02690000E-03	-2.84775000E-02	 8.58282000E-03
					-7.82223000E-04	-3.76332000E-02	-9.40864000E-03
					-7.34938000E-04	-3.80265000E-02	-9.45400000E-03
					-9.72188000E-04	-2.83261000E-02	-8.88941000E-03
					-3.78147000E-04	-3.76381000E-02	-4.76996000E-03
					 4.83719000E-05	-5.78089000E-02	-4.52659000E-04
					 3.72897000E-04	-5.79350000E-02	 9.23506000E-03
					 4.80117000E-05	-5.74447000E-02	-4.32367000E-04
					 4.58826000E-04	-5.75731000E-02	 9.25486000E-03
					 3.05900000E-05	-4.83512000E-02	-3.56168000E-04
					 2.12187000E-04	-5.78629000E-02	 4.41012000E-03
					 5.01335000E-04	-4.84851000E-02	 9.09041000E-03
					 4.81985000E-05	-5.76361000E-02	-4.40822000E-04
					 4.13551000E-04	-5.77647000E-02	 9.23079000E-03
					 3.21737000E-05	-4.78438000E-02	-3.40376000E-04
					 2.53243000E-04	-5.75014000E-02	 4.41490000E-03
					 5.85511000E-04	-4.79758000E-02	 9.10861000E-03
					-2.80557000E-04	-5.77548000E-02	-1.01426000E-02
					-3.62366000E-04	-5.73877000E-02	-1.01205000E-02
					-4.36276000E-04	-4.83028000E-02	-9.81088000E-03
					-1.16214000E-04	-5.77737000E-02	-5.31491000E-03
					-3.20539000E-04	-5.75815000E-02	-1.01156000E-02
					-5.16349000E-04	-4.77970000E-02	-9.79350000E-03
					-1.56737000E-04	-5.74083000E-02	-5.27933000E-03
					 4.80986000E-05	-5.69896000E-02	-4.17894000E-04
					 5.42274000E-04	-5.71186000E-02	 9.26980000E-03
					 4.79550000E-05	-5.72274000E-02	-4.25940000E-04
					 5.02420000E-04	-5.73559000E-02	 9.27269000E-03
					 3.61399000E-05	-4.72505000E-02	-3.23546000E-04
					 2.95336000E-04	-5.70453000E-02	 4.41767000E-03
					 6.64255000E-04	-4.73869000E-02	 9.12655000E-03
					-4.40138000E-04	-5.69383000E-02	-1.01051000E-02
					-4.01837000E-04	-5.71710000E-02	-1.01242000E-02
					-5.88059000E-04	-4.72114000E-02	-9.77500000E-03
					-1.97315000E-04	-5.69564000E-02	-5.25249000E-03
					 6.86791000E-05	-7.76499000E-02	-6.60700000E-04
					 2.67868000E-04	-7.77958000E-02	 9.61570000E-03
					 6.05975000E-05	-7.73981000E-02	-6.46425000E-04
					 3.50289000E-04	-7.75522000E-02	 9.63512000E-03
					 6.32484000E-05	-6.75541000E-02	-5.53585000E-04
					 1.70797000E-04	-7.77100000E-02	 4.47403000E-03
					 3.13564000E-04	-6.76883000E-02	 9.42112000E-03
					 6.60656000E-05	-7.75362000E-02	-6.54932000E-04
					 3.10358000E-04	-7.76878000E-02	 9.61680000E-03
					 5.76493000E-05	-6.72538000E-02	-5.35221000E-04
					 2.06128000E-04	-7.74620000E-02	 4.48236000E-03
					 4.04070000E-04	-6.73936000E-02	 9.43852000E-03
					-1.43551000E-04	-7.75881000E-02	-1.09327000E-02
					-2.34514000E-04	-7.73313000E-02	-1.09218000E-02
					-1.95773000E-04	-6.74975000E-02	-1.05249000E-02
					-3.77020000E-05	-7.76052000E-02	-5.79500000E-03
					-1.88598000E-04	-7.74717000E-02	-1.09216000E-02
					-2.90684000E-04	-6.71953000E-02	-1.05049000E-02
					-8.72523000E-05	-7.73497000E-02	-5.77397000E-03
					 5.24150000E-05	-7.70654000E-02	-6.34263000E-04
					 4.38128000E-04	-7.72107000E-02	 9.63946000E-03
					 5.51719000E-05	-7.72435000E-02	-6.38804000E-04
					 3.93369000E-04	-7.73971000E-02	 9.65143000E-03
					 5.26209000E-05	-6.68605000E-02	-5.24344000E-04
					 2.41733000E-04	-7.71249000E-02	 4.47717000E-03
					 4.93986000E-04	-6.69974000E-02	 9.44889000E-03
					-3.31117000E-04	-7.69913000E-02	-1.09004000E-02
					-2.83959000E-04	-7.71752000E-02	-1.09221000E-02
					-3.83516000E-04	-6.68033000E-02	-1.04920000E-02
					-1.36785000E-04	-7.70145000E-02	-5.74367000E-03
					 7.73991000E-05	-9.86276000E-02	-8.67968000E-04
					 4.51174000E-05	-9.87111000E-02	 9.57825000E-03
					 7.63153000E-05	-9.86879000E-02	-8.71358000E-04
					-2.05477000E-05	-9.87709000E-02	 9.59079000E-03
					 7.25030000E-05	-8.80830000E-02	-7.68450000E-04
					 5.98393000E-05	-9.86789000E-02	 4.34606000E-03
					 1.86979000E-04	-8.82103000E-02	 9.71169000E-03
					 7.87174000E-05	-9.86510000E-02	-8.69954000E-04
					 1.34306000E-05	-9.87321000E-02	 9.55748000E-03
					 6.65320000E-05	-8.79532000E-02	-7.58815000E-04
					 2.76034000E-05	-9.87395000E-02	 4.31996000E-03
					 2.08967000E-04	-8.80812000E-02	 9.73482000E-03
					 1.00862000E-04	-9.84893000E-02	-1.13331000E-02
					 1.63987000E-04	-9.85415000E-02	-1.13512000E-02
					-5.02110000E-05	-8.79802000E-02	-1.12525000E-02
					 9.15688000E-05	-9.85678000E-02	-6.08886000E-03
					 1.34505000E-04	-9.85068000E-02	-1.13155000E-02
					-8.15104000E-05	-8.78413000E-02	-1.12544000E-02
					 1.21065000E-04	-9.86237000E-02	-6.06819000E-03
					 6.83538000E-05	-9.88048000E-02	-8.63280000E-04
					-8.73657000E-05	-9.88900000E-02	 9.57838000E-03
					 7.21728000E-05	-9.87369000E-02	-8.69008000E-04
					-5.40708000E-05	-9.88220000E-02	 9.63650000E-03
					 5.71068000E-05	-8.77934000E-02	-7.45228000E-04
					-8.81748000E-06	-9.88568000E-02	 4.26630000E-03
					 2.41348000E-04	-8.79103000E-02	 9.72861000E-03
					 2.18594000E-04	-9.86578000E-02	-1.13209000E-02
					 1.90013000E-04	-9.85903000E-02	-1.13896000E-02
					-1.27289000E-04	-8.76720000E-02	-1.12195000E-02
					 1.44463000E-04	-9.87394000E-02	-5.99889000E-03
					 5.27299000E-05	-1.18516000E-01	-1.06501000E-03
					-3.80807000E-04	-1.18512000E-01	 8.48872000E-03
					 7.00051000E-05	-1.19021000E-01	-1.08963000E-03
					-5.11228000E-04	-1.19017000E-01	 8.46747000E-03
					 7.09211000E-05	-1.08890000E-01	-9.64874000E-04
					-1.64727000E-04	-1.18532000E-01	 3.76182000E-03
					-1.43763000E-04	-1.08926000E-01	 9.09934000E-03
					 5.85780000E-05	-1.18750000E-01	-1.07714000E-03
					-4.50509000E-04	-1.18746000E-01	 8.43971000E-03
					 8.06339000E-05	-1.09169000E-01	-9.84965000E-04
					-2.23049000E-04	-1.19037000E-01	 3.70547000E-03
					-2.73613000E-04	-1.09202000E-01	 9.09047000E-03
					 4.82899000E-04	-1.18366000E-01	-1.06115000E-02
					 6.41755000E-04	-1.18870000E-01	-1.06368000E-02
					 2.79649000E-04	-1.08745000E-01	-1.10474000E-02
					 2.69050000E-04	-1.18466000E-01	-5.88746000E-03
					 5.59969000E-04	-1.18599000E-01	-1.05871000E-02
					 4.22434000E-04	-1.09020000E-01	-1.10790000E-02
					 3.58577000E-04	-1.18971000E-01	-5.88036000E-03
					 8.21280000E-05	-1.19661000E-01	-1.12101000E-03
					-6.54161000E-04	-1.19673000E-01	 8.45154000E-03
					 8.04123000E-05	-1.19320000E-01	-1.10588000E-03
					-5.79047000E-04	-1.19321000E-01	 8.48710000E-03
					 8.30628000E-05	-1.09573000E-01	-9.91113000E-04
					-2.84166000E-04	-1.19684000E-01	 3.65645000E-03
					-4.13419000E-04	-1.09622000E-01	 9.07611000E-03
					 8.06251000E-04	-1.19514000E-01	-1.06819000E-02
					 7.28547000E-04	-1.19169000E-01	-1.06896000E-02
					 5.62320000E-04	-1.09425000E-01	-1.10769000E-02
					 4.44295000E-04	-1.19613000E-01	-5.89130000E-03
					 7.04009000E-05	-1.36325000E-01	-1.25842000E-03
					-7.83422000E-04	-1.36374000E-01	 7.80275000E-03
					 3.04483000E-05	-1.37147000E-01	-1.25565000E-03
					-8.02687000E-04	-1.37255000E-01	 7.81293000E-03
					 4.58266000E-05	-1.27467000E-01	-1.16552000E-03
					-3.49985000E-04	-1.36350000E-01	 3.30453000E-03
					-6.49910000E-04	-1.27496000E-01	 8.02997000E-03
					 5.64198000E-05	-1.36731000E-01	-1.24895000E-03
					-7.88552000E-04	-1.36813000E-01	 7.79183000E-03
					 4.88311000E-05	-1.28184000E-01	-1.17662000E-03
					-3.79541000E-04	-1.37205000E-01	 3.29427000E-03
					-7.18916000E-04	-1.28235000E-01	 8.02480000E-03
					 8.59610000E-04	-1.36199000E-01	-1.02600000E-02
					 8.42355000E-04	-1.36996000E-01	-1.02497000E-02
					 7.05792000E-04	-1.27364000E-01	-1.03198000E-02
					 4.73558000E-04	-1.36260000E-01	-5.80131000E-03
					 8.49938000E-04	-1.36587000E-01	-1.02291000E-02
					 8.01038000E-04	-1.28066000E-01	-1.03240000E-02
					 4.34005000E-04	-1.37063000E-01	-5.78484000E-03
					-1.79053000E-05	-1.38014000E-01	-1.32503000E-03
					-8.42529000E-04	-1.38125000E-01	 7.79732000E-03
					 1.70370000E-06	-1.37585000E-01	-1.28225000E-03
					-8.27521000E-04	-1.37698000E-01	 7.81436000E-03
					 4.73731000E-05	-1.28981000E-01	-1.23678000E-03
					-4.27919000E-04	-1.38074000E-01	 3.25321000E-03
					-7.89539000E-04	-1.29036000E-01	 8.00628000E-03
					 8.40930000E-04	-1.37883000E-01	-1.03664000E-02
					 8.42401000E-04	-1.37433000E-01	-1.02990000E-02
					 9.02455000E-04	-1.28880000E-01	-1.04182000E-02
					 3.99116000E-04	-1.37943000E-01	-5.88070000E-03
					 0.00000000E+00	 0.00000000E+00	 0.00000000E+00
					 0.00000000E+00	 0.00000000E+00	 0.00000000E+00
					 1.48120000E-05	-1.10188000E-02	-2.15355000E-04
					-2.91005000E-03	-1.18674000E-02	 1.16518000E-02
					 0.00000000E+00	 0.00000000E+00	 0.00000000E+00
					 0.00000000E+00	 0.00000000E+00	 0.00000000E+00
					-9.18475000E-06	-1.31361000E-02	-2.73898000E-04
					-1.35424000E-03	-1.40311000E-02	 1.17228000E-02
					 0.00000000E+00	 0.00000000E+00	 0.00000000E+00
					 3.02397000E-05	-1.96532000E-03	-7.38234000E-05
					-1.45183000E-03	-1.11715000E-02	 5.72149000E-03
					-2.39535000E-03	-3.03619000E-03	 5.90772000E-03
					 0.00000000E+00	 0.00000000E+00	 0.00000000E+00
					 0.00000000E+00	 0.00000000E+00	 0.00000000E+00
					 4.14482000E-06	-1.23427000E-02	-2.49772000E-04
					-2.11806000E-03	-1.32102000E-02	 1.15564000E-02
					 0.00000000E+00	 0.00000000E+00	 0.00000000E+00
					-2.59464000E-06	-3.41580000E-03	-9.44438000E-05
					-6.82602000E-04	-1.32983000E-02	 5.59190000E-03
					-6.48445000E-04	-4.46290000E-03	 5.71899000E-03
					 0.00000000E+00	 0.00000000E+00	 0.00000000E+00
					 2.92435000E-03	-1.15630000E-02	-1.21338000E-02
					 0.00000000E+00	 0.00000000E+00	 0.00000000E+00
					 1.33849000E-03	-1.37345000E-02	-1.23232000E-02
					 0.00000000E+00	 0.00000000E+00	 0.00000000E+00
					 2.44834000E-03	-2.94793000E-03	-6.07680000E-03
					 1.47473000E-03	-1.10132000E-02	-6.16760000E-03
					 0.00000000E+00	 0.00000000E+00	 0.00000000E+00
					 2.12587000E-03	-1.29094000E-02	-1.21077000E-02
					 0.00000000E+00	 0.00000000E+00	 0.00000000E+00
					 6.48474000E-04	-4.39285000E-03	-5.92193000E-03
					 6.63048000E-04	-1.31500000E-02	-6.15674000E-03
					 0.00000000E+00	 0.00000000E+00	 0.00000000E+00
					 0.00000000E+00	 0.00000000E+00	 0.00000000E+00
					-3.97011000E-05	-1.37070000E-02	-2.92417000E-04
					 2.04857000E-04	-1.45394000E-02	 1.15783000E-02
					 0.00000000E+00	 0.00000000E+00	 0.00000000E+00
					 0.00000000E+00	 0.00000000E+00	 0.00000000E+00
					-2.31059000E-05	-1.36837000E-02	-2.88842000E-04
					-5.85453000E-04	-1.45479000E-02	 1.17723000E-02
					 0.00000000E+00	 0.00000000E+00	 0.00000000E+00
					-4.11410000E-05	-3.26177000E-03	-1.02915000E-04
					 8.22799000E-05	-1.38458000E-02	 5.38924000E-03
					 1.14340000E-03	-4.26870000E-03	 5.87821000E-03
					 0.00000000E+00	 0.00000000E+00	 0.00000000E+00
					-2.67927000E-04	-1.42466000E-02	-1.22029000E-02
					 0.00000000E+00	 0.00000000E+00	 0.00000000E+00
					 5.41268000E-04	-1.42515000E-02	-1.23976000E-02
					 0.00000000E+00	 0.00000000E+00	 0.00000000E+00
					-1.21085000E-03	-4.20139000E-03	-6.10146000E-03
					-1.53871000E-04	-1.37034000E-02	-5.98477000E-03
					 2.31394000E-05	-4.51068000E-02	-9.66268000E-04
					-3.81916000E-03	-4.60978000E-02	 2.03057000E-02
					 5.98626000E-06	-4.83339000E-02	-1.06795000E-03
					-2.64786000E-03	-4.93517000E-02	 2.02523000E-02
					 1.47130000E-05	-2.56133000E-02	-4.99494000E-04
					-1.89185000E-03	-4.54703000E-02	 9.61693000E-03
					-3.45930000E-03	-2.66092000E-02	 1.64622000E-02
					 1.56941000E-05	-4.68491000E-02	-1.02734000E-03
					-3.23567000E-03	-4.78574000E-02	 2.02300000E-02
					-1.16359000E-05	-2.83646000E-02	-5.86768000E-04
					-1.31608000E-03	-4.87136000E-02	 9.49785000E-03
					-2.06049000E-03	-2.93726000E-02	 1.64323000E-02
					 3.84252000E-03	-4.52046000E-02	-2.22986000E-02
					 2.64496000E-03	-4.84460000E-02	-2.24518000E-02
					 3.46063000E-03	-2.60397000E-02	-1.75325000E-02
					 1.92941000E-03	-4.50300000E-02	-1.15640000E-02
					 3.24883000E-03	-4.69633000E-02	-2.23419000E-02
					 2.02914000E-03	-2.87929000E-02	-1.76734000E-02
					 1.32730000E-03	-4.82668000E-02	-1.16456000E-02
					-2.09380000E-05	-5.04006000E-02	-1.11405000E-03
					-1.48023000E-03	-5.13991000E-02	 2.01510000E-02
					-7.84984000E-06	-4.94968000E-02	-1.09476000E-03
					-2.06152000E-03	-5.05404000E-02	 2.02983000E-02
					-4.47013000E-05	-2.97019000E-02	-6.22560000E-04
					-7.57076000E-04	-5.07623000E-02	 9.32472000E-03
					-6.82140000E-04	-3.07132000E-02	 1.63411000E-02
					 1.46908000E-03	-5.05130000E-02	-2.24446000E-02
					 2.05478000E-03	-4.96057000E-02	-2.25573000E-02
					 6.14376000E-04	-3.01445000E-02	-1.76479000E-02
					 7.24519000E-04	-5.03337000E-02	-1.15631000E-02
					 1.70316000E-04	-9.55260000E-02	-2.43541000E-03
					-3.79520000E-03	-9.65136000E-02	 2.47890000E-02
					 1.61474000E-04	-9.91523000E-02	-2.49993000E-03
					-3.17110000E-03	-1.00254000E-01	 2.47874000E-02
					 7.32460000E-05	-6.86824000E-02	-1.61736000E-03
					-1.80704000E-03	-9.59327000E-02	 1.10422000E-02
					-3.92716000E-03	-6.97100000E-02	 2.30712000E-02
					 1.65279000E-04	-9.74216000E-02	-2.47004000E-03
					-3.48693000E-03	-9.84810000E-02	 2.47882000E-02
					 5.81667000E-05	-7.22095000E-02	-1.71193000E-03
					-1.52937000E-03	-9.96185000E-02	 1.10002000E-02
					-3.01623000E-03	-7.32625000E-02	 2.30380000E-02
					 4.10720000E-03	-9.50779000E-02	-2.96774000E-02
					 3.49911000E-03	-9.87255000E-02	-2.98413000E-02
					 4.06342000E-03	-6.85059000E-02	-2.63520000E-02
					 2.13793000E-03	-9.52294000E-02	-1.59099000E-02
					 3.80170000E-03	-9.69780000E-02	-2.97759000E-02
					 3.13692000E-03	-7.20391000E-02	-2.65156000E-02
					 1.83222000E-03	-9.88723000E-02	-1.60286000E-02
					 1.55792000E-04	-1.02185000E-01	-2.52552000E-03
					-2.64977000E-03	-1.03408000E-01	 2.46893000E-02
					 1.58253000E-04	-1.00761000E-01	-2.51955000E-03
					-2.91431000E-03	-1.01797000E-01	 2.48073000E-02
					 5.10836000E-05	-7.48316000E-02	-1.75667000E-03
					-1.21606000E-03	-1.02713000E-01	 1.08660000E-02
					-2.15644000E-03	-7.59175000E-02	 2.29241000E-02
					 2.91770000E-03	-1.01789000E-01	-2.98222000E-02
					 3.20721000E-03	-1.00327000E-01	-2.99032000E-02
					 2.22802000E-03	-7.46726000E-02	-2.64987000E-02
					 1.52878000E-03	-1.01933000E-01	-1.59694000E-02
					 6.01898000E-04	-1.54240000E-01	-4.34613000E-03
					-3.02176000E-03	-1.54965000E-01	 2.46934000E-02