<?xml version="1.0"?>
<VTKFile type="UnstructuredGrid" version="0.1" byte_order="LittleEndian">
	<UnstructuredGrid>
		<Piece NumberOfPoints="522" NumberOfCells="64">
			<Points>
				<DataArray type="Float64" NumberOfComponents="3" format="ascii">
					 1.00000000E+00	 1.00000000E+00	-5.96046000E-08
					 1.00000000E+00	 5.00000000E-01	-5.96046000E-08
					 1.00000000E+00	 5.00000000E-01	 1.00000000E+00
					 1.00000000E+00	 1.00000000E+00	 1.00000000E+00
					 5.00000000E-01	 1.00000000E+00	-5.96046000E-08
					 5.00000000E-01	 5.00000000E-01	-5.96046000E-08
					 5.00000000E-01	 5.00000000E-01	 1.00000000E+00
					 5.00000000E-01	 1.00000000E+00	 1.00000000E+00
					 1.00000000E+00	 7.50000000E-01	-5.96046000E-08
					 1.00000000E+00	 5.00000000E-01	 5.00000000E-01
					 1.00000000E+00	 7.50000000E-01	 1.00000000E+00
					 1.00000000E+00	 1.00000000E+00	 5.00000000E-01
					 7.50000000E-01	 1.00000000E+00	-5.96046000E-08
					 7.50000000E-01	 5.00000000E-01	-5.96046000E-08
					 7.50000000E-01	 5.00000000E-01	 1.00000000E+00
					 7.50000000E-01	 1.00000000E+00	 1.00000000E+00
					 5.00000000E-01	 7.50000000E-01	-5.96046000E-08
					 5.00000000E-01	 5.00000000E-01	 5.00000000E-01
					 5.00000000E-01	 7.50000000E-01	 1.00000000E+00
					 5.00000000E-01	 1.00000000E+00	 5.00000000E-01
					 1.00000000E+00	-1.49012000E-08	-5.96046000E-08
					 1.00000000E+00	-1.49012000E-08	 1.00000000E+00
					 5.00000000E-01	-1.49012000E-08	-5.96046000E-08
					 5.00000000E-01	-1.49012000E-08	 1.00000000E+00
					 1.00000000E+00	 2.50000000E-01	-5.96046000E-08
					 1.00000000E+00	-1.49012000E-08	 5.00000000E-01
					 1.00000000E+00	 2.50000000E-01	 1.00000000E+00
					 7.50000000E-01	-1.49012000E-08	-5.96046000E-08
					 7.50000000E-01	-1.49012000E-08	 1.00000000E+00
					 5.00000000E-01	 2.50000000E-01	-5.96046000E-08
					 5.00000000E-01	-1.49012000E-08	 5.00000000E-01
					 5.00000000E-01	 2.50000000E-01	 1.00000000E+00
					-7.45058000E-09	 1.00000000E+00	-5.96046000E-08
					-7.45058000E-09	 5.00000000E-01	-5.96046000E-08
					-7.45058000E-09	 5.00000000E-01	 1.00000000E+00
					-7.45058000E-09	 1.00000000E+00	 1.00000000E+00
					 2.50000000E-01	 1.00000000E+00	-5.96046000E-08
					 2.50000000E-01	 5.00000000E-01	-5.96046000E-08
					 2.50000000E-01	 5.00000000E-01	 1.00000000E+00
					 2.50000000E-01	 1.00000000E+00	 1.00000000E+00
					-7.45058000E-09	 7.50000000E-01	-5.96046000E-08
					-7.45058000E-09	 5.00000000E-01	 5.00000000E-01
					-7.45058000E-09	 7.50000000E-01	 1.00000000E+00
					-7.45058000E-09	 1.00000000E+00	 5.00000000E-01
					-7.45058000E-09	-1.49012000E-08	-5.96046000E-08
					-7.45058000E-09	-1.49012000E-08	 1.00000000E+00
					 2.50000000E-01	-1.49012000E-08	-5.96046000E-08
					 2.50000000E-01	-1.49012000E-08	 1.00000000E+00
					-7.45058000E-09	 2.50000000E-01	-5.96046000E-08
					-7.45058000E-09	-1.49012000E-08	 5.00000000E-01
					-7.45058000E-09	 2.50000000E-01	 1.00000000E+00
					 1.00000000E+00	 5.00000000E-01	 2.00000000E+00
					 1.00000000E+00	 1.00000000E+00	 2.00000000E+00
					 5.00000000E-01	 5.00000000E-01	 2.00000000E+00
					 5.00000000E-01	 1.00000000E+00	 2.00000000E+00
					 1.00000000E+00	 5.00000000E-01	 1.50000000E+00
					 1.00000000E+00	 7.50000000E-01	 2.00000000E+00
					 1.00000000E+00	 1.00000000E+00	 1.50000000E+00
					 7.50000000E-01	 5.00000000E-01	 2.00000000E+00
					 7.50000000E-01	 1.00000000E+00	 2.00000000E+00
					 5.00000000E-01	 5.00000000E-01	 1.50000000E+00
					 5.00000000E-01	 7.50000000E-01	 2.00000000E+00
					 5.00000000E-01	 1.00000000E+00	 1.50000000E+00
					 1.00000000E+00	-1.49012000E-08	 2.00000000E+00
					 5.00000000E-01	-1.49012000E-08	 2.00000000E+00
					 1.00000000E+00	-1.49012000E-08	 1.50000000E+00
					 1.00000000E+00	 2.50000000E-01	 2.00000000E+00
					 7.50000000E-01	-1.49012000E-08	 2.00000000E+00
					 5.00000000E-01	-1.49012000E-08	 1.50000000E+00
					 5.00000000E-01	 2.50000000E-01	 2.00000000E+00
					-7.45058000E-09	 5.00000000E-01	 2.00000000E+00
					-7.45058000E-09	 1.00000000E+00	 2.00000000E+00
					 2.50000000E-01	 5.00000000E-01	 2.00000000E+00
					 2.50000000E-01	 1.00000000E+00	 2.00000000E+00
					-7.45058000E-09	 5.00000000E-01	 1.50000000E+00
					-7.45058000E-09	 7.50000000E-01	 2.00000000E+00
					-7.45058000E-09	 1.00000000E+00	 1.50000000E+00
					-7.45058000E-09	-1.49012000E-08	 2.00000000E+00
					 2.50000000E-01	-1.49012000E-08	 2.00000000E+00
					-7.45058000E-09	-1.49012000E-08	 1.50000000E+00
					-7.45058000E-09	 2.50000000E-01	 2.00000000E+00
					 1.00000000E+00	 5.00000000E-01	 3.00000000E+00
					 1.00000000E+00	 1.00000000E+00	 3.00000000E+00
					 5.00000000E-01	 5.00000000E-01	 3.00000000E+00
					 5.00000000E-01	 1.00000000E+00	 3.00000000E+00
					 1.00000000E+00	 5.00000000E-01	 2.50000000E+00
					 1.00000000E+00	 7.50000000E-01	 3.00000000E+00
					 1.00000000E+00	 1.00000000E+00	 2.50000000E+00
					 7.50000000E-01	 5.00000000E-01	 3.00000000E+00
					 7.50000000E-01	 1.00000000E+00	 3.00000000E+00
					 5.00000000E-01	 5.00000000E-01	 2.50000000E+00
					 5.00000000E-01	 7.50000000E-01	 3.00000000E+00
					 5.00000000E-01	 1.00000000E+00	 2.50000000E+00
					 1.00000000E+00	-1.49012000E-08	 3.00000000E+00
					 5.00000000E-01	-1.49012000E-08	 3.00000000E+00
					 1.00000000E+00	-1.49012000E-08	 2.50000000E+00
					 1.00000000E+00	 2.50000000E-01	 3.00000000E+00
					 7.50000000E-01	-1.49012000E-08	 3.00000000E+00
					 5.00000000E-01	-1.49012000E-08	 2.50000000E+00
					 5.00000000E-01	 2.50000000E-01	 3.00000000E+00
					-7.45058000E-09	 5.00000000E-01	 3.00000000E+00
					-7.45058000E-09	 1.00000000E+00	 3.00000000E+00
					 2.50000000E-01	 5.00000000E-01	 3.00000000E+00
					 2.50000000E-01	 1.00000000E+00	 3.00000000E+00
					-7.45058000E-09	 5.00000000E-01	 2.50000000E+00
					-7.45058000E-09	 7.50000000E-01	 3.00000000E+00
					-7.45058000E-09	 1.00000000E+00	 2.50000000E+00
					-7.45058000E-09	-1.49012000E-08	 3.00000000E+00
					 2.50000000E-01	-1.49012000E-08	 3.00000000E+00
					-7.45058000E-09	-1.49012000E-08	 2.50000000E+00
					-7.45058000E-09	 2.50000000E-01	 3.00000000E+00
					 1.00000000E+00	 5.00000000E-01	 4.00000000E+00
					 1.00000000E+00	 1.00000000E+00	 4.00000000E+00
					 5.00000000E-01	 5.00000000E-01	 4.00000000E+00
					 5.00000000E-01	 1.00000000E+00	 4.00000000E+00
					 1.00000000E+00	 5.00000000E-01	 3.50000000E+00
					 1.00000000E+00	 7.50000000E-01	 4.00000000E+00
					 1.00000000E+00	 1.00000000E+00	 3.50000000E+00
					 7.50000000E-01	 5.00000000E-01	 4.00000000E+00
					 7.50000000E-01	 1.00000000E+00	 4.00000000E+00
					 5.00000000E-01	 5.00000000E-01	 3.50000000E+00
					 5.00000000E-01	 7.50000000E-01	 4.00000000E+00
					 5.00000000E-01	 1.00000000E+00	 3.50000000E+00
					 1.00000000E+00	-1.49012000E-08	 4.00000000E+00
					 5.00000000E-01	-1.49012000E-08	 4.00000000E+00
					 1.00000000E+00	-1.49012000E-08	 3.50000000E+00
					 1.00000000E+00	 2.50000000E-01	 4.00000000E+00
					 7.50000000E-01	-1.49012000E-08	 4.00000000E+00
					 5.00000000E-01	-1.49012000E-08	 3.50000000E+00
					 5.00000000E-01	 2.50000000E-01	 4.00000000E+00
					-7.45058000E-09	 5.00000000E-01	 4.00000000E+00
					-7.45058000E-09	 1.00000000E+00	 4.00000000E+00
					 2.50000000E-01	 5.00000000E-01	 4.00000000E+00
					 2.50000000E-01	 1.00000000E+00	 4.00000000E+00
					-7.45058000E-09	 5.00000000E-01	 3.50000000E+00
					-7.45058000E-09	 7.50000000E-01	 4.00000000E+00
					-7.45058000E-09	 1.00000000E+00	 3.50000000E+00
					-7.45058000E-09	-1.49012000E-08	 4.00000000E+00
					 2.50000000E-01	-1.49012000E-08	 4.00000000E+00
					-7.45058000E-09	-1.49012000E-08	 3.50000000E+00
					-7.45058000E-09	 2.50000000E-01	 4.00000000E+00
					 1.00000000E+00	 5.00000000E-01	 5.00000000E+00
					 1.00000000E+00	 1.00000000E+00	 5.00000000E+00
					 5.00000000E-01	 5.00000000E-01	 5.00000000E+00
					 5.00000000E-01	 1.00000000E+00	 5.00000000E+00
					 1.00000000E+00	 5.00000000E-01	 4.50000000E+00
					 1.00000000E+00	 7.50000000E-01	 5.00000000E+00
					 1.00000000E+00	 1.00000000E+00	 4.50000000E+00
					 7.50000000E-01	 5.00000000E-01	 5.00000000E+00
					 7.50000000E-01	 1.00000000E+00	 5.00000000E+00
					 5.00000000E-01	 5.00000000E-01	 4.50000000E+00
					 5.00000000E-01	 7.50000000E-01	 5.00000000E+00
					 5.00000000E-01	 1.00000000E+00	 4.50000000E+00
					 1.00000000E+00	-1.49012000E-08	 5.00000000E+00
					 5.00000000E-01	-1.49012000E-08	 5.00000000E+00
					 1.00000000E+00	-1.49012000E-08	 4.50000000E+00
					 1.00000000E+00	 2.50000000E-01	 5.00000000E+00
					 7.50000000E-01	-1.49012000E-08	 5.00000000E+00
					 5.00000000E-01	-1.49012000E-08	 4.50000000E+00
					 5.00000000E-01	 2.50000000E-01	 5.00000000E+00
					-7.45058000E-09	 5.00000000E-01	 5.00000000E+00
					-7.45058000E-09	 1.00000000E+00	 5.00000000E+00
					 2.50000000E-01	 5.00000000E-01	 5.00000000E+00
					 2.50000000E-01	 1.00000000E+00	 5.00000000E+00
					-7.45058000E-09	 5.00000000E-01	 4.50000000E+00
					-7.45058000E-09	 7.50000000E-01	 5.00000000E+00
					-7.45058000E-09	 1.00000000E+00	 4.50000000E+00
					-7.45058000E-09	-1.49012000E-08	 5.00000000E+00
					 2.50000000E-01	-1.49012000E-08	 5.00000000E+00
					-7.45058000E-09	-1.49012000E-08	 4.50000000E+00
					-7.45058000E-09	 2.50000000E-01	 5.00000000E+00
					 1.00000000E+00	 5.00000000E-01	 6.00000000E+00
					 1.00000000E+00	 1.00000000E+00	 6.00000000E+00
					 5.00000000E-01	 5.00000000E-01	 6.00000000E+00
					 5.00000000E-01	 1.00000000E+00	 6.00000000E+00
					 1.00000000E+00	 5.00000000E-01	 5.50000000E+00
					 1.00000000E+00	 7.50000000E-01	 6.00000000E+00
					 1.00000000E+00	 1.00000000E+00	 5.50000000E+00
					 7.50000000E-01	 5.00000000E-01	 6.00000000E+00
					 7.50000000E-01	 1.00000000E+00	 6.00000000E+00
					 5.00000000E-01	 5.00000000E-01	 5.50000000E+00
					 5.00000000E-01	 7.50000000E-01	 6.00000000E+00
					 5.00000000E-01	 1.00000000E+00	 5.50000000E+00
					 1.00000000E+00	-1.49012000E-08	 6.00000000E+00
[...]
			<PointData>
				<DataArray type="Float32" Name="U" NumberOfComponents="3" ComponentName0="D1" ComponentName1="D2" ComponentName2="D3" format="ascii">
					 0.00000000E+00	 0.00000000E+00	 0.00000000E+00
					 0.00000000E+00	 0.00000000E+00	 0.00000000E+00
					 9.20296000E-06	-1.77996000E-03	-3.93333000E-06
					-9.44937000E-04	-2.07545000E-03	 3.31742000E-03
					 0.00000000E+00	 0.00000000E+00	 0.00000000E+00
					 0.00000000E+00	 0.00000000E+00	 0.00000000E+00
					 7.29799000E-06	-2.42015000E-03	-4.87249000E-06
					-3.45345000E-04	-2.73247000E-03	 3.32507000E-03
					 0.00000000E+00	 0.00000000E+00	 0.00000000E+00
					 3.23745000E-06	 8.39925000E-05	-1.53153000E-06
					-4.68534000E-04	-1.83547000E-03	 1.74307000E-03
					-6.35699000E-04	-2.18976000E-04	 1.45192000E-03
					 0.00000000E+00	 0.00000000E+00	 0.00000000E+00
					 0.00000000E+00	 0.00000000E+00	 0.00000000E+00
					 9.00303000E-06	-2.19134000E-03	-4.27093000E-06
					-6.42468000E-04	-2.49409000E-03	 3.26542000E-03
					 0.00000000E+00	 0.00000000E+00	 0.00000000E+00
					 2.10279000E-07	-2.96028000E-04	-6.61700000E-07
					-1.68607000E-04	-2.48114000E-03	 1.69223000E-03
					-1.45118000E-04	-5.88562000E-04	 1.38611000E-03
					 0.00000000E+00	 0.00000000E+00	 0.00000000E+00
					 9.56685000E-04	-2.04760000E-03	-3.33023000E-03
					 0.00000000E+00	 0.00000000E+00	 0.00000000E+00
					 3.57856000E-04	-2.69986000E-03	-3.33903000E-03
					 0.00000000E+00	 0.00000000E+00	 0.00000000E+00
					 6.38499000E-04	-2.09099000E-04	-1.45447000E-03
					 4.84986000E-04	-1.82014000E-03	-1.75304000E-03
					 0.00000000E+00	 0.00000000E+00	 0.00000000E+00
					 6.55904000E-04	-2.46318000E-03	-3.27843000E-03
					 0.00000000E+00	 0.00000000E+00	 0.00000000E+00
					 1.45084000E-04	-5.76363000E-04	-1.38481000E-03
					 1.82446000E-04	-2.46284000E-03	-1.70363000E-03
					 0.00000000E+00	 0.00000000E+00	 0.00000000E+00
					 0.00000000E+00	 0.00000000E+00	 0.00000000E+00
					 4.26689000E-06	-2.48123000E-03	-1.87305000E-07
					 2.61304000E-04	-2.77060000E-03	 3.32173000E-03
					 0.00000000E+00	 0.00000000E+00	 0.00000000E+00
					 0.00000000E+00	 0.00000000E+00	 0.00000000E+00
					 5.29925000E-06	-2.53996000E-03	-3.99330000E-06
					-4.39525000E-05	-2.84389000E-03	 3.34437000E-03
					 0.00000000E+00	 0.00000000E+00	 0.00000000E+00
					-3.11648000E-06	-2.04464000E-04	 6.06305000E-07
					 1.30944000E-04	-2.53306000E-03	 1.66766000E-03
					 3.62203000E-04	-4.90247000E-04	 1.45396000E-03
					 0.00000000E+00	 0.00000000E+00	 0.00000000E+00
					-2.49610000E-04	-2.73857000E-03	-3.32510000E-03
					 0.00000000E+00	 0.00000000E+00	 0.00000000E+00
					 5.49659000E-05	-2.81028000E-03	-3.35585000E-03
					 0.00000000E+00	 0.00000000E+00	 0.00000000E+00
					-3.64526000E-04	-4.79659000E-04	-1.44952000E-03
					-1.21511000E-04	-2.51542000E-03	-1.66910000E-03
					 1.85856000E-05	-1.23101000E-02	-5.38722000E-05
					-1.38461000E-03	-1.26188000E-02	 7.30100000E-03
					 2.13376000E-05	-1.34423000E-02	-6.42272000E-05
					-8.59731000E-04	-1.37591000E-02	 7.31649000E-03
					 1.51764000E-05	-5.89017000E-03	-1.77952000E-05
					-6.79810000E-04	-1.24001000E-02	 3.59112000E-03
					-1.20907000E-03	-6.20268000E-03	 5.39682000E-03
					 1.98423000E-05	-1.29381000E-02	-5.99570000E-05
					-1.12156000E-03	-1.32540000E-02	 7.28911000E-03
					 1.55919000E-05	-6.79819000E-03	-2.34210000E-05
					-4.19744000E-04	-1.35355000E-02	 3.57248000E-03
					-5.95499000E-04	-7.12123000E-03	 5.40476000E-03
					 1.42301000E-03	-1.24969000E-02	-7.41712000E-03
					 9.03418000E-04	-1.36409000E-02	-7.45414000E-03
					 1.23449000E-03	-6.13686000E-03	-5.43897000E-03
					 7.16950000E-04	-1.23394000E-02	-3.70095000E-03
					 1.16328000E-03	-1.31349000E-02	-7.41703000E-03
					 6.24976000E-04	-7.05318000E-03	-5.45909000E-03
					 4.62560000E-04	-1.34781000E-02	-3.70260000E-03
					 2.29441000E-05	-1.40718000E-02	-6.66743000E-05
					-3.36608000E-04	-1.43800000E-02	 7.29045000E-03
					 2.27033000E-05	-1.38197000E-02	-6.67352000E-05
					-5.98950000E-04	-1.41343000E-02	 7.35895000E-03
					 1.43762000E-05	-7.11007000E-03	-1.99239000E-05
					-1.58789000E-04	-1.41607000E-02	 3.50507000E-03
					 1.60995000E-05	-7.42406000E-03	 5.39443000E-03
					 3.83403000E-04	-1.42636000E-02	-7.43273000E-03
					 6.44282000E-04	-1.40158000E-02	-7.50190000E-03
					 1.40820000E-05	-7.35672000E-03	-5.44199000E-03
					 2.05288000E-04	-1.41051000E-02	-3.63991000E-03
					 3.68087000E-05	-3.02121000E-02	-1.99598000E-04
					-1.57871000E-03	-3.04558000E-02	 9.71378000E-03
					 4.11152000E-05	-3.17059000E-02	-2.24440000E-04
					-1.32181000E-03	-3.19415000E-02	 9.71239000E-03
					 2.83686000E-05	-2.06377000E-02	-1.16052000E-04
					-7.74084000E-04	-3.03015000E-02	 4.74076000E-03
					-1.47557000E-03	-2.09176000E-02	 8.71331000E-03
					 3.91566000E-05	-3.09915000E-02	-2.13004000E-04
					-1.44811000E-03	-3.12274000E-02	 9.68898000E-03
					 3.12547000E-05	-2.19526000E-02	-1.32095000E-04
					-6.39603000E-04	-3.17904000E-02	 4.70379000E-03
					-1.09713000E-03	-2.22305000E-02	 8.72993000E-03
					 1.65443000E-03	-3.02483000E-02	-1.01198000E-02
					 1.40381000E-03	-3.17373000E-02	-1.01675000E-02
					 1.53585000E-03	-2.07487000E-02	-8.95505000E-03
					 8.47828000E-04	-3.01986000E-02	-5.14162000E-03
					 1.52817000E-03	-3.10229000E-02	-1.01217000E-02
					 1.16076000E-03	-2.20670000E-02	-9.00310000E-03
					 7.21397000E-04	-3.16906000E-02	-5.15442000E-03
					 4.27938000E-05	-3.29406000E-02	-2.42084000E-04
					-1.05867000E-03	-3.31743000E-02	 9.67654000E-03
					 4.23948000E-05	-3.23556000E-02	-2.33919000E-04
					-1.19117000E-03	-3.25901000E-02	 9.73646000E-03
					 3.24945000E-05	-2.28953000E-02	-1.41913000E-04
					-5.06343000E-04	-3.30237000E-02	 4.63763000E-03
					-7.22119000E-04	-2.31757000E-02	 8.69387000E-03
					 1.14194000E-03	-3.29698000E-02	-1.01669000E-02
					 1.27375000E-03	-3.23848000E-02	-1.02111000E-02
					 7.86337000E-04	-2.30129000E-02	-8.98594000E-03
					 5.91131000E-04	-3.29242000E-02	-5.12288000E-03
					 4.25809000E-05	-5.12472000E-02	-4.07127000E-04
					-2.18740000E-03	-5.14434000E-02	 1.07625000E-02
					 4.81568000E-05	-5.34202000E-02	-4.51353000E-04
					-2.06384000E-03	-5.36133000E-02	 1.07341000E-02
					 3.89528000E-05	-4.05091000E-02	-2.97741000E-04
					-1.07259000E-03	-5.13312000E-02	 5.21800000E-03
					-1.80203000E-03	-4.07340000E-02	 1.03584000E-02
					 4.59175000E-05	-5.23494000E-02	-4.28646000E-04
					-2.12608000E-03	-5.25417000E-02	 1.06780000E-02
					 4.45987000E-05	-4.22680000E-02	-3.31844000E-04
					-1.00693000E-03	-5.35016000E-02	 5.11002000E-03
					-1.62033000E-03	-4.24822000E-02	 1.03399000E-02
					 2.26510000E-03	-5.11851000E-02	-1.15794000E-02
					 2.16086000E-03	-5.33491000E-02	-1.16385000E-02
					 1.87772000E-03	-4.04980000E-02	-1.09581000E-02
					 1.15586000E-03	-5.12009000E-02	-6.03261000E-03
					 2.21236000E-03	-5.22813000E-02	-1.15380000E-02
					 1.71026000E-03	-4.22452000E-02	-1.10081000E-02
					 1.10329000E-03	-5.33694000E-02	-6.01301000E-03
					 5.22912000E-05	-5.54722000E-02	-4.96428000E-04
					-1.92877000E-03	-5.56536000E-02	 1.06763000E-02
					 4.99805000E-05	-5.44608000E-02	-4.74259000E-04
					-1.99475000E-03	-5.46534000E-02	 1.07900000E-02
					 4.80082000E-05	-4.38418000E-02	-3.60334000E-04
					-9.40920000E-04	-5.55444000E-02	 4.97504000E-03
					-1.42034000E-03	-4.40437000E-02	 1.02982000E-02
					 2.04246000E-03	-5.54005000E-02	-1.16692000E-02
					 2.10165000E-03	-5.43892000E-02	-1.17392000E-02
					 1.52037000E-03	-4.38131000E-02	-1.10236000E-02
					 1.04804000E-03	-5.54239000E-02	-5.96772000E-03
					 5.66930000E-05	-7.33894000E-02	-6.49566000E-04
					-3.24002000E-03	-7.35242000E-02	 1.08593000E-02
					 6.37275000E-05	-7.66957000E-02	-7.23825000E-04
					-3.25153000E-03	-7.68328000E-02	 1.07980000E-02
					 5.09783000E-05	-6.22609000E-02	-5.26155000E-04
					-1.59145000E-03	-7.34617000E-02	 5.16332000E-03
					-2.69182000E-03	-6.24270000E-02	 1.09232000E-02
					 6.13041000E-05	-7.50393000E-02	-6.86248000E-04
					-3.24489000E-03	-7.51733000E-02	 1.07435000E-02
					 5.59436000E-05	-6.49775000E-02	-5.83796000E-04
					-1.59346000E-03	-7.67684000E-02	 5.00903000E-03
					-2.63567000E-03	-6.51445000E-02	 1.08838000E-02
					 3.34612000E-03	-7.32382000E-02	-1.21555000E-02
					 3.37273000E-03	-7.65385000E-02	-1.22430000E-02
					 2.78447000E-03	-6.21534000E-02	-1.19758000E-02
					 1.70218000E-03	-7.33161000E-02	-6.46167000E-03
					 3.36056000E-03	-7.48867000E-02	-1.21127000E-02
					 2.74373000E-03	-6.48617000E-02	-1.20496000E-02
					 1.71855000E-03	-7.66214000E-02	-6.45560000E-03
					 6.87797000E-05	-8.00131000E-02	-7.98499000E-04
					-3.26527000E-03	-8.01562000E-02	 1.07125000E-02
					 6.58934000E-05	-7.83519000E-02	-7.61688000E-04
					-3.25916000E-03	-7.84931000E-02	 1.08544000E-02
					 5.89803000E-05	-6.76398000E-02	-6.45659000E-04
					-1.59658000E-03	-8.00868000E-02	 4.83142000E-03
					-2.57378000E-03	-6.78032000E-02	 1.08077000E-02
					 3.40027000E-03	-7.98584000E-02	-1.23079000E-02
					 3.38582000E-03	-7.81921000E-02	-1.23756000E-02
					 2.69420000E-03	-6.75227000E-02	-1.20951000E-02
					 1.73351000E-03	-7.99411000E-02	-6.42768000E-03
					 3.23113000E-05	-9.51347000E-02	-8.81172000E-04
					-4.35535000E-03	-9.52468000E-02	 1.02920000E-02
					 4.88493000E-05	-9.95417000E-02	-9.86722000E-04
					-4.37670000E-03	-9.96628000E-02	 1.01843000E-02
					 4.93924000E-05	-8.43735000E-02	-7.66768000E-04
					-2.15915000E-03	-9.51992000E-02	 4.78074000E-03
					-3.81073000E-03	-8.44962000E-02	 1.05980000E-02
					 4.12761000E-05	-9.73303000E-02	-9.35378000E-04
					-4.36781000E-03	-9.74481000E-02	 1.01641000E-02
					 6.14601000E-05	-8.82570000E-02	-8.59010000E-04
					-2.16324000E-03	-9.96111000E-02	 4.60203000E-03
					-3.84421000E-03	-8.83842000E-02	 1.05085000E-02
					 4.40780000E-03	-9.49642000E-02	-1.20529000E-02
					 4.47131000E-03	-9.93682000E-02	-1.21556000E-02
					 3.90287000E-03	-8.42068000E-02	-1.21299000E-02
					 2.22053000E-03	-9.50552000E-02	-6.54210000E-03
					 4.44063000E-03	-9.71600000E-02	-1.20341000E-02
					 3.96386000E-03	-8.80877000E-02	-1.22262000E-02
					 2.25965000E-03	-9.94621000E-02	-6.57505000E-03
					 6.45970000E-05	-1.03988000E-01	-1.09472000E-03
					-4.40864000E-03	-1.04114000E-01	 1.00797000E-02
					 5.60965000E-05	-1.01760000E-01	-1.03826000E-03
					-4.39140000E-03	-1.01884000E-01	 1.02016000E-02
					 7.29528000E-05	-9.21834000E-02	-9.49327000E-04
					-2.17065000E-03	-1.04057000E-01	 4.42793000E-03
					-3.88656000E-03	-9.23188000E-02	 1.04170000E-02
					 4.54499000E-03	-1.03826000E-01	-1.22660000E-02
					 4.50739000E-03	-1.01588000E-01	-1.22755000E-02
					 4.03536000E-03	-9.20255000E-02	-1.23171000E-02
					 2.30133000E-03	-1.03917000E-01	-6.61633000E-03
					 5.75240000E-06	-1.16385000E-01	-1.10198000E-03
					-5.16812000E-03	-1.16508000E-01	 9.81050000E-03
					 3.14571000E-05	-1.21568000E-01	-1.23175000E-03
					-5.16887000E-03	-1.21702000E-01	 9.67064000E-03
					 1.81891000E-05	-1.05771000E-01	-9.97157000E-04
					-2.57699000E-03	-1.16450000E-01	 4.39943000E-03
					-4.81934000E-03	-1.05886000E-01	 1.00331000E-02
					 2.07960000E-05	-1.18969000E-01	-1.16609000E-03
					-5.16646000E-03	-1.19101000E-01	 9.70319000E-03
					 3.69153000E-05	-1.10618000E-01	-1.11143000E-03
					-2.56566000E-03	-1.21640000E-01	 4.22251000E-03
					-4.82431000E-03	-1.10747000E-01	 9.91613000E-03
					 5.17152000E-03	-1.16211000E-01	-1.20216000E-02
					 5.22053000E-03	-1.21398000E-01	-1.21401000E-02
					 4.84056000E-03	-1.05600000E-01	-1.20244000E-02
					 2.58585000E-03	-1.16299000E-01	-6.60799000E-03
					 5.19796000E-03	-1.18801000E-01	-1.20414000E-02
					 4.89067000E-03	-1.10446000E-01	-1.21348000E-02
					 2.62389000E-03	-1.21486000E-01	-6.68882000E-03
					 5.16613000E-05	-1.26784000E-01	-1.34909000E-03
					-5.18877000E-03	-1.26931000E-01	 9.54284000E-03
					 4.05991000E-05	-1.24176000E-01	-1.29246000E-03
					-5.17965000E-03	-1.24314000E-01	 9.64473000E-03
					 5.21775000E-05	-1.15496000E-01	-1.22780000E-03
					-2.56448000E-03	-1.26864000E-01	 4.05542000E-03
					-4.84413000E-03	-1.15632000E-01	 9.79904000E-03
					 5.28163000E-03	-1.26618000E-01	-1.22458000E-02
					 5.24871000E-03	-1.24005000E-01	-1.22323000E-02
					 4.95029000E-03	-1.15331000E-01	-1.22494000E-02
					 2.66461000E-03	-1.26704000E-01	-6.75777000E-03
					-5.71807000E-05	-1.37699000E-01	-1.29981000E-03
					-5.56921000E-03	-1.37811000E-01	 9.50759000E-03
					 8.60443000E-06	-1.43155000E-01	-1.45397000E-03
					-5.51110000E-03	-1.43268000E-01	 9.30452000E-03
					-1.64942000E-05	-1.26988000E-01	-1.19337000E-03
					-2.82149000E-03	-1.37752000E-01	 4.12229000E-03
					-5.41551000E-03	-1.27123000E-01	 9.63893000E-03
					-2.79183000E-05	-1.40433000E-01	-1.38043000E-03
					-5.54102000E-03	-1.40541000E-01	 9.39938000E-03
					 2.47026000E-05	-1.32389000E-01	-1.34386000E-03
					-2.75919000E-03	-1.43209000E-01	 3.93469000E-03
					-5.39651000E-03	-1.32523000E-01	 9.45837000E-03
					 5.46451000E-03	-1.37565000E-01	-1.21432000E-02
					 5.50695000E-03	-1.43034000E-01	-1.22506000E-02
					 5.38706000E-03	-1.26833000E-01	-1.20563000E-02
					 2.70732000E-03	-1.37636000E-01	-6.73094000E-03
					 5.48141000E-03	-1.40307000E-01	-1.21979000E-02
					 5.42906000E-03	-1.32239000E-01	-1.21740000E-02
					 2.76812000E-03	-1.43098000E-01	-6.85300000E-03
					 6.90472000E-05	-1.48633000E-01	-1.57186000E-03
					-5.48885000E-03	-1.48776000E-01	 9.14795000E-03
					 4.44426000E-05	-1.45885000E-01	-1.51760000E-03
					-5.49895000E-03	-1.46009000E-01	 9.22038000E-03
					 5.95483000E-05	-1.37818000E-01	-1.46170000E-03
					-2.70775000E-03	-1.48706000E-01	 3.79083000E-03
					-5.40553000E-03	-1.37972000E-01	 9.31411000E-03
					 5.58021000E-03	-1.48490000E-01	-1.23288000E-02
					 5.54882000E-03	-1.45757000E-01	-1.22914000E-02
					 5.49296000E-03	-1.37655000E-01	-1.22616000E-02
					 2.83326000E-03	-1.48562000E-01	-6.94661000E-03
					 0.00000000E+00	 0.00000000E+00	 0.00000000E+00
					 0.00000000E+00	 0.00000000E+00	 0.00000000E+00
					 8.81562000E-05	-9.96426000E-03	-1.72471000E-05
					-2.69633000E-03	-1.05863000E-02	 9.77633000E-03
					 0.00000000E+00	 0.00000000E+00	 0.00000000E+00
					 0.00000000E+00	 0.00000000E+00	 0.00000000E+00
					 1.04479000E-04	-1.21746000E-02	-2.17184000E-06
					-1.54591000E-03	-1.28410000E-02	 9.92403000E-03
					 0.00000000E+00	 0.00000000E+00	 0.00000000E+00
					 3.45883000E-05	-2.08979000E-03	 2.16684000E-06
					-1.30707000E-03	-1.00652000E-02	 4.84145000E-03
					-2.25819000E-03	-2.99110000E-03	 5.17076000E-03
					 0.00000000E+00	 0.00000000E+00	 0.00000000E+00
					 0.00000000E+00	 0.00000000E+00	 0.00000000E+00
					 9.75669000E-05	-1.12713000E-02	-1.09890000E-05
					-2.10927000E-03	-1.19106000E-02	 9.72175000E-03
					 0.00000000E+00	 0.00000000E+00	 0.00000000E+00
					 3.62992000E-05	-3.56850000E-03	 1.40818000E-05
					-7.19482000E-04	-1.22873000E-02	 4.78476000E-03
					-7.97260000E-04	-4.46197000E-03	 5.06750000E-03
					 0.00000000E+00	 0.00000000E+00	 0.00000000E+00
					 2.85145000E-03	-1.03315000E-02	-9.84466000E-03
					 0.00000000E+00	 0.00000000E+00	 0.00000000E+00
					 1.75169000E-03	-1.25679000E-02	-9.96587000E-03
					 0.00000000E+00	 0.00000000E+00	 0.00000000E+00
					 2.31139000E-03	-2.88221000E-03	-5.17868000E-03
					 1.47802000E-03	-9.93680000E-03	-4.88826000E-03
					 0.00000000E+00	 0.00000000E+00	 0.00000000E+00
					 2.29304000E-03	-1.16451000E-02	-9.77779000E-03
					 0.00000000E+00	 0.00000000E+00	 0.00000000E+00
					 8.65888000E-04	-4.34262000E-03	-5.04314000E-03
					 9.26873000E-04	-1.21521000E-02	-4.80244000E-03
					 0.00000000E+00	 0.00000000E+00	 0.00000000E+00
					 0.00000000E+00	 0.00000000E+00	 0.00000000E+00
					 1.18241000E-04	-1.32644000E-02	 4.27278000E-05
					-3.83918000E-04	-1.38785000E-02	 9.83813000E-03
					 0.00000000E+00	 0.00000000E+00	 0.00000000E+00
					 0.00000000E+00	 0.00000000E+00	 0.00000000E+00
					 1.10142000E-04	-1.29193000E-02	 1.19567000E-05
					-9.75608000E-04	-1.35597000E-02	 1.00335000E-02
					 0.00000000E+00	 0.00000000E+00	 0.00000000E+00
					 4.29931000E-05	-3.75462000E-03	 4.87827000E-05
					-1.31486000E-04	-1.33560000E-02	 4.61410000E-03
					 7.27402000E-04	-4.60846000E-03	 5.22285000E-03
					 0.00000000E+00	 0.00000000E+00	 0.00000000E+00
					 6.29776000E-04	-1.36108000E-02	-9.78392000E-03
					 0.00000000E+00	 0.00000000E+00	 0.00000000E+00
					 1.19700000E-03	-1.32861000E-02	-1.00467000E-02
					 0.00000000E+00	 0.00000000E+00	 0.00000000E+00
					-6.36712000E-04	-4.47717000E-03	-5.12857000E-03
					 3.72655000E-04	-1.32302000E-02	-4.53710000E-03
					 2.47433000E-04	-3.64738000E-02	-2.42775000E-04
					-3.71960000E-03	-3.71706000E-02	 1.60625000E-02
					 2.83416000E-04	-4.00400000E-02	-2.65218000E-04
					-2.87694000E-03	-4.07326000E-02	 1.60656000E-02
					 1.65350000E-04	-2.16582000E-02	-9.42675000E-05
					-1.73874000E-03	-3.67411000E-02	 7.94191000E-03
					-3.23634000E-03	-2.23948000E-02	 1.32881000E-02
					 2.65613000E-04	-3.83422000E-02	-2.58412000E-04
					-3.29922000E-03	-3.90322000E-02	 1.59791000E-02
					 1.88420000E-04	-2.45769000E-02	-9.50703000E-05
					-1.29269000E-03	-4.03045000E-02	 7.85234000E-03
					-2.24195000E-03	-2.53108000E-02	 1.33313000E-02
					 4.22060000E-03	-3.65443000E-02	-1.65769000E-02
					 3.44377000E-03	-4.01256000E-02	-1.66245000E-02
					 3.55200000E-03	-2.19688000E-02	-1.35142000E-02
					 2.23369000E-03	-3.64257000E-02	-8.43570000E-03
					 3.83641000E-03	-3.84258000E-02	-1.65199000E-02
					 2.61766000E-03	-2.48813000E-02	-1.35607000E-02
					 1.86361000E-03	-4.00052000E-02	-8.38638000E-03
					 3.09261000E-04	-4.27990000E-02	-2.57727000E-04
					-2.02751000E-03	-4.34696000E-02	 1.60432000E-02
					 2.97447000E-04	-4.15030000E-02	-2.63956000E-04
					-2.44895000E-03	-4.22176000E-02	 1.61592000E-02
					 2.07843000E-04	-2.65223000E-02	-6.31601000E-05
					-8.64016000E-04	-4.30444000E-02	 7.73680000E-03
					-1.26129000E-03	-2.72631000E-02	 1.33174000E-02
					 2.67603000E-03	-4.28911000E-02	-1.65889000E-02
					 3.05866000E-03	-4.15897000E-02	-1.67195000E-02
					 1.69965000E-03	-2.68518000E-02	-1.34824000E-02
					 1.49075000E-03	-4.27659000E-02	-8.25505000E-03
					 4.78452000E-04	-7.35462000E-02	-7.83227000E-04
					-4.66091000E-03	-7.42414000E-02	 2.00353000E-02
					 5.26928000E-04	-7.83692000E-02	-8.37711000E-04
					-4.03738000E-03	-7.91805000E-02	 2.00116000E-02
					 3.54078000E-04	-5.38294000E-02	-4.66550000E-04
					-2.08413000E-03	-7.38210000E-02	 9.63679000E-03
					-4.21508000E-03	-5.45600000E-02	 1.83062000E-02
					 5.04268000E-04	-7.60327000E-02	-8.10732000E-04
					-4.35259000E-03	-7.67989000E-02	 1.99334000E-02
					 3.93940000E-04	-5.80510000E-02	-5.10818000E-04
					-1.78050000E-03	-7.87032000E-02	 9.49769000E-03
					-3.47813000E-03	-5.87853000E-02	 1.82919000E-02
					 5.58021000E-03	-7.33212000E-02	-2.16100000E-02
					 5.08976000E-03	-7.81692000E-02	-2.17300000E-02
					 4.92209000E-03	-5.37622000E-02	-1.92672000E-02
					 3.02785000E-03	-7.33622000E-02	-1.11975000E-02
					 5.33574000E-03	-7.58187000E-02	-2.15926000E-02
					 4.27188000E-03	-5.79850000E-02	-1.93399000E-02
					 2.81067000E-03	-7.82053000E-02	-1.11988000E-02
					 5.65290000E-04	-8.26598000E-02	-8.69347000E-04
					-3.53296000E-03	-8.35914000E-02	 1.99388000E-02
					 5.47171000E-04	-8.05991000E-02	-8.58262000E-04
					-3.78691000E-03	-8.13460000E-02	 2.01061000E-02
					 4.35104000E-04	-6.15774000E-02	-5.27715000E-04
					-1.45420000E-03	-8.30549000E-02	 9.30914000E-03
					-2.77625000E-03	-6.23335000E-02	 1.82439000E-02
					 4.61999000E-03	-8.24925000E-02	-2.17471000E-02
					 4.85420000E-03	-8.03922000E-02	-2.18685000E-02
					 3.61051000E-03	-6.15118000E-02	-1.93260000E-02
					 2.58582000E-03	-8.25252000E-02	-1.10962000E-02
					 8.77110000E-04	-1.18149000E-01	-1.66311000E-03
					-4.78374000E-03	-1.18697000E-01	 2.13818000E-02