# vtk DataFile Version 3.0

ASCII
DATASET UNSTRUCTURED_GRID

POINTS 522 double
	 1.00000000E+00	 1.00000000E+00	-5.96046000E-08
	 1.00000000E+00	 5.00000000E-01	-5.96046000E-08
	 1.00000000E+00	 5.00000000E-01	 1.00000000E+00
	 1.00000000E+00	 1.00000000E+00	 1.00000000E+00
	 5.00000000E-01	 1.00000000E+00	-5.96046000E-08
	 5.00000000E-01	 5.00000000E-01	-5.96046000E-08
	 5.00000000E-01	 5.00000000E-01	 1.00000000E+00
	 5.00000000E-01	 1.00000000E+00	 1.00000000E+00
	 1.00000000E+00	 7.50000000E-01	-5.96046000E-08
	 1.00000000E+00	 5.00000000E-01	 5.00000000E-01
	 1.00000000E+00	 7.50000000E-01	 1.00000000E+00
	 1.00000000E+00	 1.00000000E+00	 5.00000000E-01
	 7.50000000E-01	 1.00000000E+00	-5.96046000E-08
	 7.50000000E-01	 5.00000000E-01	-5.96046000E-08
	 7.50000000E-01	 5.00000000E-01	 1.00000000E+00
	 7.50000000E-01	 1.00000000E+00	 1.00000000E+00
	 5.00000000E-01	 7.50000000E-01	-5.96046000E-08
	 5.00000000E-01	 5.00000000E-01	 5.00000000E-01
	 5.00000000E-01	 7.50000000E-01	 1.00000000E+00
	 5.00000000E-01	 1.00000000E+00	 5.00000000E-01
	 1.00000000E+00	-1.49012000E-08	-5.96046000E-08
	 1.00000000E+00	-1.49012000E-08	 1.00000000E+00
	 5.00000000E-01	-1.49012000E-08	-5.96046000E-08
	 5.00000000E-01	-1.49012000E-08	 1.00000000E+00
	 1.00000000E+00	 2.50000000E-01	-5.96046000E-08
	 1.00000000E+00	-1.49012000E-08	 5.00000000E-01
	 1.00000000E+00	 2.50000000E-01	 1.00000000E+00
	 7.50000000E-01	-1.49012000E-08	-5.96046000E-08
	 7.50000000E-01	-1.49012000E-08	 1.00000000E+00
	 5.00000000E-01	 2.50000000E-01	-5.96046000E-08
	 5.00000000E-01	-1.49012000E-08	 5.00000000E-01
	 5.00000000E-01	 2.50000000E-01	 1.00000000E+00
	-7.45058000E-09	 1.00000000E+00	-5.96046000E-08
	-7.45058000E-09	 5.00000000E-01	-5.96046000E-08
	-7.45058000E-09	 5.00000000E-01	 1.00000000E+00
	-7.45058000E-09	 1.00000000E+00	 1.00000000E+00
	 2.50000000E-01	 1.00000000E+00	-5.96046000E-08
	 2.50000000E-01	 5.00000000E-01	-5.96046000E-08
	 2.50000000E-01	 5.00000000E-01	 1.00000000E+00
	 2.50000000E-01	 1.00000000E+00	 1.00000000E+00
	-7.45058000E-09	 7.50000000E-01	-5.96046000E-08
	-7.45058000E-09	 5.00000000E-01	 5.00000000E-01
	-7.45058000E-09	 7.50000000E-01	 1.00000000E+00
	-7.45058000E-09	 1.00000000E+00	 5.00000000E-01
	-7.45058000E-09	-1.49012000E-08	-5.96046000E-08
	-7.45058000E-09	-1.49012000E-08	 1.00000000E+00
	 2.50000000E-01	-1.49012000E-08	-5.96046000E-08
	 2.50000000E-01	-1.49012000E-08	 1.00000000E+00
	-7.45058000E-09	 2.50000000E-01	-5.96046000E-08
	-7.45058000E-09	-1.49012000E-08	 5.00000000E-01
	-7.45058000E-09	 2.50000000E-01	 1.00000000E+00
	 1.00000000E+00	 5.00000000E-01	 2.00000000E+00
	 1.00000000E+00	 1.00000000E+00	 2.00000000E+00
	 5.00000000E-01	 5.00000000E-01	 2.00000000E+00
	 5.00000000E-01	 1.00000000E+00	 2.00000000E+00
	 1.00000000E+00	 5.00000000E-01	 1.50000000E+00
	 1.00000000E+00	 7.50000000E-01	 2.00000000E+00
	 1.00000000E+00	 1.00000000E+00	 1.50000000E+00
	 7.50000000E-01	 5.00000000E-01	 2.00000000E+00
	 7.50000000E-01	 1.00000000E+00	 2.00000000E+00
	 5.00000000E-01	 5.00000000E-01	 1.50000000E+00
	 5.00000000E-01	 7.50000000E-01	 2.00000000E+00
	 5.00000000E-01	 1.00000000E+00	 1.50000000E+00
	 1.00000000E+00	-1.49012000E-08	 2.00000000E+00
	 5.00000000E-01	-1.49012000E-08	 2.00000000E+00
	 1.00000000E+00	-1.49012000E-08	 1.50000000E+00
	 1.00000000E+00	 2.50000000E-01	 2.00000000E+00
	 7.50000000E-01	-1.49012000E-08	 2.00000000E+00
	 5.00000000E-01	-1.49012000E-08	 1.50000000E+00
	 5.00000000E-01	 2.50000000E-01	 2.00000000E+00
	-7.45058000E-09	 5.00000000E-01	 2.00000000E+00
	-7.45058000E-09	 1.00000000E+00	 2.00000000E+00
	 2.50000000E-01	 5.00000000E-01	 2.00000000E+00
	 2.50000000E-01	 1.00000000E+00	 2.00000000E+00
	-7.45058000E-09	 5.00000000E-01	 1.50000000E+00
	-7.45058000E-09	 7.50000000E-01	 2.00000000E+00
	-7.45058000E-09	 1.00000000E+00	 1.50000000E+00
	-7.45058000E-09	-1.49012000E-08	 2.00000000E+00
	 2.50000000E-01	-1.49012000E-08	 2.00000000E+00
	-7.45058000E-09	-1.49012000E-08	 1.50000000E+00
	-7.45058000E-09	 2.50000000E-01	 2.00000000E+00
	 1.00000000E+00	 5.00000000E-01	 3.00000000E+00
	 1.00000000E+00	 1.00000000E+00	 3.00000000E+00
	 5.00000000E-01	 5.00000000E-01	 3.00000000E+00
	 5.00000000E-01	 1.00000000E+00	 3.00000000E+00
	 1.00000000E+00	 5.00000000E-01	 2.50000000E+00
	 1.00000000E+00	 7.50000000E-01	 3.00000000E+00
	 1.00000000E+00	 1.00000000E+00	 2.50000000E+00
	 7.50000000E-01	 5.00000000E-01	 3.00000000E+00
	 7.50000000E-01	 1.00000000E+00	 3.00000000E+00
	 5.00000000E-01	 5.00000000E-01	 2.50000000E+00
	 5.00000000E-01	 7.50000000E-01	 3.00000000E+00
	 5.00000000E-01	 1.00000000E+00	 2.50000000E+00
	 1.00000000E+00	-1.49012000E-08	 3.00000000E+00
	 5.00000000E-01	-1.49012000E-08	 3.00000000E+00
	 1.00000000E+00	-1.49012000E-08	 2.50000000E+00
	 1.00000000E+00	 2.50000000E-01	 3.00000000E+00
	 7.50000000E-01	-1.49012000E-08	 3.00000000E+00
	 5.00000000E-01	-1.49012000E-08	 2.50000000E+00
	 5.00000000E-01	 2.50000000E-01	 3.00000000E+00
	-7.45058000E-09	 5.00000000E-01	 3.00000000E+00
	-7.45058000E-09	 1.00000000E+00	 3.00000000E+00
	 2.50000000E-01	 5.00000000E-01	 3.00000000E+00
	 2.50000000E-01	 1.00000000E+00	 3.00000000E+00
	-7.45058000E-09	 5.00000000E-01	 2.50000000E+00
	-7.45058000E-09	 7.50000000E-01	 3.00000000E+00
	-7.45058000E-09	 1.00000000E+00	 2.50000000E+00
	-7.45058000E-09	-1.49012000E-08	 3.00000000E+00
	 2.50000000E-01	-1.49012000E-08	 3.00000000E+00
	-7.45058000E-09	-1.49012000E-08	 2.50000000E+00
	-7.45058000E-09	 2.50000000E-01	 3.00000000E+00
	 1.00000000E+00	 5.00000000E-01	 4.00000000E+00
	 1.00000000E+00	 1.00000000E+00	 4.00000000E+00
	 5.00000000E-01	 5.00000000E-01	 4.00000000E+00
	 5.00000000E-01	 1.00000000E+00	 4.00000000E+00
	 1.00000000E+00	 5.00000000E-01	 3.50000000E+00
	 1.00000000E+00	 7.50000000E-01	 4.00000000E+00
	 1.00000000E+00	 1.00000000E+00	 3.50000000E+00
	 7.50000000E-01	 5.00000000E-01	 4.00000000E+00
	 7.50000000E-01	 1.00000000E+00	 4.00000000E+00
	 5.00000000E-01	 5.00000000E-01	 3.50000000E+00
	 5.00000000E-01	 7.50000000E-01	 4.00000000E+00
	 5.00000000E-01	 1.00000000E+00	 3.50000000E+00
	 1.00000000E+00	-1.49012000E-08	 4.00000000E+00
	 5.00000000E-01	-1.49012000E-08	 4.00000000E+00
	 1.00000000E+00	-1.49012000E-08	 3.50000000E+00
	 1.00000000E+00	 2.50000000E-01	 4.00000000E+00
	 7.50000000E-01	-1.49012000E-08	 4.00000000E+00
	 5.00000000E-01	-1.49012000E-08	 3.50000000E+00
	 5.00000000E-01	 2.50000000E-01	 4.00000000E+00
	-7.45058000E-09	 5.00000000E-01	 4.00000000E+00
	-7.45058000E-09	 1.00000000E+00	 4.00000000E+00
	 2.50000000E-01	 5.00000000E-01	 4.00000000E+00
	 2.50000000E-01	 1.00000000E+00	 4.00000000E+00
	-7.45058000E-09	 5.00000000E-01	 3.50000000E+00
	-7.45058000E-09	 7.50000000E-01	 4.00000000E+00
	-7.45058000E-09	 1.00000000E+00	 3.50000000E+00
	-7.45058000E-09	-1.49012000E-08	 4.00000000E+00
	 2.50000000E-01	-1.49012000E-08	 4.00000000E+00
	-7.45058000E-09	-1.49012000E-08	 3.50000000E+00
	-7.45058000E-09	 2.50000000E-01	 4.00000000E+00
	 1.00000000E+00	 5.00000000E-01	 5.00000000E+00
	 1.00000000E+00	 1.00000000E+00	 5.00000000E+00
	 5.00000000E-01	 5.00000000E-01	 5.00000000E+00
	 5.00000000E-01	 1.00000000E+00	 5.00000000E+00
	 1.00000000E+00	 5.00000000E-01	 4.50000000E+00
	 1.00000000E+00	 7.50000000E-01	 5.00000000E+00
	 1.00000000E+00	 1.00000000E+00	 4.50000000E+00
	 7.50000000E-01	 5.00000000E-01	 5.00000000E+00
	 7.50000000E-01	 1.00000000E+00	 5.00000000E+00
	 5.00000000E-01	 5.00000000E-01	 4.50000000E+00
	 5.00000000E-01	 7.50000000E-01	 5.00000000E+00
	 5.00000000E-01	 1.00000000E+00	 4.50000000E+00
	 1.00000000E+00	-1.49012000E-08	 5.00000000E+00
	 5.00000000E-01	-1.49012000E-08	 5.00000000E+00
	 1.00000000E+00	-1.49012000E-08	 4.50000000E+00
	 1.00000000E+00	 2.50000000E-01	 5.00000000E+00
	 7.50000000E-01	-1.49012000E-08	 5.00000000E+00
	 5.00000000E-01	-1.49012000E-08	 4.50000000E+00
	 5.00000000E-01	 2.50000000E-01	 5.00000000E+00
	-7.45058000E-09	 5.00000000E-01	 5.00000000E+00
	-7.45058000E-09	 1.00000000E+00	 5.00000000E+00
	 2.50000000E-01	 5.00000000E-01	 5.00000000E+00
	 2.50000000E-01	 1.00000000E+00	 5.00000000E+00
	-7.45058000E-09	 5.00000000E-01	 4.50000000E+00
	-7.45058000E-09	 7.50000000E-01	 5.00000000E+00
	-7.45058000E-09	 1.00000000E+00	 4.50000000E+00
	-7.45058000E-09	-1.49012000E-08	 5.00000000E+00
	 2.50000000E-01	-1.49012000E-08	 5.00000000E+00
	-7.45058000E-09	-1.49012000E-08	 4.50000000E+00
	-7.45058000E-09	 2.50000000E-01	 5.00000000E+00
	 1.00000000E+00	 5.00000000E-01	 6.00000000E+00
	 1.00000000E+00	 1.00000000E+00	 6.00000000E+00
	 5.00000000E-01	 5.00000000E-01	 6.00000000E+00
	 5.00000000E-01	 1.00000000E+00	 6.00000000E+00
	 1.00000000E+00	 5.00000000E-01	 5.50000000E+00
	 1.00000000E+00	 7.50000000E-01	 6.00000000E+00
	 1.00000000E+00	 1.00000000E+00	 5.50000000E+00
	 7.50000000E-01	 5.00000000E-01	 6.00000000E+00
	 7.50000000E-01	 1.00000000E+00	 6.00000000E+00
	 5.00000000E-01	 5.00000000E-01	 5.50000000E+00
	 5.00000000E-01	 7.50000000E-01	 6.00000000E+00
	 5.00000000E-01	 1.00000000E+00	 5.50000000E+00
	 1.00000000E+00	-1.49012000E-08	 6.00000000E+00
	 5.00000000E-01	-1.49012000E-08	 6.00000000E+00
	 1.00000000E+00	-1.49012000E-08	 5.50000000E+00
	 1.00000000E+00	 2.50000000E-01	 6.00000000E+00
	 7.50000000E-01	-1.49012000E-08	 6.00000000E+00
	 5.00000000E-01	-1.49012000E-08	 5.50000000E+00
	 5.00000000E-01	 2.50000000E-01	 6.00000000E+00
	-7.45058000E-09	 5.00000000E-01	 6.00000000E+00
	-7.45058000E-09	 1.00000000E+00	 6.00000000E+00
	 2.50000000E-01	 5.00000000E-01	 6.00000000E+00
	 2.50000000E-01	 1.00000000E+00	 6.00000000E+00
	-7.45058000E-09	 5.00000000E-01	 5.50000000E+00
	-7.45058000E-09	 7.50000000E-01	 6.00000000E+00
	-7.45058000E-09	 1.00000000E+00	 5.50000000E+00
	-7.45058000E-09	-1.49012000E-08	 6.00000000E+00
	 2.50000000E-01	-1.49012000E-08	 6.00000000E+00
	-7.45058000E-09	-1.49012000E-08	 5.50000000E+00
	-7.45058000E-09	 2.50000000E-01	 6.00000000E+00
	 1.00000000E+00	 5.00000000E-01	 7.00000000E+00
[...]
POINT_DATA 522
FIELD U 1
	U 3 522 double
		 0.00000000E+00	 0.00000000E+00	 0.00000000E+00
		 0.00000000E+00	 0.00000000E+00	 0.00000000E+00
		 7.46032000E-06	-3.55907000E-03	 1.05942000E-06
		 6.62100000E-04	-3.68771000E-03	 2.36364000E-03
		 0.00000000E+00	 0.00000000E+00	 0.00000000E+00
		 0.00000000E+00	 0.00000000E+00	 0.00000000E+00
		 6.20014000E-06	-2.74440000E-03	 9.53327000E-06
		 9.66377000E-04	-2.89169000E-03	 2.40017000E-03
		 0.00000000E+00	 0.00000000E+00	 0.00000000E+00
		-1.21045000E-06	-1.07042000E-03	 6.25477000E-06
		 3.36799000E-04	-3.56812000E-03	 1.06451000E-03
		 9.28353000E-05	-1.25392000E-03	 1.21956000E-03
		 0.00000000E+00	 0.00000000E+00	 0.00000000E+00
		 0.00000000E+00	 0.00000000E+00	 0.00000000E+00
		 7.05871000E-06	-3.20244000E-03	 5.15614000E-06
		 8.15316000E-04	-3.34358000E-03	 2.46981000E-03
		 0.00000000E+00	 0.00000000E+00	 0.00000000E+00
		-2.26342000E-07	-7.58701000E-04	 9.24176000E-06
		 4.85669000E-04	-2.76226000E-03	 1.17366000E-03
		 4.70800000E-04	-9.64812000E-04	 1.19073000E-03
		 0.00000000E+00	 0.00000000E+00	 0.00000000E+00
		-6.51802000E-04	-3.67977000E-03	-2.36405000E-03
		 0.00000000E+00	 0.00000000E+00	 0.00000000E+00
		-9.58675000E-04	-2.87626000E-03	-2.38450000E-03
		 0.00000000E+00	 0.00000000E+00	 0.00000000E+00
		-9.61538000E-05	-1.24637000E-03	-1.20994000E-03
		-3.22921000E-04	-3.56648000E-03	-1.06288000E-03
		 0.00000000E+00	 0.00000000E+00	 0.00000000E+00
		-8.05905000E-04	-3.33080000E-03	-2.46296000E-03
		 0.00000000E+00	 0.00000000E+00	 0.00000000E+00
		-4.73216000E-04	-9.54218000E-04	-1.17366000E-03
		-4.74590000E-04	-2.75506000E-03	-1.15578000E-03
		 0.00000000E+00	 0.00000000E+00	 0.00000000E+00
		 0.00000000E+00	 0.00000000E+00	 0.00000000E+00
		 6.57123000E-06	-1.63118000E-03	 2.13167000E-05
		 1.26424000E-03	-1.77608000E-03	 2.38424000E-03
		 0.00000000E+00	 0.00000000E+00	 0.00000000E+00
		 0.00000000E+00	 0.00000000E+00	 0.00000000E+00
		 5.72033000E-06	-2.23989000E-03	 1.46489000E-05
		 1.11271000E-03	-2.38344000E-03	 2.30575000E-03
		 0.00000000E+00	 0.00000000E+00	 0.00000000E+00
		 1.67763000E-06	-1.27209000E-04	 1.14010000E-05
		 6.37351000E-04	-1.65105000E-03	 1.25924000E-03
		 8.13708000E-04	-3.50456000E-04	 1.22584000E-03
		 0.00000000E+00	 0.00000000E+00	 0.00000000E+00
		-1.25501000E-03	-1.75258000E-03	-2.34473000E-03
		 0.00000000E+00	 0.00000000E+00	 0.00000000E+00
		-1.10573000E-03	-2.36443000E-03	-2.27971000E-03
		 0.00000000E+00	 0.00000000E+00	 0.00000000E+00
		-8.11619000E-04	-3.37038000E-04	-1.20330000E-03
		-6.25367000E-04	-1.63825000E-03	-1.21754000E-03
		 1.42503000E-05	-1.13414000E-02	-2.53795000E-05
		 1.58654000E-03	-1.14817000E-02	 4.13127000E-03
		 2.01309000E-05	-9.67017000E-03	-1.69685000E-06
		 1.80034000E-03	-9.80354000E-03	 4.16472000E-03
		 1.00489000E-05	-7.02514000E-03	-1.27771000E-05
		 7.97656000E-04	-1.13890000E-02	 1.98345000E-03
		 1.15975000E-03	-7.18590000E-03	 3.32726000E-03
		 1.63819000E-05	-1.05303000E-02	-1.30094000E-05
		 1.69422000E-03	-1.06640000E-02	 4.19730000E-03
		 1.39194000E-05	-5.74957000E-03	 2.91831000E-06
		 9.11526000E-04	-9.71347000E-03	 2.06000000E-03
		 1.42221000E-03	-5.90387000E-03	 3.35392000E-03
		-1.55362000E-03	-1.14270000E-02	-4.18257000E-03
		-1.75436000E-03	-9.75403000E-03	-4.16888000E-03
		-1.14473000E-03	-7.16151000E-03	-3.34905000E-03
		-7.67653000E-04	-1.13606000E-02	-2.03412000E-03
		-1.65608000E-03	-1.06111000E-02	-4.22414000E-03
		-1.39647000E-03	-5.87317000E-03	-3.34851000E-03
		-8.68972000E-04	-9.68855000E-03	-2.06350000E-03
		 2.91269000E-05	-7.79147000E-03	 2.07974000E-05
		 2.03319000E-03	-7.91130000E-03	 4.17501000E-03
		 2.46866000E-05	-8.75375000E-03	 9.03354000E-06
		 1.91665000E-03	-8.88301000E-03	 4.13310000E-03
		 1.96635000E-05	-4.20826000E-03	 2.46594000E-05
		 1.02958000E-03	-7.82651000E-03	 2.11242000E-03
		 1.70352000E-03	-4.35428000E-03	 3.36080000E-03
		-1.96838000E-03	-7.86894000E-03	-4.13372000E-03
		-1.86100000E-03	-8.83750000E-03	-4.11463000E-03
		-1.66444000E-03	-4.32161000E-03	-3.31561000E-03
		-9.68713000E-04	-7.80625000E-03	-2.07164000E-03
		 3.81001000E-05	-2.17086000E-02	-7.23528000E-05
		 2.10994000E-03	-2.17907000E-02	 5.20646000E-03
		 4.34306000E-05	-1.95739000E-02	-3.73002000E-05
		 2.22883000E-03	-1.96635000E-02	 5.25894000E-03
		 2.73485000E-05	-1.62880000E-02	-4.05477000E-05
		 1.07562000E-03	-2.17312000E-02	 2.51466000E-03
		 1.90650000E-03	-1.64056000E-02	 4.75380000E-03
		 4.12252000E-05	-2.06578000E-02	-5.60760000E-05
		 2.16960000E-03	-2.07438000E-02	 5.25300000E-03
		 3.12097000E-05	-1.43277000E-02	-1.31935000E-05
		 1.13731000E-03	-1.96013000E-02	 2.58077000E-03
		 2.06825000E-03	-1.44421000E-02	 4.79602000E-03
		-2.04767000E-03	-2.17449000E-02	-5.35460000E-03
		-2.15788000E-03	-1.95967000E-02	-5.33743000E-03
		-1.85239000E-03	-1.63478000E-02	-4.84640000E-03
		-1.00424000E-03	-2.17126000E-02	-2.66030000E-03
		-2.10238000E-03	-2.06870000E-02	-5.36872000E-03
		-2.00940000E-03	-1.43811000E-02	-4.82649000E-03
		-1.05615000E-03	-1.95689000E-02	-2.65634000E-03
		 4.85071000E-05	-1.73229000E-02	 2.38162000E-06
		 2.35877000E-03	-1.74143000E-02	 5.28663000E-03
		 4.56136000E-05	-1.84636000E-02	-1.71784000E-05
		 2.29356000E-03	-1.85561000E-02	 5.26364000E-03
		 3.73457000E-05	-1.22048000E-02	 1.22026000E-05
		 1.20251000E-03	-1.73531000E-02	 2.62748000E-03
		 2.24748000E-03	-1.23179000E-02	 4.81676000E-03
		-2.27784000E-03	-1.73244000E-02	-5.28677000E-03
		-2.21900000E-03	-1.84783000E-02	-5.30332000E-03
		-2.17786000E-03	-1.22483000E-02	-4.78940000E-03
		-1.11101000E-03	-1.73059000E-02	-2.62309000E-03
		 5.35930000E-05	-3.33962000E-02	-1.33117000E-04
		 2.36942000E-03	-3.34073000E-02	 5.33658000E-03
		 6.25888000E-05	-3.11311000E-02	-9.23432000E-05
		 2.29239000E-03	-3.11257000E-02	 5.40076000E-03
		 4.45283000E-05	-2.75143000E-02	-1.09023000E-04
		 1.20961000E-03	-3.34127000E-02	 2.54562000E-03
		 2.27317000E-03	-2.75633000E-02	 5.42455000E-03
		 5.75757000E-05	-3.22553000E-02	-1.12698000E-04
		 2.32931000E-03	-3.22568000E-02	 5.37265000E-03
		 5.22058000E-05	-2.52738000E-02	-6.57672000E-05
		 1.17659000E-03	-3.11383000E-02	 2.59767000E-03
		 2.31209000E-03	-2.53187000E-02	 5.48560000E-03
		-2.25247000E-03	-3.33199000E-02	-5.59925000E-03
		-2.15663000E-03	-3.10536000E-02	-5.58135000E-03
		-2.18673000E-03	-2.74921000E-02	-5.63278000E-03
		-1.09829000E-03	-3.33684000E-02	-2.81073000E-03
		-2.20439000E-03	-3.21761000E-02	-5.59406000E-03
		-2.20665000E-03	-2.52447000E-02	-5.61659000E-03
		-1.04788000E-03	-3.11034000E-02	-2.78128000E-03
		 7.12779000E-05	-2.89426000E-02	-5.57913000E-05
		 2.22635000E-03	-2.89229000E-02	 5.41120000E-03
		 6.69923000E-05	-3.00258000E-02	-7.28269000E-05
		 2.26174000E-03	-3.00164000E-02	 5.43566000E-03
		 6.06090000E-05	-2.29991000E-02	-1.86839000E-05
		 1.14560000E-03	-2.89402000E-02	 2.59459000E-03
		 2.36166000E-03	-2.30311000E-02	 5.50643000E-03
		-2.07358000E-03	-2.88669000E-02	-5.51784000E-03
		-2.11601000E-03	-2.99508000E-02	-5.57716000E-03
		-2.23554000E-03	-2.29634000E-02	-5.55219000E-03
		-1.00053000E-03	-2.89174000E-02	-2.70489000E-03
		 1.02810000E-04	-4.34036000E-02	-1.68124000E-04
		 2.19460000E-03	-4.33078000E-02	 3.97091000E-03
		 1.04830000E-04	-4.14689000E-02	-1.39357000E-04
		 1.90166000E-03	-4.13571000E-02	 4.00313000E-03
		 7.55477000E-05	-3.88700000E-02	-1.53862000E-04
		 1.14117000E-03	-4.33977000E-02	 1.93880000E-03
		 2.35606000E-03	-3.88251000E-02	 4.79924000E-03
		 1.04959000E-04	-4.23994000E-02	-1.51215000E-04
		 2.05163000E-03	-4.22883000E-02	 3.94602000E-03
		 7.98349000E-05	-3.67020000E-02	-1.18872000E-04
		 1.00318000E-03	-4.14551000E-02	 1.92555000E-03
		 2.15175000E-03	-3.66432000E-02	 4.86177000E-03
		-1.99424000E-03	-4.32584000E-02	-4.30336000E-03
		-1.69409000E-03	-4.13062000E-02	-4.27985000E-03
		-2.20510000E-03	-3.87591000E-02	-5.10852000E-03
		-9.40355000E-04	-4.33705000E-02	-2.27567000E-03
		-1.84373000E-03	-4.22398000E-02	-4.24434000E-03
		-1.98934000E-03	-3.65788000E-02	-5.09425000E-03
		-7.95207000E-04	-4.14286000E-02	-2.20347000E-03
		 1.03759000E-04	-3.98066000E-02	-1.09633000E-04
		 1.61428000E-03	-3.96996000E-02	 4.02832000E-03
		 1.04687000E-04	-4.05984000E-02	-1.27443000E-04
		 1.75630000E-03	-4.04864000E-02	 4.06361000E-03
		 8.12468000E-05	-3.47259000E-02	-8.90992000E-05
		 8.63130000E-04	-3.97941000E-02	 1.90204000E-03
		 1.95789000E-03	-3.46637000E-02	 4.86758000E-03
		-1.40941000E-03	-3.96498000E-02	-4.24698000E-03
		-1.55146000E-03	-4.04374000E-02	-4.31553000E-03
		-1.79358000E-03	-3.46011000E-02	-5.03434000E-03
		-6.55380000E-04	-3.97665000E-02	-2.12181000E-03
		 9.40416000E-05	-4.86061000E-02	-1.44824000E-04
		 1.20761000E-03	-4.85728000E-02	 2.53344000E-03
		 1.02393000E-04	-4.75442000E-02	-1.46152000E-04
		 1.13421000E-03	-4.75089000E-02	 2.49735000E-03
		 1.09646000E-04	-4.65556000E-02	-1.57721000E-04
		 6.54887000E-04	-4.85960000E-02	 1.35081000E-03
		 1.79558000E-03	-4.64961000E-02	 3.09858000E-03
		 9.77013000E-05	-4.80629000E-02	-1.49267000E-04
		 1.16821000E-03	-4.80305000E-02	 2.42291000E-03
		 1.15580000E-04	-4.50059000E-02	-1.47021000E-04
		 6.20493000E-04	-4.75352000E-02	 1.24406000E-03
		 1.56045000E-03	-4.49221000E-02	 3.08349000E-03
		-1.00361000E-03	-4.85463000E-02	-2.81789000E-03
		-9.21704000E-04	-4.74950000E-02	-2.78991000E-03
		-1.55980000E-03	-4.64467000E-02	-3.41202000E-03
		-4.55829000E-04	-4.85883000E-02	-1.63247000E-03
		-9.62843000E-04	-4.80113000E-02	-2.72063000E-03
		-1.32181000E-03	-4.48944000E-02	-3.37919000E-03
		-4.11317000E-04	-4.75306000E-02	-1.53664000E-03
		 1.10067000E-04	-4.65600000E-02	-1.47282000E-04
		 1.05785000E-03	-4.65251000E-02	 2.52438000E-03
		 1.06379000E-04	-4.70457000E-02	-1.41879000E-04
		 1.09889000E-03	-4.70128000E-02	 2.55707000E-03
		 1.20086000E-04	-4.36762000E-02	-1.31400000E-04
		 5.82363000E-04	-4.65515000E-02	 1.21049000E-03
		 1.33721000E-03	-4.35943000E-02	 3.12347000E-03
		-8.31002000E-04	-4.65196000E-02	-2.82351000E-03
		-8.75621000E-04	-4.69964000E-02	-2.84912000E-03
		-1.09307000E-03	-4.35744000E-02	-3.39149000E-03
		-3.64232000E-04	-4.65523000E-02	-1.50402000E-03
		 9.79370000E-05	-5.29874000E-02	-1.37228000E-04
		 6.18532000E-04	-5.30331000E-02	 2.66680000E-03
		 9.77734000E-05	-5.24700000E-02	-1.52611000E-04
		 6.61159000E-04	-5.24951000E-02	 2.63436000E-03
		 9.47625000E-05	-5.04921000E-02	-1.56006000E-04
		 3.56481000E-04	-5.30154000E-02	 1.25200000E-03
		 7.08422000E-04	-5.04689000E-02	 2.50755000E-03
		 9.61987000E-05	-5.27318000E-02	-1.40668000E-04
		 6.43304000E-04	-5.27786000E-02	 2.67676000E-03
		 9.19228000E-05	-4.98429000E-02	-1.50034000E-04
		 3.75966000E-04	-5.24781000E-02	 1.24127000E-03
		 7.74984000E-04	-4.98469000E-02	 2.47934000E-03
		-3.63613000E-04	-5.29490000E-02	-2.98116000E-03
		-4.34895000E-04	-5.24778000E-02	-2.97691000E-03
		-5.34681000E-04	-5.04622000E-02	-2.79466000E-03
		-1.47738000E-04	-5.29421000E-02	-1.56398000E-03
		-3.93993000E-04	-5.27249000E-02	-2.98461000E-03
		-5.82865000E-04	-4.98324000E-02	-2.77226000E-03
		-1.74556000E-04	-5.24607000E-02	-1.56382000E-03
		 1.01453000E-04	-5.19096000E-02	-1.54228000E-04
		 6.62578000E-04	-5.19532000E-02	 2.61924000E-03
		 1.00215000E-04	-5.22011000E-02	-1.60017000E-04
		 6.59745000E-04	-5.22137000E-02	 2.62757000E-03
		 9.23245000E-05	-4.91628000E-02	-1.44885000E-04
		 3.97863000E-04	-5.19253000E-02	 1.21406000E-03
		 7.90911000E-04	-4.91723000E-02	 2.48248000E-03
		-4.91800000E-04	-5.19260000E-02	-2.93450000E-03
		-4.69923000E-04	-5.22185000E-02	-2.95527000E-03
		-6.05302000E-04	-4.91636000E-02	-2.78426000E-03
		-1.95343000E-04	-5.19076000E-02	-1.53675000E-03
		-1.34234000E-04	-5.86554000E-02	-5.37982000E-05
		 5.18397000E-04	-5.82037000E-02	 2.47821000E-03
		 1.25777000E-04	-5.80768000E-02	-1.87119000E-04
		 5.79214000E-04	-5.78303000E-02	 2.46598000E-03
		 3.08100000E-05	-5.58665000E-02	-4.36051000E-05
		 1.49722000E-04	-5.84010000E-02	 1.34882000E-03
		 7.26169000E-04	-5.59096000E-02	 2.65174000E-03
		-1.26068000E-05	-5.83630000E-02	-1.40532000E-04
		 5.47421000E-04	-5.79074000E-02	 2.41790000E-03
		 1.13444000E-04	-5.52916000E-02	-1.52662000E-04
		 3.86052000E-04	-5.79217000E-02	 1.19598000E-03
		 6.31034000E-04	-5.52511000E-02	 2.58284000E-03
		-6.17567000E-04	-5.89267000E-02	-3.12577000E-03
		-5.40532000E-04	-5.82931000E-02	-3.13310000E-03
		-4.62867000E-04	-5.58685000E-02	-3.08354000E-03
		-3.78995000E-04	-5.88416000E-02	-1.57589000E-03
		-5.91271000E-04	-5.86444000E-02	-3.17099000E-03
		-5.02618000E-04	-5.53531000E-02	-3.10106000E-03
		-1.89857000E-04	-5.82270000E-02	-1.65034000E-03
		 2.75082000E-04	-5.75088000E-02	-1.00732000E-04
		 7.24144000E-04	-5.73400000E-02	 2.53066000E-03
		 2.27022000E-04	-5.77887000E-02	-1.72934000E-04
		 6.46198000E-04	-5.76155000E-02	 2.48904000E-03
		 1.53008000E-04	-5.47433000E-02	-1.30258000E-04
		 4.89508000E-04	-5.74451000E-02	 1.26685000E-03
		 6.23753000E-04	-5.47862000E-02	 2.61625000E-03
		-4.92696000E-04	-5.74898000E-02	-2.98844000E-03
		-5.03448000E-04	-5.79111000E-02	-3.05356000E-03
		-5.24172000E-04	-5.46879000E-02	-2.99467000E-03
		-6.56808000E-05	-5.75006000E-02	-1.55263000E-03
		 0.00000000E+00	 0.00000000E+00	 0.00000000E+00
		 0.00000000E+00	 0.00000000E+00	 0.00000000E+00
		 6.06768000E-05	-1.51759000E-02	-4.11699000E-04
		-3.62611000E-03	-1.63539000E-02	 1.54182000E-02
		 0.00000000E+00	 0.00000000E+00	 0.00000000E+00
		 0.00000000E+00	 0.00000000E+00	 0.00000000E+00
		 1.63332000E-05	-1.77878000E-02	-5.05862000E-04
		-1.57799000E-03	-1.90358000E-02	 1.54998000E-02
		 0.00000000E+00	 0.00000000E+00	 0.00000000E+00
		 7.00130000E-05	-2.89123000E-03	-1.45961000E-04
		-1.78570000E-03	-1.54016000E-02	 7.47141000E-03
		-3.09425000E-03	-4.32460000E-03	 7.86819000E-03
		 0.00000000E+00	 0.00000000E+00	 0.00000000E+00
		 0.00000000E+00	 0.00000000E+00	 0.00000000E+00
		 4.19863000E-05	-1.68320000E-02	-4.67224000E-04
		-2.58113000E-03	-1.80423000E-02	 1.53121000E-02
		 0.00000000E+00	 0.00000000E+00	 0.00000000E+00
		 8.75615000E-06	-4.74006000E-03	-1.78147000E-04
		-7.81325000E-04	-1.80323000E-02	 7.31424000E-03
		-7.74006000E-04	-6.15167000E-03	 7.62028000E-03
		 0.00000000E+00	 0.00000000E+00	 0.00000000E+00
		 3.70795000E-03	-1.58303000E-02	-1.63264000E-02
		 0.00000000E+00	 0.00000000E+00	 0.00000000E+00
		 1.61747000E-03	-1.85111000E-02	-1.66039000E-02
		 0.00000000E+00	 0.00000000E+00	 0.00000000E+00
		 3.21287000E-03	-4.18554000E-03	-8.20383000E-03
		 1.89249000E-03	-1.51350000E-02	-8.32200000E-03
		 0.00000000E+00	 0.00000000E+00	 0.00000000E+00
		 2.65470000E-03	-1.75140000E-02	-1.63316000E-02
		 0.00000000E+00	 0.00000000E+00	 0.00000000E+00
		 7.98677000E-04	-6.03291000E-03	-8.00519000E-03
		 8.14363000E-04	-1.77684000E-02	-8.35514000E-03
		 0.00000000E+00	 0.00000000E+00	 0.00000000E+00
		 0.00000000E+00	 0.00000000E+00	 0.00000000E+00
		-3.90951000E-05	-1.83726000E-02	-5.18154000E-04
		 4.69730000E-04	-1.95271000E-02	 1.53171000E-02
		 0.00000000E+00	 0.00000000E+00	 0.00000000E+00
		 0.00000000E+00	 0.00000000E+00	 0.00000000E+00
		-1.09650000E-05	-1.84284000E-02	-5.24810000E-04
		-5.70262000E-04	-1.96343000E-02	 1.55405000E-02
		 0.00000000E+00	 0.00000000E+00	 0.00000000E+00
		-6.21057000E-05	-4.46143000E-03	-1.83595000E-04
		 2.13963000E-04	-1.85791000E-02	 7.08103000E-03
		 1.59505000E-03	-5.82241000E-03	 7.83669000E-03
		 0.00000000E+00	 0.00000000E+00	 0.00000000E+00
		-4.98994000E-04	-1.90281000E-02	-1.64284000E-02
		 0.00000000E+00	 0.00000000E+00	 0.00000000E+00
		 5.68889000E-04	-1.91111000E-02	-1.66794000E-02
		 0.00000000E+00	 0.00000000E+00	 0.00000000E+00
		-1.68623000E-03	-5.70996000E-03	-8.23723000E-03
		-2.73588000E-04	-1.83386000E-02	-8.13489000E-03
		 6.11571000E-05	-6.08990000E-02	-1.68155000E-03
		-4.45121000E-03	-6.24300000E-02	 2.64825000E-02
		 4.35389000E-05	-6.46343000E-02	-1.87196000E-03
		-2.94135000E-03	-6.61685000E-02	 2.63626000E-02
		 6.38484000E-05	-3.48328000E-02	-9.08379000E-04
		-2.19437000E-03	-6.14969000E-02	 1.23070000E-02
		-4.14929000E-03	-3.62846000E-02	 2.16396000E-02
		 5.31815000E-05	-6.29331000E-02	-1.78993000E-03
		-3.69777000E-03	-6.44671000E-02	 2.63765000E-02
		 2.61179000E-05	-3.80990000E-02	-1.05297000E-03
		-1.44748000E-03	-6.52342000E-02	 1.21169000E-02
		-2.31853000E-03	-3.95575000E-02	 2.15705000E-02
		 4.57982000E-03	-6.07922000E-02	-2.99441000E-02
		 3.04536000E-03	-6.45652000E-02	-3.02074000E-02
		 4.24537000E-03	-3.52562000E-02	-2.35630000E-02
		 2.31557000E-03	-6.06852000E-02	-1.56927000E-02
		 3.81915000E-03	-6.28542000E-02	-3.00525000E-02
		 2.38001000E-03	-3.85326000E-02	-2.37890000E-02
		 1.54416000E-03	-6.44464000E-02	-1.58810000E-02
		 1.11666000E-05	-6.68728000E-02	-1.97143000E-03
		-1.44072000E-03	-6.83630000E-02	 2.61976000E-02
		 2.86043000E-05	-6.59189000E-02	-1.93240000E-03
		-2.18686000E-03	-6.74694000E-02	 2.63883000E-02
		-2.34642000E-05	-3.95269000E-02	-1.10080000E-03
		-7.23587000E-04	-6.74371000E-02	 1.18707000E-02
		-5.17884000E-04	-4.09732000E-02	 2.14436000E-02
		 1.52455000E-03	-6.68232000E-02	-3.02400000E-02
		 2.28343000E-03	-6.58534000E-02	-3.03553000E-02
		 5.29151000E-04	-3.99980000E-02	-2.37590000E-02
		 7.65403000E-04	-6.66976000E-02	-1.58329000E-02
		 1.64278000E-04	-1.27182000E-01	-4.07061000E-03
		-4.60214000E-03	-1.28835000E-01	 3.18409000E-02
		 1.58597000E-04	-1.31481000E-01	-4.28955000E-03
		-3.74672000E-03	-1.33256000E-01	 3.16798000E-02
		 1.02101000E-04	-9.20611000E-02	-2.73467000E-03
		-2.21462000E-03	-1.27890000E-01	 1.37837000E-02
		-4.58792000E-03	-9.37045000E-02	 2.98127000E-02
		 1.63687000E-04	-1.29442000E-01	-4.18727000E-03
		-4.17554000E-03	-1.31168000E-01	 3.17292000E-02
		 8.51816000E-05	-9.61523000E-02	-2.95712000E-03
		-1.81736000E-03	-1.32255000E-01	 1.35565000E-02
		-3.41760000E-03	-9.78038000E-02	 2.96751000E-02
		 4.87525000E-03	-1.26319000E-01	-4.00371000E-02
		 4.04848000E-03	-1.30621000E-01	-4.03492000E-02
		 4.78553000E-03	-9.15720000E-02	-3.53853000E-02
		 2.52416000E-03	-1.26654000E-01	-2.19323000E-02
		 4.46106000E-03	-1.28572000E-01	-4.01881000E-02
		 3.59686000E-03	-9.56635000E-02	-3.56818000E-02
		 2.10600000E-03	-1.30958000E-01	-2.21736000E-02
		 1.41716000E-04	-1.34956000E-01	-4.44204000E-03
		-3.00842000E-03	-1.36863000E-01	 3.14521000E-02
		 1.50839000E-04	-1.33340000E-01	-4.37448000E-03
		-3.38149000E-03	-1.35056000E-01	 3.16588000E-02
		 6.75907000E-05	-9.90688000E-02	-3.09982000E-03
		-1.39887000E-03	-1.35796000E-01	 1.32673000E-02
		-2.30004000E-03	-1.00745000E-01	 2.94590000E-02
		 3.23895000E-03	-1.34129000E-01	-4.04551000E-02
		 3.64432000E-03	-1.32467000E-01	-4.05021000E-02
		 2.41092000E-03	-9.85981000E-02	-3.57434000E-02
		 1.67900000E-03	-1.34463000E-01	-2.22117000E-02
		 4.67115000E-04	-2.04416000E-01	-7.27693000E-03
		-4.26358000E-03	-2.06051000E-01	 3.23188000E-02
		 4.58737000E-04	-2.09034000E-01	-7.42533000E-03
		-4.04213000E-03	-2.11127000E-01	 3.22003000E-02
		 2.49554000E-04	-1.64944000E-01	-5.60914000E-03
		-1.89877000E-03	-2.05191000E-01	 1.24726000E-02
		-4.52075000E-03	-1.66700000E-01	 3.25065000E-02
		 4.63011000E-04	-2.06728000E-01	-7.35194000E-03
		-4.14378000E-03	-2.08540000E-01	 3.22744000E-02
		 2.39600000E-04	-1.69471000E-01	-5.83985000E-03
		-1.66887000E-03	-2.10025000E-01	 1.23468000E-02
		-4.03553000E-03	-1.71186000E-01	 3.24063000E-02
		 5.03631000E-03	-2.03034000E-01	-4.68978000E-02
		 4.67165000E-03	-2.07504000E-01	-4.70654000E-02
		 4.98537000E-03	-1.63793000E-01	-4.37608000E-02
		 2.75169000E-03	-2.03696000E-01	-2.70281000E-02
		 4.85501000E-03	-2.05300000E-01	-4.70030000E-02
		 4.44361000E-03	-1.68276000E-01	-4.40269000E-02
		 2.55233000E-03	-2.08213000E-01	-2.72057000E-02
		 3.14734000E-04	-2.13327000E-01	-7.55668000E-03
		-3.69741000E-03	-2.15788000E-01	 3.20564000E-02
		 3.88267000E-04	-2.11183000E-01	-7.49602000E-03
		-3.86954000E-03	-2.13979000E-01	 3.21274000E-02
		 2.05040000E-04	-1.73457000E-01	-6.05277000E-03
		-1.80477000E-03	-2.14484000E-01	 1.22020000E-02
		-3.38761000E-03	-1.75066000E-01	 3.22036000E-02
		 4.33713000E-03	-2.11661000E-01	-4.71699000E-02