<?xml version="1.0"?>
<VTKFile type="UnstructuredGrid" version="0.1" byte_order="LittleEndian">
	<UnstructuredGrid>
		<Piece NumberOfPoints="522" NumberOfCells="64">
			<Points>
				<DataArray type="Float64" NumberOfComponents="3" format="ascii">
					 1.00000000E+00	 1.00000000E+00	-5.96046000E-08
					 1.00000000E+00	 5.00000000E-01	-5.96046000E-08
					 1.00000000E+00	 5.00000000E-01	 1.00000000E+00
					 1.00000000E+00	 1.00000000E+00	 1.00000000E+00
					 5.00000000E-01	 1.00000000E+00	-5.96046000E-08
					 5.00000000E-01	 5.00000000E-01	-5.96046000E-08
					 5.00000000E-01	 5.00000000E-01	 1.00000000E+00
					 5.00000000E-01	 1.00000000E+00	 1.00000000E+00
					 1.00000000E+00	 7.50000000E-01	-5.96046000E-08
					 1.00000000E+00	 5.00000000E-01	 5.00000000E-01
					 1.00000000E+00	 7.50000000E-01	 1.00000000E+00
					 1.00000000E+00	 1.00000000E+00	 5.00000000E-01
					 7.50000000E-01	 1.00000000E+00	-5.96046000E-08
					 7.50000000E-01	 5.00000000E-01	-5.96046000E-08
					 7.50000000E-01	 5.00000000E-01	 1.00000000E+00
					 7.50000000E-01	 1.00000000E+00	 1.00000000E+00
					 5.00000000E-01	 7.50000000E-01	-5.96046000E-08
					 5.00000000E-01	 5.00000000E-01	 5.00000000E-01
					 5.00000000E-01	 7.50000000E-01	 1.00000000E+00
					 5.00000000E-01	 1.00000000E+00	 5.00000000E-01
					 1.00000000E+00	-1.49012000E-08	-5.96046000E-08
					 1.00000000E+00	-1.49012000E-08	 1.00000000E+00
					 5.00000000E-01	-1.49012000E-08	-5.96046000E-08
					 5.00000000E-01	-1.49012000E-08	 1.00000000E+00
					 1.00000000E+00	 2.50000000E-01	-5.96046000E-08
					 1.00000000E+00	-1.49012000E-08	 5.00000000E-01
					 1.00000000E+00	 2.50000000E-01	 1.00000000E+00
					 7.50000000E-01	-1.49012000E-08	-5.96046000E-08
					 7.50000000E-01	-1.49012000E-08	 1.00000000E+00
					 5.00000000E-01	 2.50000000E-01	-5.96046000E-08
					 5.00000000E-01	-1.49012000E-08	 5.00000000E-01
					 5.00000000E-01	 2.50000000E-01	 1.00000000E+00
					-7.45058000E-09	 1.00000000E+00	-5.96046000E-08
					-7.45058000E-09	 5.00000000E-01	-5.96046000E-08
					-7.45058000E-09	 5.00000000E-01	 1.00000000E+00
					-7.45058000E-09	 1.00000000E+00	 1.00000000E+00
					 2.50000000E-01	 1.00000000E+00	-5.96046000E-08
					 2.50000000E-01	 5.00000000E-01	-5.96046000E-08
					 2.50000000E-01	 5.00000000E-01	 1.00000000E+00
					 2.50000000E-01	 1.00000000E+00	 1.00000000E+00
					-7.45058000E-09	 7.50000000E-01	-5.96046000E-08
					-7.45058000E-09	 5.00000000E-01	 5.00000000E-01
					-7.45058000E-09	 7.50000000E-01	 1.00000000E+00
					-7.45058000E-09	 1.00000000E+00	 5.00000000E-01
					-7.45058000E-09	-1.49012000E-08	-5.96046000E-08
					-7.45058000E-09	-1.49012000E-08	 1.00000000E+00
					 2.50000000E-01	-1.49012000E-08	-5.96046000E-08
					 2.50000000E-01	-1.49012000E-08	 1.00000000E+00
					-7.45058000E-09	 2.50000000E-01	-5.96046000E-08
					-7.45058000E-09	-1.49012000E-08	 5.00000000E-01
					-7.45058000E-09	 2.50000000E-01	 1.00000000E+00
					 1.00000000E+00	 5.00000000E-01	 2.00000000E+00
					 1.00000000E+00	 1.00000000E+00	 2.00000000E+00
					 5.00000000E-01	 5.00000000E-01	 2.00000000E+00
					 5.00000000E-01	 1.00000000E+00	 2.00000000E+00
					 1.00000000E+00	 5.00000000E-01	 1.50000000E+00
					 1.00000000E+00	 7.50000000E-01	 2.00000000E+00
					 1.00000000E+00	 1.00000000E+00	 1.50000000E+00
					 7.50000000E-01	 5.00000000E-01	 2.00000000E+00
					 7.50000000E-01	 1.00000000E+00	 2.00000000E+00
					 5.00000000E-01	 5.00000000E-01	 1.50000000E+00
					 5.00000000E-01	 7.50000000E-01	 2.00000000E+00
					 5.00000000E-01	 1.00000000E+00	 1.50000000E+00
					 1.00000000E+00	-1.49012000E-08	 2.00000000E+00
					 5.00000000E-01	-1.49012000E-08	 2.00000000E+00
					 1.00000000E+00	-1.49012000E-08	 1.50000000E+00
					 1.00000000E+00	 2.50000000E-01	 2.00000000E+00
					 7.50000000E-01	-1.49012000E-08	 2.00000000E+00
					 5.00000000E-01	-1.49012000E-08	 1.50000000E+00
					 5.00000000E-01	 2.50000000E-01	 2.00000000E+00
					-7.45058000E-09	 5.00000000E-01	 2.00000000E+00
					-7.45058000E-09	 1.00000000E+00	 2.00000000E+00
					 2.50000000E-01	 5.00000000E-01	 2.00000000E+00
					 2.50000000E-01	 1.00000000E+00	 2.00000000E+00
					-7.45058000E-09	 5.00000000E-01	 1.50000000E+00
					-7.45058000E-09	 7.50000000E-01	 2.00000000E+00
					-7.45058000E-09	 1.00000000E+00	 1.50000000E+00
					-7.45058000E-09	-1.49012000E-08	 2.00000000E+00
					 2.50000000E-01	-1.49012000E-08	 2.00000000E+00
					-7.45058000E-09	-1.49012000E-08	 1.50000000E+00
					-7.45058000E-09	 2.50000000E-01	 2.00000000E+00
					 1.00000000E+00	 5.00000000E-01	 3.00000000E+00
					 1.00000000E+00	 1.00000000E+00	 3.00000000E+00
					 5.00000000E-01	 5.00000000E-01	 3.00000000E+00
					 5.00000000E-01	 1.00000000E+00	 3.00000000E+00
					 1.00000000E+00	 5.00000000E-01	 2.50000000E+00
					 1.00000000E+00	 7.50000000E-01	 3.00000000E+00
					 1.00000000E+00	 1.00000000E+00	 2.50000000E+00
					 7.50000000E-01	 5.00000000E-01	 3.00000000E+00
					 7.50000000E-01	 1.00000000E+00	 3.00000000E+00
					 5.00000000E-01	 5.00000000E-01	 2.50000000E+00
					 5.00000000E-01	 7.50000000E-01	 3.00000000E+00
					 5.00000000E-01	 1.00000000E+00	 2.50000000E+00
					 1.00000000E+00	-1.49012000E-08	 3.00000000E+00
					 5.00000000E-01	-1.49012000E-08	 3.00000000E+00
					 1.00000000E+00	-1.49012000E-08	 2.50000000E+00
					 1.00000000E+00	 2.50000000E-01	 3.00000000E+00
					 7.50000000E-01	-1.49012000E-08	 3.00000000E+00
					 5.00000000E-01	-1.49012000E-08	 2.50000000E+00
					 5.00000000E-01	 2.50000000E-01	 3.00000000E+00
					-7.45058000E-09	 5.00000000E-01	 3.00000000E+00
					-7.45058000E-09	 1.00000000E+00	 3.00000000E+00
					 2.50000000E-01	 5.00000000E-01	 3.00000000E+00
					 2.50000000E-01	 1.00000000E+00	 3.00000000E+00
					-7.45058000E-09	 5.00000000E-01	 2.50000000E+00
					-7.45058000E-09	 7.50000000E-01	 3.00000000E+00
					-7.45058000E-09	 1.00000000E+00	 2.50000000E+00
					-7.45058000E-09	-1.49012000E-08	 3.00000000E+00
					 2.50000000E-01	-1.49012000E-08	 3.00000000E+00
					-7.45058000E-09	-1.49012000E-08	 2.50000000E+00
					-7.45058000E-09	 2.50000000E-01	 3.00000000E+00
					 1.00000000E+00	 5.00000000E-01	 4.00000000E+00
					 1.00000000E+00	 1.00000000E+00	 4.00000000E+00
					 5.00000000E-01	 5.00000000E-01	 4.00000000E+00
					 5.00000000E-01	 1.00000000E+00	 4.00000000E+00
					 1.00000000E+00	 5.00000000E-01	 3.50000000E+00
					 1.00000000E+00	 7.50000000E-01	 4.00000000E+00
					 1.00000000E+00	 1.00000000E+00	 3.50000000E+00
					 7.50000000E-01	 5.00000000E-01	 4.00000000E+00
					 7.50000000E-01	 1.00000000E+00	 4.00000000E+00
					 5.00000000E-01	 5.00000000E-01	 3.50000000E+00
					 5.00000000E-01	 7.50000000E-01	 4.00000000E+00
					 5.00000000E-01	 1.00000000E+00	 3.50000000E+00
					 1.00000000E+00	-1.49012000E-08	 4.00000000E+00
					 5.00000000E-01	-1.49012000E-08	 4.00000000E+00
					 1.00000000E+00	-1.49012000E-08	 3.50000000E+00
					 1.00000000E+00	 2.50000000E-01	 4.00000000E+00
					 7.50000000E-01	-1.49012000E-08	 4.00000000E+00
					 5.00000000E-01	-1.49012000E-08	 3.50000000E+00
					 5.00000000E-01	 2.50000000E-01	 4.00000000E+00
					-7.45058000E-09	 5.00000000E-01	 4.00000000E+00
					-7.45058000E-09	 1.00000000E+00	 4.00000000E+00
					 2.50000000E-01	 5.00000000E-01	 4.00000000E+00
					 2.50000000E-01	 1.00000000E+00	 4.00000000E+00
					-7.45058000E-09	 5.00000000E-01	 3.50000000E+00
					-7.45058000E-09	 7.50000000E-01	 4.00000000E+00
					-7.45058000E-09	 1.00000000E+00	 3.50000000E+00
					-7.45058000E-09	-1.49012000E-08	 4.00000000E+00
					 2.50000000E-01	-1.49012000E-08	 4.00000000E+00
					-7.45058000E-09	-1.49012000E-08	 3.50000000E+00
					-7.45058000E-09	 2.50000000E-01	 4.00000000E+00
					 1.00000000E+00	 5.00000000E-01	 5.00000000E+00
					 1.00000000E+00	 1.00000000E+00	 5.00000000E+00
					 5.00000000E-01	 5.00000000E-01	 5.00000000E+00
					 5.00000000E-01	 1.00000000E+00	 5.00000000E+00
					 1.00000000E+00	 5.00000000E-01	 4.50000000E+00
					 1.00000000E+00	 7.50000000E-01	 5.00000000E+00
					 1.00000000E+00	 1.00000000E+00	 4.50000000E+00
					 7.50000000E-01	 5.00000000E-01	 5.00000000E+00
					 7.50000000E-01	 1.00000000E+00	 5.00000000E+00
					 5.00000000E-01	 5.00000000E-01	 4.50000000E+00
					 5.00000000E-01	 7.50000000E-01	 5.00000000E+00
					 5.00000000E-01	 1.00000000E+00	 4.50000000E+00
					 1.00000000E+00	-1.49012000E-08	 5.00000000E+00
					 5.00000000E-01	-1.49012000E-08	 5.00000000E+00
					 1.00000000E+00	-1.49012000E-08	 4.50000000E+00
					 1.00000000E+00	 2.50000000E-01	 5.00000000E+00
					 7.50000000E-01	-1.49012000E-08	 5.00000000E+00
					 5.00000000E-01	-1.49012000E-08	 4.50000000E+00
					 5.00000000E-01	 2.50000000E-01	 5.00000000E+00
					-7.45058000E-09	 5.00000000E-01	 5.00000000E+00
					-7.45058000E-09	 1.00000000E+00	 5.00000000E+00
					 2.50000000E-01	 5.00000000E-01	 5.00000000E+00
					 2.50000000E-01	 1.00000000E+00	 5.00000000E+00
					-7.45058000E-09	 5.00000000E-01	 4.50000000E+00
					-7.45058000E-09	 7.50000000E-01	 5.00000000E+00
					-7.45058000E-09	 1.00000000E+00	 4.50000000E+00
					-7.45058000E-09	-1.49012000E-08	 5.00000000E+00
					 2.50000000E-01	-1.49012000E-08	 5.00000000E+00
					-7.45058000E-09	-1.49012000E-08	 4.50000000E+00
					-7.45058000E-09	 2.50000000E-01	 5.00000000E+00
					 1.00000000E+00	 5.00000000E-01	 6.00000000E+00
					 1.00000000E+00	 1.00000000E+00	 6.00000000E+00
					 5.00000000E-01	 5.00000000E-01	 6.00000000E+00
					 5.00000000E-01	 1.00000000E+00	 6.00000000E+00
					 1.00000000E+00	 5.00000000E-01	 5.50000000E+00
					 1.00000000E+00	 7.50000000E-01	 6.00000000E+00
					 1.00000000E+00	 1.00000000E+00	 5.50000000E+00
					 7.50000000E-01	 5.00000000E-01	 6.00000000E+00
					 7.50000000E-01	 1.00000000E+00	 6.00000000E+00
					 5.00000000E-01	 5.00000000E-01	 5.50000000E+00
					 5.00000000E-01	 7.50000000E-01	 6.00000000E+00
					 5.00000000E-01	 1.00000000E+00	 5.50000000E+00
					 1.00000000E+00	-1.49012000E-08	 6.00000000E+00
[...]
			<PointData>
				<DataArray type="Float32" Name="U" NumberOfComponents="3" ComponentName0="D1" ComponentName1="D2" ComponentName2="D3" format="ascii">
					 0.00000000E+00	 0.00000000E+00	 0.00000000E+00
					 0.00000000E+00	 0.00000000E+00	 0.00000000E+00
					 2.71400000E-06	 2.17875000E-03	 6.24697000E-05
					-1.22617000E-04	 2.39638000E-03	-2.62738000E-03
					 0.00000000E+00	 0.00000000E+00	 0.00000000E+00
					 0.00000000E+00	 0.00000000E+00	 0.00000000E+00
					 1.30782000E-05	 1.78154000E-03	 7.63804000E-05
					-6.32467000E-04	 2.01656000E-03	-2.61074000E-03
					 0.00000000E+00	 0.00000000E+00	 0.00000000E+00
					-8.35751000E-06	 2.99845000E-04	 3.13520000E-05
					-6.03080000E-05	 2.20894000E-03	-1.28303000E-03
					 9.19549000E-05	 5.12826000E-04	-1.10725000E-03
					 0.00000000E+00	 0.00000000E+00	 0.00000000E+00
					 0.00000000E+00	 0.00000000E+00	 0.00000000E+00
					 7.52541000E-06	 2.05461000E-03	 6.96000000E-05
					-3.79452000E-04	 2.28285000E-03	-2.66006000E-03
					 0.00000000E+00	 0.00000000E+00	 0.00000000E+00
					 2.56997000E-06	 1.78437000E-04	 3.55207000E-05
					-3.08397000E-04	 1.81860000E-03	-1.31174000E-03
					-3.09655000E-04	 3.97954000E-04	-1.04624000E-03
					 0.00000000E+00	 0.00000000E+00	 0.00000000E+00
					 1.25115000E-04	 2.43389000E-03	 2.74941000E-03
					 0.00000000E+00	 0.00000000E+00	 0.00000000E+00
					 6.56675000E-04	 2.05824000E-03	 2.75927000E-03
					 0.00000000E+00	 0.00000000E+00	 0.00000000E+00
					-1.12267000E-04	 5.37956000E-04	 1.17465000E-03
					 6.50435000E-05	 2.22831000E-03	 1.40645000E-03
					 0.00000000E+00	 0.00000000E+00	 0.00000000E+00
					 3.92420000E-04	 2.32298000E-03	 2.79557000E-03
					 0.00000000E+00	 0.00000000E+00	 0.00000000E+00
					 3.12374000E-04	 4.27765000E-04	 1.12245000E-03
					 3.34198000E-04	 1.84042000E-03	 1.46244000E-03
					 0.00000000E+00	 0.00000000E+00	 0.00000000E+00
					 0.00000000E+00	 0.00000000E+00	 0.00000000E+00
					 2.51143000E-05	 8.89627000E-04	 9.03465000E-05
					-1.12899000E-03	 1.11524000E-03	-2.60046000E-03
					 0.00000000E+00	 0.00000000E+00	 0.00000000E+00
					 0.00000000E+00	 0.00000000E+00	 0.00000000E+00
					 1.88294000E-05	 1.41194000E-03	 8.26935000E-05
					-8.78405000E-04	 1.63924000E-03	-2.52659000E-03
					 0.00000000E+00	 0.00000000E+00	 0.00000000E+00
					 1.57532000E-05	-3.22135000E-04	 4.44513000E-05
					-5.54423000E-04	 9.24296000E-04	-1.37620000E-03
					-6.83208000E-04	-8.81351000E-05	-1.09414000E-03
					 0.00000000E+00	 0.00000000E+00	 0.00000000E+00
					 1.17809000E-03	 1.16013000E-03	 2.77600000E-03
					 0.00000000E+00	 0.00000000E+00	 0.00000000E+00
					 9.14210000E-04	 1.68213000E-03	 2.68763000E-03
					 0.00000000E+00	 0.00000000E+00	 0.00000000E+00
					 7.13418000E-04	-5.34940000E-05	 1.18759000E-03
					 6.04542000E-04	 9.48444000E-04	 1.55434000E-03
					 2.20810000E-05	 1.20453000E-02	 7.70653000E-05
					-8.35656000E-04	 1.22549000E-02	-6.43441000E-03
					 3.17262000E-05	 1.09021000E-02	 9.40977000E-05
					-1.37940000E-03	 1.11192000E-02	-6.43169000E-03
					 1.67499000E-05	 6.00765000E-03	 8.10457000E-05
					-4.10374000E-04	 1.20809000E-02	-3.07316000E-03
					-4.20901000E-04	 6.23946000E-03	-4.50435000E-03
					 2.68610000E-05	 1.15424000E-02	 8.45579000E-05
					-1.10738000E-03	 1.17574000E-02	-6.50445000E-03
					 2.56958000E-05	 5.27515000E-03	 9.69060000E-05
					-6.74126000E-04	 1.09396000E-02	-3.13161000E-03
					-9.88222000E-04	 5.51503000E-03	-4.48688000E-03
					 8.77646000E-04	 1.23644000E-02	 6.58002000E-03
					 1.44252000E-03	 1.12302000E-02	 6.61087000E-03
					 4.51780000E-04	 6.30600000E-03	 4.66135000E-03
					 4.53542000E-04	 1.21335000E-02	 3.22602000E-03
					 1.16025000E-03	 1.18697000E-02	 6.66417000E-03
					 1.03880000E-03	 5.58276000E-03	 4.67452000E-03
					 7.37514000E-04	 1.09948000E-02	 3.31800000E-03
					 4.22958000E-05	 9.22342000E-03	 1.17530000E-04
					-1.92761000E-03	 9.42619000E-03	-6.39421000E-03
					 3.69256000E-05	 1.01305000E-02	 1.05098000E-04
					-1.65422000E-03	 1.03460000E-02	-6.36580000E-03
					 3.59797000E-05	 3.98060000E-03	 1.16391000E-04
					-9.37606000E-04	 9.25369000E-03	-3.15092000E-03
					-1.55343000E-03	 4.21117000E-03	-4.46971000E-03
					 2.01387000E-03	 9.53804000E-03	 6.62028000E-03
					 1.72830000E-03	 1.04563000E-02	 6.56724000E-03
					 1.62670000E-03	 4.28126000E-03	 4.69576000E-03
					 1.02301000E-03	 9.31042000E-03	 3.38394000E-03
					 6.96249000E-06	 2.97407000E-02	-2.43108000E-05
					-1.80965000E-03	 2.97981000E-02	-9.41218000E-03
					 1.79873000E-05	 2.77937000E-02	 3.93996000E-06
					-2.07703000E-03	 2.78367000E-02	-9.41133000E-03
					 1.76868000E-05	 2.01658000E-02	 4.11955000E-05
					-8.97586000E-04	 2.97370000E-02	-4.60897000E-03
					-1.35059000E-03	 2.03028000E-02	-8.10967000E-03
					 1.22581000E-05	 2.88040000E-02	-1.08942000E-05
					-1.94414000E-03	 2.88489000E-02	-9.46512000E-03
					 2.76704000E-05	 1.85840000E-02	 6.25658000E-05
					-1.03013000E-03	 2.77817000E-02	-4.64362000E-03
					-1.76943000E-03	 1.87167000E-02	-8.11854000E-03
					 1.82085000E-03	 2.99974000E-02	 9.35613000E-03
					 2.11165000E-03	 2.80409000E-02	 9.41221000E-03
					 1.38337000E-03	 2.04586000E-02	 8.18251000E-03
					 9.10768000E-04	 2.98325000E-02	 4.55851000E-03
					 1.96668000E-03	 2.90530000E-02	 9.43601000E-03
					 1.82394000E-03	 1.88761000E-02	 8.23423000E-03
					 1.06585000E-03	 2.78817000E-02	 4.64967000E-03
					 3.07909000E-05	 2.55523000E-02	 3.70698000E-05
					-2.35964000E-03	 2.55895000E-02	-9.35042000E-03
					 2.40669000E-05	 2.67081000E-02	 1.98717000E-05
					-2.21888000E-03	 2.67492000E-02	-9.36259000E-03
					 3.90902000E-05	 1.65725000E-02	 9.04133000E-05
					-1.16456000E-03	 2.55363000E-02	-4.61901000E-03
					-2.19757000E-03	 1.66964000E-02	-8.06019000E-03
					 2.42097000E-03	 2.57953000E-02	 9.41788000E-03
					 2.26625000E-03	 2.69537000E-02	 9.39564000E-03
					 2.27659000E-03	 1.68569000E-02	 8.23219000E-03
					 1.22623000E-03	 2.56378000E-02	 4.69137000E-03
					-1.21315000E-05	 5.05190000E-02	-1.92952000E-04
					-2.05277000E-03	 5.04831000E-02	-1.08610000E-02
					-1.59795000E-06	 4.84199000E-02	-1.60646000E-04
					-2.17933000E-03	 4.83691000E-02	-1.08307000E-02
					-2.83324000E-06	 4.00109000E-02	-1.05796000E-04
					-1.02861000E-03	 5.04848000E-02	-5.54809000E-03
					-2.06182000E-03	 4.00217000E-02	-1.02437000E-02
					-6.71613000E-06	 4.94881000E-02	-1.76755000E-04
					-2.11644000E-03	 4.94406000E-02	-1.08222000E-02
					 8.30852000E-06	 3.78794000E-02	-7.24360000E-05
					-1.09145000E-03	 4.83787000E-02	-5.49389000E-03
					-2.22198000E-03	 3.78689000E-02	-1.02257000E-02
					 2.02698000E-03	 5.07334000E-02	 1.04703000E-02
					 2.17561000E-03	 4.86209000E-02	 1.05053000E-02
					 2.05371000E-03	 4.02504000E-02	 1.00262000E-02
					 1.00381000E-03	 5.06109000E-02	 5.16057000E-03
					 2.10186000E-03	 4.96909000E-02	 1.04645000E-02
					 2.23751000E-03	 3.81010000E-02	 1.00754000E-02
					 1.08803000E-03	 4.85048000E-02	 5.17143000E-03
					 9.22134000E-06	 4.61642000E-02	-1.25492000E-04
					-2.32486000E-03	 4.61082000E-02	-1.07928000E-02
					 3.67092000E-06	 4.73085000E-02	-1.43688000E-04
					-2.25283000E-03	 4.72561000E-02	-1.08336000E-02
					 2.03778000E-05	 3.55519000E-02	-3.60389000E-05
					-1.15762000E-03	 4.61198000E-02	-5.43539000E-03
					-2.40693000E-03	 3.55348000E-02	-1.01735000E-02
					 2.34395000E-03	 4.63598000E-02	 1.05379000E-02
					 2.26030000E-03	 4.75089000E-02	 1.05421000E-02
					 2.44772000E-03	 3.57676000E-02	 1.00960000E-02
					 1.17622000E-03	 4.62447000E-02	 5.18349000E-03
					-4.15604000E-05	 7.23751000E-02	-3.92271000E-04
					-1.51310000E-03	 7.23130000E-02	-1.21277000E-02
					-3.45396000E-05	 7.08233000E-02	-3.73006000E-04
					-1.66605000E-03	 7.07584000E-02	-1.21129000E-02
					-2.47353000E-05	 6.12245000E-02	-2.85380000E-04
					-7.77866000E-04	 7.23209000E-02	-6.30705000E-03
					-1.83293000E-03	 6.11761000E-02	-1.14799000E-02
					-3.82143000E-05	 7.16211000E-02	-3.83390000E-04
					-1.58976000E-03	 7.15591000E-02	-1.20660000E-02
					-1.58118000E-05	 5.93432000E-02	-2.59465000E-04
					-8.50315000E-04	 7.07681000E-02	-6.23485000E-03
					-1.97813000E-03	 5.92866000E-02	-1.14512000E-02
					 1.42751000E-03	 7.26009000E-02	 1.13378000E-02
					 1.59512000E-03	 7.10503000E-02	 1.13621000E-02
					 1.78193000E-03	 6.14452000E-02	 1.09038000E-02
					 6.94040000E-04	 7.24669000E-02	 5.52137000E-03
					 1.51111000E-03	 7.18465000E-02	 1.12941000E-02
					 1.94563000E-03	 5.95575000E-02	 1.09277000E-02
					 7.80755000E-04	 7.09139000E-02	 5.48779000E-03
					-2.60967000E-05	 6.91134000E-02	-3.50389000E-04
					-1.82565000E-03	 6.90395000E-02	-1.20849000E-02
					-3.04962000E-05	 6.99893000E-02	-3.61881000E-04
					-1.74638000E-03	 6.99209000E-02	-1.21570000E-02
					-6.17424000E-06	 5.73005000E-02	-2.30053000E-04
					-9.23381000E-04	 6.90554000E-02	-6.15185000E-03
					-2.13759000E-03	 5.72354000E-02	-1.14234000E-02
					 1.77241000E-03	 6.93341000E-02	 1.13802000E-02
					 1.68395000E-03	 7.02170000E-02	 1.14289000E-02
					 2.12537000E-03	 5.75071000E-02	 1.09596000E-02
					 8.71010000E-04	 6.91997000E-02	 5.45020000E-03
					-6.70632000E-05	 9.62893000E-02	-6.58918000E-04
					-8.17758000E-04	 9.61555000E-02	-1.31963000E-02
					-6.38082000E-05	 9.55095000E-02	-6.48242000E-04
					-8.72257000E-04	 9.53752000E-02	-1.32008000E-02
					-5.69440000E-05	 8.40992000E-02	-5.18573000E-04
					-4.42251000E-04	 9.62149000E-02	-6.94863000E-03
					-1.16447000E-03	 8.40004000E-02	-1.27372000E-02
					-6.55653000E-05	 9.59062000E-02	-6.53464000E-04
					-8.45114000E-04	 9.57738000E-02	-1.31463000E-02
					-5.18715000E-05	 8.29299000E-02	-5.03593000E-04
					-4.67597000E-04	 9.54362000E-02	-6.89144000E-03
					-1.28173000E-03	 8.28300000E-02	-1.27345000E-02
					 6.81185000E-04	 9.64760000E-02	 1.18773000E-02
					 7.43311000E-04	 9.57002000E-02	 1.19029000E-02
					 1.04773000E-03	 8.43068000E-02	 1.16968000E-02
					 3.07553000E-04	 9.63762000E-02	 5.63051000E-03
					 7.11923000E-04	 9.60942000E-02	 1.18382000E-02
					 1.17605000E-03	 8.31416000E-02	 1.17240000E-02
					 3.39686000E-04	 9.55972000E-02	 5.59464000E-03
					-5.90089000E-05	 9.46734000E-02	-6.37802000E-04
					-9.21717000E-04	 9.45402000E-02	-1.31754000E-02
					-6.17037000E-05	 9.50985000E-02	-6.43119000E-04
					-8.97110000E-04	 9.49622000E-02	-1.32600000E-02
					-4.51649000E-05	 8.16410000E-02	-4.86686000E-04
					-4.90673000E-04	 9.46027000E-02	-6.80368000E-03
					-1.39957000E-03	 8.15358000E-02	-1.27052000E-02
					 8.03379000E-04	 9.48662000E-02	 1.18982000E-02
					 7.73077000E-04	 9.52917000E-02	 1.19720000E-02
					 1.30807000E-03	 8.18500000E-02	 1.17286000E-02
					 3.72636000E-04	 9.47604000E-02	 5.52789000E-03
					-7.61304000E-05	 1.21074000E-01	-9.53643000E-04
					-2.28508000E-04	 1.20887000E-01	-1.34233000E-02
					-7.60995000E-05	 1.20947000E-01	-9.52391000E-04
					-1.78746000E-04	 1.20761000E-01	-1.34253000E-02
					-7.30267000E-05	 1.08708000E-01	-8.05873000E-04
					-1.52248000E-04	 1.20987000E-01	-7.21974000E-03
					-5.02177000E-04	 1.08544000E-01	-1.33941000E-02
					-7.59698000E-05	 1.21002000E-01	-9.52736000E-04
					-2.03451000E-04	 1.20817000E-01	-1.33856000E-02
					-7.16633000E-05	 1.08284000E-01	-8.00277000E-04
					-1.26618000E-04	 1.20862000E-01	-7.18158000E-03
					-4.91281000E-04	 1.08120000E-01	-1.34016000E-02
					 7.42775000E-05	 1.21201000E-01	 1.15155000E-02
					 2.53644000E-05	 1.21079000E-01	 1.15199000E-02
					 3.53912000E-04	 1.08867000E-01	 1.17824000E-02
					-6.05846000E-07	 1.21146000E-01	 5.31202000E-03
					 4.98939000E-05	 1.21132000E-01	 1.14795000E-02
					 3.47012000E-04	 1.08447000E-01	 1.18010000E-02
					-2.58943000E-05	 1.21022000E-01	 5.27633000E-03
					-7.47500000E-05	 1.20870000E-01	-9.52681000E-04
					-1.14367000E-04	 1.20693000E-01	-1.34227000E-02
					-7.58655000E-05	 1.20901000E-01	-9.52209000E-04
					-1.46304000E-04	 1.20716000E-01	-1.34646000E-02
					-6.89653000E-05	 1.07870000E-01	-7.96658000E-04
					-9.68609000E-05	 1.20791000E-01	-7.13941000E-03
					-4.69173000E-04	 1.07714000E-01	-1.33851000E-02
					-3.55344000E-05	 1.21013000E-01	 1.15162000E-02
					-6.15420000E-06	 1.21037000E-01	 1.15598000E-02
					 3.31660000E-04	 1.08040000E-01	 1.17914000E-02
					-5.27294000E-05	 1.20949000E-01	 5.23314000E-03
					-7.46055000E-05	 1.45357000E-01	-1.24554000E-03
					 1.19562000E-04	 1.45187000E-01	-1.34861000E-02
					-7.15591000E-05	 1.45537000E-01	-1.24853000E-03
					 1.21224000E-04	 1.45380000E-01	-1.34803000E-02
					-7.59179000E-05	 1.33220000E-01	-1.09847000E-03
					 2.41079000E-05	 1.45273000E-01	-7.38610000E-03
					 3.41666000E-06	 1.33051000E-01	-1.34164000E-02
					-7.34245000E-05	 1.45445000E-01	-1.24718000E-03
					 1.18911000E-04	 1.45282000E-01	-1.34724000E-02
					-7.52595000E-05	 1.33314000E-01	-1.10047000E-03
					 2.53740000E-05	 1.45460000E-01	-7.37514000E-03
					 3.81721000E-05	 1.33149000E-01	-1.34127000E-02
					-2.66665000E-04	 1.45481000E-01	 1.09901000E-02
					-2.65593000E-04	 1.45673000E-01	 1.09774000E-02
					-1.55024000E-04	 1.33356000E-01	 1.12152000E-02
					-1.72756000E-04	 1.45420000E-01	 4.89364000E-03
					-2.65062000E-04	 1.45574000E-01	 1.09730000E-02
					-1.89978000E-04	 1.33454000E-01	 1.12071000E-02
					-1.68944000E-04	 1.45605000E-01	 4.87657000E-03
					-6.81570000E-05	 1.45744000E-01	-1.24805000E-03
					 1.46518000E-04	 1.45596000E-01	-1.34897000E-02
					-6.95373000E-05	 1.45640000E-01	-1.24897000E-03
					 1.35690000E-04	 1.45485000E-01	-1.34858000E-02
					-7.40958000E-05	 1.33448000E-01	-1.10090000E-03
					 3.61217000E-05	 1.45671000E-01	-7.37803000E-03
					 8.72667000E-05	 1.33291000E-01	-1.34193000E-02
					-2.87263000E-04	 1.45893000E-01	 1.09866000E-02
					-2.78001000E-04	 1.45778000E-01	 1.09816000E-02
					-2.38348000E-04	 1.33600000E-01	 1.12124000E-02
					-1.73550000E-04	 1.45820000E-01	 4.87989000E-03
					 0.00000000E+00	 0.00000000E+00	 0.00000000E+00
					 0.00000000E+00	 0.00000000E+00	 0.00000000E+00
					-9.36562000E-05	-6.23778000E-03	-1.07973000E-04
					-1.93687000E-03	-6.72878000E-03	 7.04366000E-03
					 0.00000000E+00	 0.00000000E+00	 0.00000000E+00
					 0.00000000E+00	 0.00000000E+00	 0.00000000E+00
					-1.15149000E-04	-7.56573000E-03	-2.14939000E-04
					-9.54789000E-04	-8.08240000E-03	 7.00945000E-03
					 0.00000000E+00	 0.00000000E+00	 0.00000000E+00
					-1.37336000E-05	-1.00156000E-03	-3.75336000E-05
					-1.01815000E-03	-6.31219000E-03	 3.49639000E-03
					-1.48690000E-03	-1.63129000E-03	 3.49832000E-03
					 0.00000000E+00	 0.00000000E+00	 0.00000000E+00
					 0.00000000E+00	 0.00000000E+00	 0.00000000E+00
					-1.01839000E-04	-7.06689000E-03	-1.65017000E-04
					-1.43630000E-03	-7.56968000E-03	 6.93988000E-03
					 0.00000000E+00	 0.00000000E+00	 0.00000000E+00
					-3.66782000E-05	-1.89663000E-03	-8.71448000E-05
					-5.37476000E-04	-7.64593000E-03	 3.33899000E-03
					-4.42751000E-04	-2.50214000E-03	 3.34132000E-03
					 0.00000000E+00	 0.00000000E+00	 0.00000000E+00
					 1.74920000E-03	-6.63580000E-03	-7.27716000E-03
					 0.00000000E+00	 0.00000000E+00	 0.00000000E+00
					 7.35089000E-04	-8.00694000E-03	-7.45528000E-03
					 0.00000000E+00	 0.00000000E+00	 0.00000000E+00
					 1.46546000E-03	-1.61448000E-03	-3.58436000E-03
					 8.28281000E-04	-6.26353000E-03	-3.71744000E-03
					 0.00000000E+00	 0.00000000E+00	 0.00000000E+00
					 1.23867000E-03	-7.48447000E-03	-7.28614000E-03
					 0.00000000E+00	 0.00000000E+00	 0.00000000E+00
					 3.82156000E-04	-2.51482000E-03	-3.52541000E-03
					 3.07386000E-04	-7.60692000E-03	-3.77380000E-03
					 0.00000000E+00	 0.00000000E+00	 0.00000000E+00
					 0.00000000E+00	 0.00000000E+00	 0.00000000E+00
					-1.46380000E-04	-7.92364000E-03	-3.02667000E-04
					 2.31767000E-05	-8.39192000E-03	 6.85459000E-03
					 0.00000000E+00	 0.00000000E+00	 0.00000000E+00
					 0.00000000E+00	 0.00000000E+00	 0.00000000E+00
					-1.28798000E-04	-7.90906000E-03	-2.59445000E-04
					-4.70673000E-04	-8.39836000E-03	 7.00280000E-03
					 0.00000000E+00	 0.00000000E+00	 0.00000000E+00
					-7.58133000E-05	-1.82464000E-03	-1.37086000E-04
					-6.32001000E-05	-7.98507000E-03	 3.14838000E-03
					 6.15281000E-04	-2.39599000E-03	 3.39855000E-03
					 0.00000000E+00	 0.00000000E+00	 0.00000000E+00
					-2.97642000E-04	-8.33460000E-03	-7.46960000E-03
					 0.00000000E+00	 0.00000000E+00	 0.00000000E+00
					 2.25383000E-04	-8.33456000E-03	-7.53484000E-03
					 0.00000000E+00	 0.00000000E+00	 0.00000000E+00
					-7.50017000E-04	-2.43425000E-03	-3.68555000E-03
					-2.23894000E-04	-7.95768000E-03	-3.75578000E-03
					-3.21214000E-04	-2.74078000E-02	-4.40708000E-04
					-2.66139000E-03	-2.79037000E-02	 1.27476000E-02
					-3.34525000E-04	-2.93846000E-02	-6.12675000E-04
					-1.97735000E-03	-2.98833000E-02	 1.26303000E-02
					-1.98421000E-04	-1.51338000E-02	-2.38516000E-04
					-1.48830000E-03	-2.75732000E-02	 6.05926000E-03
					-2.37256000E-03	-1.56747000E-02	 1.02150000E-02
					-3.27802000E-04	-2.84752000E-02	-5.31910000E-04
					-2.31880000E-03	-2.89740000E-02	 1.26716000E-02
					-2.18219000E-04	-1.68428000E-02	-3.82483000E-04
					-1.15115000E-03	-2.95497000E-02	 5.89933000E-03
					-1.47908000E-03	-1.73865000E-02	 1.01122000E-02
					 2.02473000E-03	-2.75630000E-02	-1.36519000E-02
					 1.30999000E-03	-2.95615000E-02	-1.38775000E-02
					 1.97757000E-03	-1.54672000E-02	-1.07164000E-02
					 8.46595000E-04	-2.74064000E-02	-6.94591000E-03
					 1.66957000E-03	-2.86478000E-02	-1.37560000E-02
					 1.05080000E-03	-1.71960000E-02	-1.09011000E-02
					 4.87364000E-04	-2.93939000E-02	-7.12676000E-03
					-3.59120000E-04	-3.06878000E-02	-7.61898000E-04
					-1.27761000E-03	-3.11472000E-02	 1.24267000E-02
					-3.46203000E-04	-3.01125000E-02	-6.88234000E-04
					-1.62578000E-03	-3.06293000E-02	 1.26050000E-02
					-2.47967000E-04	-1.76604000E-02	-5.03299000E-04
					-8.30027000E-04	-3.08294000E-02	 5.65025000E-03
					-6.00104000E-04	-1.81854000E-02	 9.95223000E-03
					 5.92546000E-04	-3.08578000E-02	-1.39711000E-02
					 9.51337000E-04	-3.02917000E-02	-1.40059000E-02
					 1.27504000E-04	-1.80220000E-02	-1.09793000E-02
					 1.21530000E-04	-3.06933000E-02	-7.17426000E-03
					-5.60586000E-04	-5.83671000E-02	-1.03574000E-03
					-3.12775000E-03	-5.86055000E-02	 1.47399000E-02
					-5.68982000E-04	-6.08731000E-02	-1.21754000E-03
					-3.05682000E-03	-6.12094000E-02	 1.46191000E-02
					-4.43156000E-04	-4.22427000E-02	-7.13934000E-04
					-1.84337000E-03	-5.84754000E-02	 6.76128000E-03
					-2.85789000E-03	-4.26475000E-02	 1.42578000E-02
					-5.63521000E-04	-5.96330000E-02	-1.12387000E-03
					-3.09454000E-03	-5.99281000E-02	 1.46336000E-02
					-4.55018000E-04	-4.44530000E-02	-8.98873000E-04
					-1.83589000E-03	-6.10345000E-02	 6.54812000E-03
					-2.47707000E-03	-4.48635000E-02	 1.41483000E-02
					 1.96697000E-03	-5.81770000E-02	-1.67989000E-02
					 1.91503000E-03	-6.06809000E-02	-1.70746000E-02
					 1.96579000E-03	-4.22231000E-02	-1.57011000E-02
					 7.09076000E-04	-5.82698000E-02	-8.82255000E-03
					 1.93874000E-03	-5.94305000E-02	-1.68968000E-02
					 1.57157000E-03	-4.44262000E-02	-1.59607000E-02
					 6.73679000E-04	-6.07808000E-02	-9.00376000E-03
					-5.83680000E-04	-6.33149000E-02	-1.39978000E-03
					-3.07095000E-03	-6.37667000E-02	 1.43727000E-02
					-5.75729000E-04	-6.21148000E-02	-1.31033000E-03
					-3.06586000E-03	-6.23828000E-02	 1.46230000E-02
					-4.64137000E-04	-4.62766000E-02	-1.07017000E-03
					-1.79506000E-03	-6.35348000E-02	 6.20875000E-03
					-2.11785000E-03	-4.66998000E-02	 1.39063000E-02
					 1.85850000E-03	-6.31491000E-02	-1.72188000E-02
					 1.88660000E-03	-6.19139000E-02	-1.72647000E-02
					 1.15458000E-03	-4.62434000E-02	-1.60622000E-02
					 6.28512000E-04	-6.32456000E-02	-9.05294000E-03
					-7.06003000E-04	-8.91196000E-02	-1.65834000E-03
					-4.19774000E-03	-8.90473000E-02	 1.27621000E-02