<?xml version="1.0"?>
<VTKFile type="UnstructuredGrid" version="0.1" byte_order="LittleEndian">
	<UnstructuredGrid>
		<Piece NumberOfPoints="522" NumberOfCells="64">
			<Points>
				<DataArray type="Float64" NumberOfComponents="3" format="ascii">
					 1.00000000E+00	 1.00000000E+00	-5.96046000E-08
					 1.00000000E+00	 5.00000000E-01	-5.96046000E-08
					 1.00000000E+00	 5.00000000E-01	 1.00000000E+00
					 1.00000000E+00	 1.00000000E+00	 1.00000000E+00
					 5.00000000E-01	 1.00000000E+00	-5.96046000E-08
					 5.00000000E-01	 5.00000000E-01	-5.96046000E-08
					 5.00000000E-01	 5.00000000E-01	 1.00000000E+00
					 5.00000000E-01	 1.00000000E+00	 1.00000000E+00
					 1.00000000E+00	 7.50000000E-01	-5.96046000E-08
					 1.00000000E+00	 5.00000000E-01	 5.00000000E-01
					 1.00000000E+00	 7.50000000E-01	 1.00000000E+00
					 1.00000000E+00	 1.00000000E+00	 5.00000000E-01
					 7.50000000E-01	 1.00000000E+00	-5.96046000E-08
					 7.50000000E-01	 5.00000000E-01	-5.96046000E-08
					 7.50000000E-01	 5.00000000E-01	 1.00000000E+00
					 7.50000000E-01	 1.00000000E+00	 1.00000000E+00
					 5.00000000E-01	 7.50000000E-01	-5.96046000E-08
					 5.00000000E-01	 5.00000000E-01	 5.00000000E-01
					 5.00000000E-01	 7.50000000E-01	 1.00000000E+00
					 5.00000000E-01	 1.00000000E+00	 5.00000000E-01
					 1.00000000E+00	-1.49012000E-08	-5.96046000E-08
					 1.00000000E+00	-1.49012000E-08	 1.00000000E+00
					 5.00000000E-01	-1.49012000E-08	-5.96046000E-08
					 5.00000000E-01	-1.49012000E-08	 1.00000000E+00
					 1.00000000E+00	 2.50000000E-01	-5.96046000E-08
					 1.00000000E+00	-1.49012000E-08	 5.00000000E-01
					 1.00000000E+00	 2.50000000E-01	 1.00000000E+00
					 7.50000000E-01	-1.49012000E-08	-5.96046000E-08
					 7.50000000E-01	-1.49012000E-08	 1.00000000E+00
					 5.00000000E-01	 2.50000000E-01	-5.96046000E-08
					 5.00000000E-01	-1.49012000E-08	 5.00000000E-01
					 5.00000000E-01	 2.50000000E-01	 1.00000000E+00
					-7.45058000E-09	 1.00000000E+00	-5.96046000E-08
					-7.45058000E-09	 5.00000000E-01	-5.96046000E-08
					-7.45058000E-09	 5.00000000E-01	 1.00000000E+00
					-7.45058000E-09	 1.00000000E+00	 1.00000000E+00
					 2.50000000E-01	 1.00000000E+00	-5.96046000E-08
					 2.50000000E-01	 5.00000000E-01	-5.96046000E-08
					 2.50000000E-01	 5.00000000E-01	 1.00000000E+00
					 2.50000000E-01	 1.00000000E+00	 1.00000000E+00
					-7.45058000E-09	 7.50000000E-01	-5.96046000E-08
					-7.45058000E-09	 5.00000000E-01	 5.00000000E-01
					-7.45058000E-09	 7.50000000E-01	 1.00000000E+00
					-7.45058000E-09	 1.00000000E+00	 5.00000000E-01
					-7.45058000E-09	-1.49012000E-08	-5.96046000E-08
					-7.45058000E-09	-1.49012000E-08	 1.00000000E+00
					 2.50000000E-01	-1.49012000E-08	-5.96046000E-08
					 2.50000000E-01	-1.49012000E-08	 1.00000000E+00
					-7.45058000E-09	 2.50000000E-01	-5.96046000E-08
					-7.45058000E-09	-1.49012000E-08	 5.00000000E-01
					-7.45058000E-09	 2.50000000E-01	 1.00000000E+00
					 1.00000000E+00	 5.00000000E-01	 2.00000000E+00
					 1.00000000E+00	 1.00000000E+00	 2.00000000E+00
					 5.00000000E-01	 5.00000000E-01	 2.00000000E+00
					 5.00000000E-01	 1.00000000E+00	 2.00000000E+00
					 1.00000000E+00	 5.00000000E-01	 1.50000000E+00
					 1.00000000E+00	 7.50000000E-01	 2.00000000E+00
					 1.00000000E+00	 1.00000000E+00	 1.50000000E+00
					 7.50000000E-01	 5.00000000E-01	 2.00000000E+00
					 7.50000000E-01	 1.00000000E+00	 2.00000000E+00
					 5.00000000E-01	 5.00000000E-01	 1.50000000E+00
					 5.00000000E-01	 7.50000000E-01	 2.00000000E+00
					 5.00000000E-01	 1.00000000E+00	 1.50000000E+00
					 1.00000000E+00	-1.49012000E-08	 2.00000000E+00
					 5.00000000E-01	-1.49012000E-08	 2.00000000E+00
					 1.00000000E+00	-1.49012000E-08	 1.50000000E+00
					 1.00000000E+00	 2.50000000E-01	 2.00000000E+00
					 7.50000000E-01	-1.49012000E-08	 2.00000000E+00
					 5.00000000E-01	-1.49012000E-08	 1.50000000E+00
					 5.00000000E-01	 2.50000000E-01	 2.00000000E+00
					-7.45058000E-09	 5.00000000E-01	 2.00000000E+00
					-7.45058000E-09	 1.00000000E+00	 2.00000000E+00
					 2.50000000E-01	 5.00000000E-01	 2.00000000E+00
					 2.50000000E-01	 1.00000000E+00	 2.00000000E+00
					-7.45058000E-09	 5.00000000E-01	 1.50000000E+00
					-7.45058000E-09	 7.50000000E-01	 2.00000000E+00
					-7.45058000E-09	 1.00000000E+00	 1.50000000E+00
					-7.45058000E-09	-1.49012000E-08	 2.00000000E+00
					 2.50000000E-01	-1.49012000E-08	 2.00000000E+00
					-7.45058000E-09	-1.49012000E-08	 1.50000000E+00
					-7.45058000E-09	 2.50000000E-01	 2.00000000E+00
					 1.00000000E+00	 5.00000000E-01	 3.00000000E+00
					 1.00000000E+00	 1.00000000E+00	 3.00000000E+00
					 5.00000000E-01	 5.00000000E-01	 3.00000000E+00
					 5.00000000E-01	 1.00000000E+00	 3.00000000E+00
					 1.00000000E+00	 5.00000000E-01	 2.50000000E+00
					 1.00000000E+00	 7.50000000E-01	 3.00000000E+00
					 1.00000000E+00	 1.00000000E+00	 2.50000000E+00
					 7.50000000E-01	 5.00000000E-01	 3.00000000E+00
					 7.50000000E-01	 1.00000000E+00	 3.00000000E+00
					 5.00000000E-01	 5.00000000E-01	 2.50000000E+00
					 5.00000000E-01	 7.50000000E-01	 3.00000000E+00
					 5.00000000E-01	 1.00000000E+00	 2.50000000E+00
					 1.00000000E+00	-1.49012000E-08	 3.00000000E+00
					 5.00000000E-01	-1.49012000E-08	 3.00000000E+00
					 1.00000000E+00	-1.49012000E-08	 2.50000000E+00
					 1.00000000E+00	 2.50000000E-01	 3.00000000E+00
					 7.50000000E-01	-1.49012000E-08	 3.00000000E+00
					 5.00000000E-01	-1.49012000E-08	 2.50000000E+00
					 5.00000000E-01	 2.50000000E-01	 3.00000000E+00
					-7.45058000E-09	 5.00000000E-01	 3.00000000E+00
					-7.45058000E-09	 1.00000000E+00	 3.00000000E+00
					 2.50000000E-01	 5.00000000E-01	 3.00000000E+00
					 2.50000000E-01	 1.00000000E+00	 3.00000000E+00
					-7.45058000E-09	 5.00000000E-01	 2.50000000E+00
					-7.45058000E-09	 7.50000000E-01	 3.00000000E+00
					-7.45058000E-09	 1.00000000E+00	 2.50000000E+00
					-7.45058000E-09	-1.49012000E-08	 3.00000000E+00
					 2.50000000E-01	-1.49012000E-08	 3.00000000E+00
					-7.45058000E-09	-1.49012000E-08	 2.50000000E+00
					-7.45058000E-09	 2.50000000E-01	 3.00000000E+00
					 1.00000000E+00	 5.00000000E-01	 4.00000000E+00
					 1.00000000E+00	 1.00000000E+00	 4.00000000E+00
					 5.00000000E-01	 5.00000000E-01	 4.00000000E+00
					 5.00000000E-01	 1.00000000E+00	 4.00000000E+00
					 1.00000000E+00	 5.00000000E-01	 3.50000000E+00
					 1.00000000E+00	 7.50000000E-01	 4.00000000E+00
					 1.00000000E+00	 1.00000000E+00	 3.50000000E+00
					 7.50000000E-01	 5.00000000E-01	 4.00000000E+00
					 7.50000000E-01	 1.00000000E+00	 4.00000000E+00
					 5.00000000E-01	 5.00000000E-01	 3.50000000E+00
					 5.00000000E-01	 7.50000000E-01	 4.00000000E+00
					 5.00000000E-01	 1.00000000E+00	 3.50000000E+00
					 1.00000000E+00	-1.49012000E-08	 4.00000000E+00
					 5.00000000E-01	-1.49012000E-08	 4.00000000E+00
					 1.00000000E+00	-1.49012000E-08	 3.50000000E+00
					 1.00000000E+00	 2.50000000E-01	 4.00000000E+00
					 7.50000000E-01	-1.49012000E-08	 4.00000000E+00
					 5.00000000E-01	-1.49012000E-08	 3.50000000E+00
					 5.00000000E-01	 2.50000000E-01	 4.00000000E+00
					-7.45058000E-09	 5.00000000E-01	 4.00000000E+00
					-7.45058000E-09	 1.00000000E+00	 4.00000000E+00
					 2.50000000E-01	 5.00000000E-01	 4.00000000E+00
					 2.50000000E-01	 1.00000000E+00	 4.00000000E+00
					-7.45058000E-09	 5.00000000E-01	 3.50000000E+00
					-7.45058000E-09	 7.50000000E-01	 4.00000000E+00
					-7.45058000E-09	 1.00000000E+00	 3.50000000E+00
					-7.45058000E-09	-1.49012000E-08	 4.00000000E+00
					 2.50000000E-01	-1.49012000E-08	 4.00000000E+00
					-7.45058000E-09	-1.49012000E-08	 3.50000000E+00
					-7.45058000E-09	 2.50000000E-01	 4.00000000E+00
					 1.00000000E+00	 5.00000000E-01	 5.00000000E+00
					 1.00000000E+00	 1.00000000E+00	 5.00000000E+00
					 5.00000000E-01	 5.00000000E-01	 5.00000000E+00
					 5.00000000E-01	 1.00000000E+00	 5.00000000E+00
					 1.00000000E+00	 5.00000000E-01	 4.50000000E+00
					 1.00000000E+00	 7.50000000E-01	 5.00000000E+00
					 1.00000000E+00	 1.00000000E+00	 4.50000000E+00
					 7.50000000E-01	 5.00000000E-01	 5.00000000E+00
					 7.50000000E-01	 1.00000000E+00	 5.00000000E+00
					 5.00000000E-01	 5.00000000E-01	 4.50000000E+00
					 5.00000000E-01	 7.50000000E-01	 5.00000000E+00
					 5.00000000E-01	 1.00000000E+00	 4.50000000E+00
					 1.00000000E+00	-1.49012000E-08	 5.00000000E+00
					 5.00000000E-01	-1.49012000E-08	 5.00000000E+00
					 1.00000000E+00	-1.49012000E-08	 4.50000000E+00
					 1.00000000E+00	 2.50000000E-01	 5.00000000E+00
					 7.50000000E-01	-1.49012000E-08	 5.00000000E+00
					 5.00000000E-01	-1.49012000E-08	 4.50000000E+00
					 5.00000000E-01	 2.50000000E-01	 5.00000000E+00
					-7.45058000E-09	 5.00000000E-01	 5.00000000E+00
					-7.45058000E-09	 1.00000000E+00	 5.00000000E+00
					 2.50000000E-01	 5.00000000E-01	 5.00000000E+00
					 2.50000000E-01	 1.00000000E+00	 5.00000000E+00
					-7.45058000E-09	 5.00000000E-01	 4.50000000E+00
					-7.45058000E-09	 7.50000000E-01	 5.00000000E+00
					-7.45058000E-09	 1.00000000E+00	 4.50000000E+00
					-7.45058000E-09	-1.49012000E-08	 5.00000000E+00
					 2.50000000E-01	-1.49012000E-08	 5.00000000E+00
					-7.45058000E-09	-1.49012000E-08	 4.50000000E+00
					-7.45058000E-09	 2.50000000E-01	 5.00000000E+00
					 1.00000000E+00	 5.00000000E-01	 6.00000000E+00
					 1.00000000E+00	 1.00000000E+00	 6.00000000E+00
					 5.00000000E-01	 5.00000000E-01	 6.00000000E+00
					 5.00000000E-01	 1.00000000E+00	 6.00000000E+00
					 1.00000000E+00	 5.00000000E-01	 5.50000000E+00
					 1.00000000E+00	 7.50000000E-01	 6.00000000E+00
					 1.00000000E+00	 1.00000000E+00	 5.50000000E+00
					 7.50000000E-01	 5.00000000E-01	 6.00000000E+00
					 7.50000000E-01	 1.00000000E+00	 6.00000000E+00
					 5.00000000E-01	 5.00000000E-01	 5.50000000E+00
					 5.00000000E-01	 7.50000000E-01	 6.00000000E+00
					 5.00000000E-01	 1.00000000E+00	 5.50000000E+00
					 1.00000000E+00	-1.49012000E-08	 6.00000000E+00
[...]
			<PointData>
				<DataArray type="Float32" Name="U" NumberOfComponents="3" ComponentName0="D1" ComponentName1="D2" ComponentName2="D3" format="ascii">
					 0.00000000E+00	 0.00000000E+00	 0.00000000E+00
					 0.00000000E+00	 0.00000000E+00	 0.00000000E+00
					 1.50651000E-05	 1.48441000E-03	 1.02686000E-05
					-6.28114000E-05	 1.35641000E-03	-7.23386000E-04
					 0.00000000E+00	 0.00000000E+00	 0.00000000E+00
					 0.00000000E+00	 0.00000000E+00	 0.00000000E+00
					 5.88892000E-06	 1.27264000E-03	 4.12093000E-05
					-1.52696000E-04	 1.30476000E-03	-6.75880000E-04
					 0.00000000E+00	 0.00000000E+00	 0.00000000E+00
					-9.44077000E-06	 5.30265000E-04	-2.17796000E-05
					-5.94303000E-05	 1.41724000E-03	-2.69660000E-04
					 1.77410000E-05	 5.58583000E-04	-4.71661000E-04
					 0.00000000E+00	 0.00000000E+00	 0.00000000E+00
					 0.00000000E+00	 0.00000000E+00	 0.00000000E+00
					 8.82127000E-06	 1.37310000E-03	 1.21395000E-05
					-1.10291000E-04	 1.31382000E-03	-7.07534000E-04
					 0.00000000E+00	 0.00000000E+00	 0.00000000E+00
					-2.75947000E-05	 4.58362000E-04	 2.51492000E-05
					-6.77690000E-05	 1.27752000E-03	-3.13309000E-04
					-8.39954000E-05	 5.32986000E-04	-4.13690000E-04
					 0.00000000E+00	 0.00000000E+00	 0.00000000E+00
					 1.52906000E-04	 1.42785000E-03	 6.23813000E-04
					 0.00000000E+00	 0.00000000E+00	 0.00000000E+00
					 1.63354000E-04	 1.27980000E-03	 6.67319000E-04
					 0.00000000E+00	 0.00000000E+00	 0.00000000E+00
					-2.87760000E-05	 5.70085000E-04	 4.33886000E-04
					 9.47556000E-05	 1.45688000E-03	 2.17473000E-04
					 0.00000000E+00	 0.00000000E+00	 0.00000000E+00
					 1.71433000E-04	 1.37243000E-03	 7.00851000E-04
					 0.00000000E+00	 0.00000000E+00	 0.00000000E+00
					 4.84064000E-05	 5.58865000E-04	 4.47639000E-04
					 1.14088000E-04	 1.25086000E-03	 3.07037000E-04
					 0.00000000E+00	 0.00000000E+00	 0.00000000E+00
					 0.00000000E+00	 0.00000000E+00	 0.00000000E+00
					 1.79852000E-05	 1.04923000E-03	 5.47411000E-05
					-2.14303000E-04	 1.09652000E-03	-6.54313000E-04
					 0.00000000E+00	 0.00000000E+00	 0.00000000E+00
					 0.00000000E+00	 0.00000000E+00	 0.00000000E+00
					 1.40301000E-05	 1.17288000E-03	 4.05880000E-05
					-1.90390000E-04	 1.15931000E-03	-6.50116000E-04
					 0.00000000E+00	 0.00000000E+00	 0.00000000E+00
					-1.99005000E-06	 3.80127000E-04	 2.27554000E-06
					-1.33499000E-04	 1.07038000E-03	-2.76556000E-04
					-1.47250000E-04	 4.64737000E-04	-3.69759000E-04
					 0.00000000E+00	 0.00000000E+00	 0.00000000E+00
					 1.29882000E-04	 1.22880000E-03	 6.79532000E-04
					 0.00000000E+00	 0.00000000E+00	 0.00000000E+00
					 1.49881000E-04	 1.17356000E-03	 6.41108000E-04
					 0.00000000E+00	 0.00000000E+00	 0.00000000E+00
					 1.05773000E-04	 5.04860000E-04	 4.20105000E-04
					 1.12220000E-04	 1.12219000E-03	 3.62906000E-04
					-1.52529000E-05	 3.18629000E-03	-3.05640000E-05
					-5.70097000E-04	 3.28519000E-03	-7.99173000E-04
					 2.00485000E-05	 2.57473000E-03	-1.09462000E-04
					-5.71372000E-04	 2.70239000E-03	-8.13927000E-04
					 4.21878000E-05	 2.32360000E-03	 1.02988000E-05
					-2.38335000E-04	 3.22230000E-03	-4.71620000E-04
					-3.91035000E-04	 2.39691000E-03	-7.14736000E-04
					 1.97411000E-05	 2.88994000E-03	-6.18988000E-05
					-5.85847000E-04	 2.98691000E-03	-8.34118000E-04
					 2.36849000E-05	 1.91837000E-03	-4.47704000E-05
					-2.65570000E-04	 2.63359000E-03	-4.62216000E-04
					-3.56115000E-04	 1.95210000E-03	-7.16985000E-04
					 5.76847000E-04	 3.25763000E-03	 7.88787000E-04
					 6.16862000E-04	 2.62465000E-03	 7.14704000E-04
					 4.54997000E-04	 2.40577000E-03	 6.45315000E-04
					 2.61056000E-04	 3.17587000E-03	 4.15561000E-04
					 5.72776000E-04	 2.91274000E-03	 7.76766000E-04
					 4.38931000E-04	 1.93555000E-03	 6.59762000E-04
					 3.01311000E-04	 2.61724000E-03	 3.53900000E-04
					 3.56914000E-05	 2.00024000E-03	-6.01606000E-05
					-6.86208000E-04	 2.02289000E-03	-8.72505000E-04
					 1.23037000E-05	 2.28994000E-03	-9.11214000E-05
					-6.12574000E-04	 2.34711000E-03	-8.28798000E-04
					 2.33128000E-05	 1.51736000E-03	-2.88659000E-05
					-2.94591000E-04	 2.00325000E-03	-5.52292000E-04
					-3.46317000E-04	 1.61461000E-03	-7.21340000E-04
					 7.54359000E-04	 1.94010000E-03	 7.20263000E-04
					 6.91314000E-04	 2.33896000E-03	 7.18304000E-04
					 4.02526000E-04	 1.58031000E-03	 6.84877000E-04
					 3.90106000E-04	 1.94577000E-03	 4.08278000E-04
					 1.02521000E-04	 5.27285000E-03	-7.10806000E-05
					-3.12743000E-04	 5.41650000E-03	-1.97357000E-03
					 5.85374000E-05	 4.81590000E-03	-3.76879000E-05
					-5.35118000E-04	 4.93566000E-03	-1.90536000E-03
					 2.55193000E-05	 3.97125000E-03	-7.31176000E-05
					-9.28576000E-05	 5.30904000E-03	-1.05064000E-03
					-4.84755000E-04	 4.10359000E-03	-1.25745000E-03
					 5.83397000E-05	 5.07881000E-03	-4.91756000E-05
					-3.98100000E-04	 5.17556000E-03	-1.95111000E-03
					 5.72238000E-05	 3.41715000E-03	-6.02505000E-05
					-2.47501000E-04	 4.84698000E-03	-1.00128000E-03
					-5.98610000E-04	 3.49088000E-03	-1.25051000E-03
					 6.37826000E-04	 5.50316000E-03	 1.81081000E-03
					 6.81967000E-04	 4.90601000E-03	 1.77949000E-03
					 5.39926000E-04	 4.08627000E-03	 1.17492000E-03
					 3.21111000E-04	 5.36532000E-03	 9.05206000E-04
					 6.68022000E-04	 5.21215000E-03	 1.77253000E-03
					 6.55967000E-04	 3.49245000E-03	 1.14211000E-03
					 3.93996000E-04	 4.81696000E-03	 8.88707000E-04
					 1.11497000E-04	 3.96618000E-03	-9.69933000E-05
					-9.10206000E-04	 4.08563000E-03	-1.92526000E-03
					 1.01584000E-04	 4.44686000E-03	-6.46230000E-05
					-7.42964000E-04	 4.58684000E-03	-1.94105000E-03
					 5.13774000E-05	 2.71490000E-03	-5.90591000E-05
					-3.89323000E-04	 4.00326000E-03	-1.00835000E-03
					-7.68962000E-04	 2.75613000E-03	-1.24274000E-03
					 9.56759000E-04	 4.23394000E-03	 1.86483000E-03
					 8.12579000E-04	 4.59153000E-03	 1.86580000E-03
					 8.64750000E-04	 2.76121000E-03	 1.14949000E-03
					 5.16904000E-04	 4.08014000E-03	 8.62678000E-04
					 1.05597000E-04	 1.03886000E-02	-2.30869000E-04
					 5.20426000E-05	 1.05716000E-02	-3.74604000E-03
					 1.12631000E-04	 1.02782000E-02	-1.30711000E-04
					-2.45590000E-04	 1.02904000E-02	-3.74429000E-03
					 7.52797000E-05	 7.45125000E-03	-1.25125000E-04
					 6.55023000E-05	 1.04276000E-02	-1.99838000E-03
					-1.64439000E-04	 7.59229000E-03	-2.83884000E-03
					 1.06220000E-04	 1.03887000E-02	-1.71715000E-04
					-8.75483000E-05	 1.04801000E-02	-3.70629000E-03
					 4.27746000E-05	 7.08422000E-03	-1.14505000E-04
					-7.67637000E-05	 1.02687000E-02	-1.89529000E-03
					-4.20753000E-04	 7.21994000E-03	-2.84500000E-03
					 8.59665000E-05	 1.05683000E-02	 3.40667000E-03
					 4.09588000E-04	 1.04254000E-02	 3.44767000E-03
					 3.38962000E-04	 7.59810000E-03	 2.55999000E-03
					 8.43048000E-05	 1.04604000E-02	 1.59855000E-03
					 2.52603000E-04	 1.05155000E-02	 3.44168000E-03
					 5.25489000E-04	 7.20494000E-03	 2.63818000E-03
					 2.53770000E-04	 1.03149000E-02	 1.66621000E-03
					 8.84080000E-05	 9.77497000E-03	-3.70027000E-05
					-4.30179000E-04	 1.00020000E-02	-3.56863000E-03
					 9.59719000E-05	 1.00748000E-02	-7.00684000E-05
					-3.36562000E-04	 1.01744000E-02	-3.70778000E-03
					 4.83329000E-05	 6.48249000E-03	-2.72258000E-05
					-1.56227000E-04	 9.83922000E-03	-1.80239000E-03
					-7.36346000E-04	 6.57599000E-03	-2.77699000E-03
					 5.75305000E-04	 9.98423000E-03	 3.51381000E-03
					 4.89455000E-04	 1.02207000E-02	 3.50259000E-03
					 7.86975000E-04	 6.65511000E-03	 2.69106000E-03
					 3.71164000E-04	 9.85537000E-03	 1.71932000E-03
					 1.01378000E-04	 1.92128000E-02	-5.94932000E-05
					 3.26779000E-04	 1.92926000E-02	-5.21570000E-03
					 4.68020000E-05	 1.94643000E-02	-2.03132000E-05
					 2.30423000E-04	 1.94257000E-02	-5.19509000E-03
					 1.08145000E-04	 1.43908000E-02	-1.25310000E-04
					 2.27959000E-04	 1.92285000E-02	-2.63086000E-03
					 2.73296000E-04	 1.44347000E-02	-4.56685000E-03
					 7.61121000E-05	 1.93446000E-02	-6.13195000E-05
					 2.82965000E-04	 1.93549000E-02	-5.20535000E-03
					 1.20319000E-04	 1.44275000E-02	-7.74050000E-05
					 1.36993000E-04	 1.94135000E-02	-2.60006000E-03
					 7.82830000E-05	 1.45439000E-02	-4.52693000E-03
					-2.57334000E-04	 1.93321000E-02	 5.07378000E-03
					-2.39582000E-05	 1.95386000E-02	 5.08405000E-03
					-3.50664000E-05	 1.45727000E-02	 4.33928000E-03
					-1.08613000E-04	 1.92423000E-02	 2.51223000E-03
					-1.41631000E-04	 1.94487000E-02	 5.02766000E-03
					 1.96027000E-04	 1.45828000E-02	 4.30986000E-03
					 1.05273000E-05	 1.94852000E-02	 2.49485000E-03
					 4.65395000E-05	 1.94900000E-02	-6.02253000E-05
					 1.30020000E-04	 1.95749000E-02	-5.21422000E-03
					 5.80432000E-05	 1.94786000E-02	-7.15164000E-05
					 1.73774000E-04	 1.95386000E-02	-5.26138000E-03
					 1.16716000E-04	 1.42917000E-02	-6.49817000E-05
					 6.88038000E-05	 1.95148000E-02	-2.55138000E-03
					-1.56436000E-04	 1.43420000E-02	-4.46967000E-03
					 1.68926000E-04	 1.94705000E-02	 5.05299000E-03
					 6.10223000E-05	 1.96090000E-02	 5.12822000E-03
					 4.58948000E-04	 1.43542000E-02	 4.39315000E-03
					 5.99527000E-05	 1.94471000E-02	 2.39429000E-03
					 8.29561000E-05	 2.97405000E-02	-1.91283000E-04
					 1.25764000E-03	 2.97927000E-02	-5.88430000E-03
					 5.91248000E-05	 3.09527000E-02	-1.99918000E-04
					 1.29280000E-03	 3.08220000E-02	-5.93895000E-03
					 9.03584000E-05	 2.43712000E-02	-1.01957000E-04
					 6.89091000E-04	 2.97686000E-02	-3.09665000E-03
					 7.12731000E-04	 2.44206000E-02	-5.68540000E-03
					 8.40217000E-05	 3.03294000E-02	-1.59042000E-04
					 1.27353000E-03	 3.02911000E-02	-5.80957000E-03
					 9.28108000E-05	 2.50057000E-02	-1.00220000E-04
					 6.65795000E-04	 3.08848000E-02	-3.03727000E-03
					 7.08833000E-04	 2.50372000E-02	-5.69586000E-03
					-1.16202000E-03	 2.96827000E-02	 5.56520000E-03
					-1.06786000E-03	 3.08884000E-02	 5.53622000E-03
					-5.69851000E-04	 2.44499000E-02	 5.44186000E-03
					-5.49784000E-04	 2.97030000E-02	 2.74476000E-03
					-1.12297000E-03	 3.02840000E-02	 5.41103000E-03
					-5.57585000E-04	 2.50526000E-02	 5.47238000E-03
					-5.10214000E-04	 3.09337000E-02	 2.59714000E-03
					 1.97703000E-05	 3.20625000E-02	-3.03380000E-04
					 1.36384000E-03	 3.22338000E-02	-5.92580000E-03
					 1.60770000E-05	 3.14975000E-02	-2.42492000E-04
					 1.33722000E-03	 3.14642000E-02	-6.03686000E-03
					 6.95154000E-05	 2.56463000E-02	-1.56205000E-04
					 6.59772000E-04	 3.21421000E-02	-2.92669000E-03
					 6.89931000E-04	 2.56913000E-02	-5.70143000E-03
					-1.05062000E-03	 3.21227000E-02	 5.47066000E-03
					-1.05623000E-03	 3.14999000E-02	 5.63494000E-03
					-4.19143000E-04	 2.55967000E-02	 5.38930000E-03
					-4.93971000E-04	 3.20964000E-02	 2.46819000E-03
					 1.65452000E-04	 3.96434000E-02	-2.85427000E-04
					 2.57911000E-03	 3.96196000E-02	-5.58875000E-03
					 9.69578000E-05	 4.21371000E-02	-3.03782000E-04
					 2.62346000E-03	 4.19153000E-02	-5.60484000E-03
					 1.12097000E-04	 3.48418000E-02	-2.28533000E-04
					 1.39769000E-03	 3.96362000E-02	-3.02303000E-03
					 1.84267000E-03	 3.48075000E-02	-5.81579000E-03
					 1.08481000E-04	 4.08788000E-02	-3.36283000E-04
					 2.61609000E-03	 4.06926000E-02	-5.48836000E-03
					 6.21403000E-05	 3.66760000E-02	-2.72081000E-04
					 1.36235000E-03	 4.20442000E-02	-2.93914000E-03
					 1.96517000E-03	 3.66388000E-02	-5.79049000E-03
					-2.25782000E-03	 3.97022000E-02	 5.00339000E-03
					-2.47498000E-03	 4.21978000E-02	 4.84140000E-03
					-1.60679000E-03	 3.49580000E-02	 5.32107000E-03
					-1.10647000E-03	 3.96924000E-02	 2.42778000E-03
					-2.37254000E-03	 4.08580000E-02	 4.88611000E-03
					-1.77903000E-03	 3.66963000E-02	 5.25394000E-03
					-1.15802000E-03	 4.21516000E-02	 2.33495000E-03
					 7.95951000E-05	 4.47292000E-02	-1.27146000E-04
					 2.74443000E-03	 4.47948000E-02	-5.65018000E-03
					 1.12611000E-04	 4.34300000E-02	-2.59576000E-04
					 2.64599000E-03	 4.33662000E-02	-5.63542000E-03
					 5.62181000E-05	 3.85837000E-02	-2.14993000E-04
					 1.41322000E-03	 4.47626000E-02	-2.86667000E-03
					 2.09719000E-03	 3.85694000E-02	-5.87104000E-03
					-2.49127000E-03	 4.45172000E-02	 4.89385000E-03
					-2.48588000E-03	 4.33591000E-02	 4.94036000E-03
					-1.88059000E-03	 3.86095000E-02	 5.26881000E-03
					-1.23380000E-03	 4.46442000E-02	 2.26156000E-03
					 2.67026000E-04	 4.92160000E-02	-5.41130000E-04
					 3.22127000E-03	 4.92622000E-02	-5.56846000E-03
					-3.16536000E-05	 5.19959000E-02	-4.40185000E-04
					 3.62576000E-03	 5.15099000E-02	-4.93592000E-03
					 7.67153000E-05	 4.43378000E-02	-4.11678000E-04
					 1.76271000E-03	 4.92321000E-02	-3.00414000E-03
					 2.97749000E-03	 4.42512000E-02	-5.49023000E-03
					 1.49051000E-04	 5.05930000E-02	-4.21012000E-04
					 3.37233000E-03	 5.04395000E-02	-5.31609000E-03
					 1.11541000E-04	 4.72448000E-02	-3.39673000E-04
					 1.80025000E-03	 5.17435000E-02	-2.79840000E-03
					 3.01594000E-03	 4.72388000E-02	-5.36917000E-03
					-3.35847000E-03	 4.89067000E-02	 4.72834000E-03
					-3.19873000E-03	 5.23107000E-02	 4.67248000E-03
					-2.80757000E-03	 4.43887000E-02	 4.82234000E-03
					-1.45277000E-03	 4.90358000E-02	 2.20124000E-03
					-3.24773000E-03	 5.07515000E-02	 4.64572000E-03
					-2.85163000E-03	 4.71959000E-02	 4.67005000E-03
					-1.67866000E-03	 5.21859000E-02	 2.04540000E-03
					-2.34954000E-05	 5.52734000E-02	-4.09058000E-04
					 4.03046000E-03	 5.55661000E-02	-4.99318000E-03
					-7.20673000E-05	 5.35511000E-02	-3.83519000E-04
					 3.85503000E-03	 5.35224000E-02	-5.11000000E-03
					 1.73104000E-04	 5.02698000E-02	-3.74468000E-04
					 1.93212000E-03	 5.54416000E-02	-2.63416000E-03
					 3.12067000E-03	 5.00647000E-02	-5.17683000E-03
					-3.63215000E-03	 5.48133000E-02	 3.60057000E-03
					-3.35201000E-03	 5.33820000E-02	 4.21586000E-03
					-3.11412000E-03	 5.04510000E-02	 4.39606000E-03
					-1.72876000E-03	 5.50102000E-02	 1.74669000E-03
					 0.00000000E+00	 0.00000000E+00	 0.00000000E+00
					 0.00000000E+00	 0.00000000E+00	 0.00000000E+00
					-2.25354000E-04	-1.60165000E-02	-1.77792000E-05
					-2.17434000E-03	-1.68912000E-02	 1.42879000E-02
					 0.00000000E+00	 0.00000000E+00	 0.00000000E+00
					 0.00000000E+00	 0.00000000E+00	 0.00000000E+00
					-1.31414000E-04	-1.71694000E-02	-1.79718000E-04
					-3.96993000E-04	-1.81458000E-02	 1.43196000E-02
					 0.00000000E+00	 0.00000000E+00	 0.00000000E+00
					-4.73988000E-05	-3.67918000E-03	 7.17584000E-06
					-1.18263000E-03	-1.61499000E-02	 6.88972000E-03
					-2.38875000E-03	-4.98340000E-03	 7.48535000E-03
					 0.00000000E+00	 0.00000000E+00	 0.00000000E+00
					 0.00000000E+00	 0.00000000E+00	 0.00000000E+00
					-1.90391000E-04	-1.68929000E-02	-1.13365000E-04
					-1.24294000E-03	-1.78408000E-02	 1.42947000E-02
					 0.00000000E+00	 0.00000000E+00	 0.00000000E+00
					-4.77366000E-05	-4.80833000E-03	-2.60733000E-05
					-2.19374000E-04	-1.72978000E-02	 6.83700000E-03
					-2.66729000E-04	-6.14260000E-03	 7.24665000E-03
					 0.00000000E+00	 0.00000000E+00	 0.00000000E+00
					 1.95710000E-03	-1.64090000E-02	-1.44767000E-02
					 0.00000000E+00	 0.00000000E+00	 0.00000000E+00
					 2.11004000E-04	-1.78676000E-02	-1.47883000E-02
					 0.00000000E+00	 0.00000000E+00	 0.00000000E+00
					 2.32808000E-03	-4.78397000E-03	-7.45776000E-03
					 8.51762000E-04	-1.58985000E-02	-7.01618000E-03
					 0.00000000E+00	 0.00000000E+00	 0.00000000E+00
					 1.08441000E-03	-1.73782000E-02	-1.46368000E-02
					 0.00000000E+00	 0.00000000E+00	 0.00000000E+00
					 1.63472000E-04	-5.97585000E-03	-7.32993000E-03
					 2.11626000E-05	-1.71996000E-02	-7.25089000E-03
					 0.00000000E+00	 0.00000000E+00	 0.00000000E+00
					 0.00000000E+00	 0.00000000E+00	 0.00000000E+00
					-5.83536000E-05	-1.65919000E-02	-1.83394000E-04
					 1.21599000E-03	-1.78381000E-02	 1.41395000E-02
					 0.00000000E+00	 0.00000000E+00	 0.00000000E+00
					 0.00000000E+00	 0.00000000E+00	 0.00000000E+00
					-7.63744000E-05	-1.71953000E-02	-1.96755000E-04
					 4.03286000E-04	-1.81800000E-02	 1.42559000E-02
					 0.00000000E+00	 0.00000000E+00	 0.00000000E+00
					-4.92850000E-05	-4.09986000E-03	-6.15132000E-05
					 6.35525000E-04	-1.68789000E-02	 6.71306000E-03
					 1.86422000E-03	-5.47888000E-03	 7.38313000E-03
					 0.00000000E+00	 0.00000000E+00	 0.00000000E+00
					-1.66231000E-03	-1.71462000E-02	-1.46130000E-02
					 0.00000000E+00	 0.00000000E+00	 0.00000000E+00
					-7.24738000E-04	-1.77745000E-02	-1.47675000E-02
					 0.00000000E+00	 0.00000000E+00	 0.00000000E+00
					-2.02049000E-03	-5.22325000E-03	-7.47599000E-03
					-8.87596000E-04	-1.65555000E-02	-7.13759000E-03
					-4.68063000E-04	-5.76607000E-02	-8.05283000E-04
					-1.93331000E-03	-5.87501000E-02	 2.34133000E-02
					-3.98908000E-04	-5.84931000E-02	-1.13334000E-03
					-8.06353000E-04	-5.96673000E-02	 2.32390000E-02
					-2.33573000E-04	-3.43163000E-02	-2.99706000E-04
					-1.22356000E-03	-5.80247000E-02	 1.12122000E-02
					-2.03895000E-03	-3.55262000E-02	 1.94639000E-02
					-4.06961000E-04	-5.81916000E-02	-9.85082000E-04
					-1.39516000E-03	-5.93123000E-02	 2.33639000E-02
					-2.38803000E-04	-3.53125000E-02	-5.32400000E-04
					-6.13715000E-04	-5.89812000E-02	 1.09610000E-02
					-5.84968000E-04	-3.65178000E-02	 1.93663000E-02
					 1.05959000E-03	-5.77329000E-02	-2.52158000E-02
					-3.03147000E-05	-5.86264000E-02	-2.54951000E-02
					 1.47189000E-03	-3.47345000E-02	-2.02470000E-02
					 3.20394000E-04	-5.75725000E-02	-1.29195000E-02
					 4.90795000E-04	-5.83238000E-02	-2.53629000E-02
					 7.09594000E-05	-3.57133000E-02	-2.05589000E-02
					-1.84560000E-04	-5.84502000E-02	-1.31551000E-02
					-4.03028000E-04	-5.83016000E-02	-1.21192000E-03
					 4.39822000E-04	-5.94254000E-02	 2.30089000E-02
					-4.20393000E-04	-5.85223000E-02	-1.18224000E-03
					-1.68331000E-04	-5.97358000E-02	 2.31686000E-02
					-2.28538000E-04	-3.49561000E-02	-6.70061000E-04
					 2.26229000E-05	-5.87121000E-02	 1.07893000E-02
					 7.79912000E-04	-3.62533000E-02	 1.92002000E-02
					-1.29926000E-03	-5.81957000E-02	-2.55763000E-02
					-6.36789000E-04	-5.84986000E-02	-2.55744000E-02
					-1.34673000E-03	-3.53993000E-02	-2.04950000E-02
					-8.23216000E-04	-5.81218000E-02	-1.32709000E-02
					-7.08996000E-04	-1.14327000E-01	-2.46258000E-03
					-2.22587000E-03	-1.15591000E-01	 2.80351000E-02
					-6.81437000E-04	-1.15693000E-01	-2.59191000E-03
					-1.74342000E-03	-1.17005000E-01	 2.78631000E-02
					-6.14078000E-04	-8.44611000E-02	-1.55203000E-03
					-1.50668000E-03	-1.14866000E-01	 1.26872000E-02
					-2.15751000E-03	-8.57154000E-02	 2.62081000E-02
					-7.18209000E-04	-1.15114000E-01	-2.51127000E-03
					-1.97137000E-03	-1.16376000E-01	 2.78756000E-02
					-5.72473000E-04	-8.55278000E-02	-1.79843000E-03
					-1.20209000E-03	-1.16241000E-01	 1.24725000E-02
					-1.25582000E-03	-8.67923000E-02	 2.60976000E-02
					 8.66652000E-04	-1.14005000E-01	-3.29454000E-02
					 2.72109000E-04	-1.15073000E-01	-3.31237000E-02
					 9.66085000E-04	-8.41417000E-02	-2.93724000E-02
					 1.08213000E-04	-1.14090000E-01	-1.75757000E-02
					 6.03160000E-04	-1.14571000E-01	-3.30749000E-02
					 5.30229000E-05	-8.51943000E-02	-2.96431000E-02
					-1.89705000E-04	-1.15315000E-01	-1.77380000E-02
					-6.14553000E-04	-1.16186000E-01	-2.90360000E-03
					-1.04534000E-03	-1.17808000E-01	 2.76793000E-02
					-6.28119000E-04	-1.16059000E-01	-2.74234000E-03
					-1.40820000E-03	-1.17427000E-01	 2.79423000E-02
					-5.34868000E-04	-8.57324000E-02	-1.95580000E-03
					-8.70600000E-04	-1.16918000E-01	 1.20955000E-02
					-2.32111000E-04	-8.68989000E-02	 2.57972000E-02
					-6.12834000E-04	-1.15463000E-01	-3.33172000E-02
					-1.92632000E-04	-1.15429000E-01	-3.33554000E-02
					-8.53711000E-04	-8.53588000E-02	-2.97619000E-02
					-5.84205000E-04	-1.15772000E-01	-1.78512000E-02
					-8.98512000E-04	-1.79616000E-01	-4.79368000E-03
					-2.69381000E-03	-1.80631000E-01	 2.79327000E-02