<?xml version="1.0"?>
<VTKFile type="UnstructuredGrid" version="0.1" byte_order="LittleEndian">
	<UnstructuredGrid>
		<Piece NumberOfPoints="522" NumberOfCells="64">
			<Points>
				<DataArray type="Float64" NumberOfComponents="3" format="ascii">
					 1.00000000E+00	 1.00000000E+00	-5.96046000E-08
					 1.00000000E+00	 5.00000000E-01	-5.96046000E-08
					 1.00000000E+00	 5.00000000E-01	 1.00000000E+00
					 1.00000000E+00	 1.00000000E+00	 1.00000000E+00
					 5.00000000E-01	 1.00000000E+00	-5.96046000E-08
					 5.00000000E-01	 5.00000000E-01	-5.96046000E-08
					 5.00000000E-01	 5.00000000E-01	 1.00000000E+00
					 5.00000000E-01	 1.00000000E+00	 1.00000000E+00
					 1.00000000E+00	 7.50000000E-01	-5.96046000E-08
					 1.00000000E+00	 5.00000000E-01	 5.00000000E-01
					 1.00000000E+00	 7.50000000E-01	 1.00000000E+00
					 1.00000000E+00	 1.00000000E+00	 5.00000000E-01
					 7.50000000E-01	 1.00000000E+00	-5.96046000E-08
					 7.50000000E-01	 5.00000000E-01	-5.96046000E-08
					 7.50000000E-01	 5.00000000E-01	 1.00000000E+00
					 7.50000000E-01	 1.00000000E+00	 1.00000000E+00
					 5.00000000E-01	 7.50000000E-01	-5.96046000E-08
					 5.00000000E-01	 5.00000000E-01	 5.00000000E-01
					 5.00000000E-01	 7.50000000E-01	 1.00000000E+00
					 5.00000000E-01	 1.00000000E+00	 5.00000000E-01
					 1.00000000E+00	-1.49012000E-08	-5.96046000E-08
					 1.00000000E+00	-1.49012000E-08	 1.00000000E+00
					 5.00000000E-01	-1.49012000E-08	-5.96046000E-08
					 5.00000000E-01	-1.49012000E-08	 1.00000000E+00
					 1.00000000E+00	 2.50000000E-01	-5.96046000E-08
					 1.00000000E+00	-1.49012000E-08	 5.00000000E-01
					 1.00000000E+00	 2.50000000E-01	 1.00000000E+00
					 7.50000000E-01	-1.49012000E-08	-5.96046000E-08
					 7.50000000E-01	-1.49012000E-08	 1.00000000E+00
					 5.00000000E-01	 2.50000000E-01	-5.96046000E-08
					 5.00000000E-01	-1.49012000E-08	 5.00000000E-01
					 5.00000000E-01	 2.50000000E-01	 1.00000000E+00
					-7.45058000E-09	 1.00000000E+00	-5.96046000E-08
					-7.45058000E-09	 5.00000000E-01	-5.96046000E-08
					-7.45058000E-09	 5.00000000E-01	 1.00000000E+00
					-7.45058000E-09	 1.00000000E+00	 1.00000000E+00
					 2.50000000E-01	 1.00000000E+00	-5.96046000E-08
					 2.50000000E-01	 5.00000000E-01	-5.96046000E-08
					 2.50000000E-01	 5.00000000E-01	 1.00000000E+00
					 2.50000000E-01	 1.00000000E+00	 1.00000000E+00
					-7.45058000E-09	 7.50000000E-01	-5.96046000E-08
					-7.45058000E-09	 5.00000000E-01	 5.00000000E-01
					-7.45058000E-09	 7.50000000E-01	 1.00000000E+00
					-7.45058000E-09	 1.00000000E+00	 5.00000000E-01
					-7.45058000E-09	-1.49012000E-08	-5.96046000E-08
					-7.45058000E-09	-1.49012000E-08	 1.00000000E+00
					 2.50000000E-01	-1.49012000E-08	-5.96046000E-08
					 2.50000000E-01	-1.49012000E-08	 1.00000000E+00
					-7.45058000E-09	 2.50000000E-01	-5.96046000E-08
					-7.45058000E-09	-1.49012000E-08	 5.00000000E-01
					-7.45058000E-09	 2.50000000E-01	 1.00000000E+00
					 1.00000000E+00	 5.00000000E-01	 2.00000000E+00
					 1.00000000E+00	 1.00000000E+00	 2.00000000E+00
					 5.00000000E-01	 5.00000000E-01	 2.00000000E+00
					 5.00000000E-01	 1.00000000E+00	 2.00000000E+00
					 1.00000000E+00	 5.00000000E-01	 1.50000000E+00
					 1.00000000E+00	 7.50000000E-01	 2.00000000E+00
					 1.00000000E+00	 1.00000000E+00	 1.50000000E+00
					 7.50000000E-01	 5.00000000E-01	 2.00000000E+00
					 7.50000000E-01	 1.00000000E+00	 2.00000000E+00
					 5.00000000E-01	 5.00000000E-01	 1.50000000E+00
					 5.00000000E-01	 7.50000000E-01	 2.00000000E+00
					 5.00000000E-01	 1.00000000E+00	 1.50000000E+00
					 1.00000000E+00	-1.49012000E-08	 2.00000000E+00
					 5.00000000E-01	-1.49012000E-08	 2.00000000E+00
					 1.00000000E+00	-1.49012000E-08	 1.50000000E+00
					 1.00000000E+00	 2.50000000E-01	 2.00000000E+00
					 7.50000000E-01	-1.49012000E-08	 2.00000000E+00
					 5.00000000E-01	-1.49012000E-08	 1.50000000E+00
					 5.00000000E-01	 2.50000000E-01	 2.00000000E+00
					-7.45058000E-09	 5.00000000E-01	 2.00000000E+00
					-7.45058000E-09	 1.00000000E+00	 2.00000000E+00
					 2.50000000E-01	 5.00000000E-01	 2.00000000E+00
					 2.50000000E-01	 1.00000000E+00	 2.00000000E+00
					-7.45058000E-09	 5.00000000E-01	 1.50000000E+00
					-7.45058000E-09	 7.50000000E-01	 2.00000000E+00
					-7.45058000E-09	 1.00000000E+00	 1.50000000E+00
					-7.45058000E-09	-1.49012000E-08	 2.00000000E+00
					 2.50000000E-01	-1.49012000E-08	 2.00000000E+00
					-7.45058000E-09	-1.49012000E-08	 1.50000000E+00
					-7.45058000E-09	 2.50000000E-01	 2.00000000E+00
					 1.00000000E+00	 5.00000000E-01	 3.00000000E+00
					 1.00000000E+00	 1.00000000E+00	 3.00000000E+00
					 5.00000000E-01	 5.00000000E-01	 3.00000000E+00
					 5.00000000E-01	 1.00000000E+00	 3.00000000E+00
					 1.00000000E+00	 5.00000000E-01	 2.50000000E+00
					 1.00000000E+00	 7.50000000E-01	 3.00000000E+00
					 1.00000000E+00	 1.00000000E+00	 2.50000000E+00
					 7.50000000E-01	 5.00000000E-01	 3.00000000E+00
					 7.50000000E-01	 1.00000000E+00	 3.00000000E+00
					 5.00000000E-01	 5.00000000E-01	 2.50000000E+00
					 5.00000000E-01	 7.50000000E-01	 3.00000000E+00
					 5.00000000E-01	 1.00000000E+00	 2.50000000E+00
					 1.00000000E+00	-1.49012000E-08	 3.00000000E+00
					 5.00000000E-01	-1.49012000E-08	 3.00000000E+00
					 1.00000000E+00	-1.49012000E-08	 2.50000000E+00
					 1.00000000E+00	 2.50000000E-01	 3.00000000E+00
					 7.50000000E-01	-1.49012000E-08	 3.00000000E+00
					 5.00000000E-01	-1.49012000E-08	 2.50000000E+00
					 5.00000000E-01	 2.50000000E-01	 3.00000000E+00
					-7.45058000E-09	 5.00000000E-01	 3.00000000E+00
					-7.45058000E-09	 1.00000000E+00	 3.00000000E+00
					 2.50000000E-01	 5.00000000E-01	 3.00000000E+00
					 2.50000000E-01	 1.00000000E+00	 3.00000000E+00
					-7.45058000E-09	 5.00000000E-01	 2.50000000E+00
					-7.45058000E-09	 7.50000000E-01	 3.00000000E+00
					-7.45058000E-09	 1.00000000E+00	 2.50000000E+00
					-7.45058000E-09	-1.49012000E-08	 3.00000000E+00
					 2.50000000E-01	-1.49012000E-08	 3.00000000E+00
					-7.45058000E-09	-1.49012000E-08	 2.50000000E+00
					-7.45058000E-09	 2.50000000E-01	 3.00000000E+00
					 1.00000000E+00	 5.00000000E-01	 4.00000000E+00
					 1.00000000E+00	 1.00000000E+00	 4.00000000E+00
					 5.00000000E-01	 5.00000000E-01	 4.00000000E+00
					 5.00000000E-01	 1.00000000E+00	 4.00000000E+00
					 1.00000000E+00	 5.00000000E-01	 3.50000000E+00
					 1.00000000E+00	 7.50000000E-01	 4.00000000E+00
					 1.00000000E+00	 1.00000000E+00	 3.50000000E+00
					 7.50000000E-01	 5.00000000E-01	 4.00000000E+00
					 7.50000000E-01	 1.00000000E+00	 4.00000000E+00
					 5.00000000E-01	 5.00000000E-01	 3.50000000E+00
					 5.00000000E-01	 7.50000000E-01	 4.00000000E+00
					 5.00000000E-01	 1.00000000E+00	 3.50000000E+00
					 1.00000000E+00	-1.49012000E-08	 4.00000000E+00
					 5.00000000E-01	-1.49012000E-08	 4.00000000E+00
					 1.00000000E+00	-1.49012000E-08	 3.50000000E+00
					 1.00000000E+00	 2.50000000E-01	 4.00000000E+00
					 7.50000000E-01	-1.49012000E-08	 4.00000000E+00
					 5.00000000E-01	-1.49012000E-08	 3.50000000E+00
					 5.00000000E-01	 2.50000000E-01	 4.00000000E+00
					-7.45058000E-09	 5.00000000E-01	 4.00000000E+00
					-7.45058000E-09	 1.00000000E+00	 4.00000000E+00
					 2.50000000E-01	 5.00000000E-01	 4.00000000E+00
					 2.50000000E-01	 1.00000000E+00	 4.00000000E+00
					-7.45058000E-09	 5.00000000E-01	 3.50000000E+00
					-7.45058000E-09	 7.50000000E-01	 4.00000000E+00
					-7.45058000E-09	 1.00000000E+00	 3.50000000E+00
					-7.45058000E-09	-1.49012000E-08	 4.00000000E+00
					 2.50000000E-01	-1.49012000E-08	 4.00000000E+00
					-7.45058000E-09	-1.49012000E-08	 3.50000000E+00
					-7.45058000E-09	 2.50000000E-01	 4.00000000E+00
					 1.00000000E+00	 5.00000000E-01	 5.00000000E+00
					 1.00000000E+00	 1.00000000E+00	 5.00000000E+00
					 5.00000000E-01	 5.00000000E-01	 5.00000000E+00
					 5.00000000E-01	 1.00000000E+00	 5.00000000E+00
					 1.00000000E+00	 5.00000000E-01	 4.50000000E+00
					 1.00000000E+00	 7.50000000E-01	 5.00000000E+00
					 1.00000000E+00	 1.00000000E+00	 4.50000000E+00
					 7.50000000E-01	 5.00000000E-01	 5.00000000E+00
					 7.50000000E-01	 1.00000000E+00	 5.00000000E+00
					 5.00000000E-01	 5.00000000E-01	 4.50000000E+00
					 5.00000000E-01	 7.50000000E-01	 5.00000000E+00
					 5.00000000E-01	 1.00000000E+00	 4.50000000E+00
					 1.00000000E+00	-1.49012000E-08	 5.00000000E+00
					 5.00000000E-01	-1.49012000E-08	 5.00000000E+00
					 1.00000000E+00	-1.49012000E-08	 4.50000000E+00
					 1.00000000E+00	 2.50000000E-01	 5.00000000E+00
					 7.50000000E-01	-1.49012000E-08	 5.00000000E+00
					 5.00000000E-01	-1.49012000E-08	 4.50000000E+00
					 5.00000000E-01	 2.50000000E-01	 5.00000000E+00
					-7.45058000E-09	 5.00000000E-01	 5.00000000E+00
					-7.45058000E-09	 1.00000000E+00	 5.00000000E+00
					 2.50000000E-01	 5.00000000E-01	 5.00000000E+00
					 2.50000000E-01	 1.00000000E+00	 5.00000000E+00
					-7.45058000E-09	 5.00000000E-01	 4.50000000E+00
					-7.45058000E-09	 7.50000000E-01	 5.00000000E+00
					-7.45058000E-09	 1.00000000E+00	 4.50000000E+00
					-7.45058000E-09	-1.49012000E-08	 5.00000000E+00
					 2.50000000E-01	-1.49012000E-08	 5.00000000E+00
					-7.45058000E-09	-1.49012000E-08	 4.50000000E+00
					-7.45058000E-09	 2.50000000E-01	 5.00000000E+00
					 1.00000000E+00	 5.00000000E-01	 6.00000000E+00
					 1.00000000E+00	 1.00000000E+00	 6.00000000E+00
					 5.00000000E-01	 5.00000000E-01	 6.00000000E+00
					 5.00000000E-01	 1.00000000E+00	 6.00000000E+00
					 1.00000000E+00	 5.00000000E-01	 5.50000000E+00
					 1.00000000E+00	 7.50000000E-01	 6.00000000E+00
					 1.00000000E+00	 1.00000000E+00	 5.50000000E+00
					 7.50000000E-01	 5.00000000E-01	 6.00000000E+00
					 7.50000000E-01	 1.00000000E+00	 6.00000000E+00
					 5.00000000E-01	 5.00000000E-01	 5.50000000E+00
					 5.00000000E-01	 7.50000000E-01	 6.00000000E+00
					 5.00000000E-01	 1.00000000E+00	 5.50000000E+00
					 1.00000000E+00	-1.49012000E-08	 6.00000000E+00
[...]
			<PointData>
				<DataArray type="Float32" Name="U" NumberOfComponents="3" ComponentName0="D1" ComponentName1="D2" ComponentName2="D3" format="ascii">
					 0.00000000E+00	 0.00000000E+00	 0.00000000E+00
					 0.00000000E+00	 0.00000000E+00	 0.00000000E+00
					 1.16005000E-05	-5.76960000E-03	-4.11701000E-05
					-8.31121000E-04	-6.05039000E-03	 5.07743000E-03
					 0.00000000E+00	 0.00000000E+00	 0.00000000E+00
					 0.00000000E+00	 0.00000000E+00	 0.00000000E+00
					 9.14460000E-06	-6.31239000E-03	-4.19487000E-05
					-2.45518000E-04	-6.61762000E-03	 5.15468000E-03
					 0.00000000E+00	 0.00000000E+00	 0.00000000E+00
					 6.77598000E-06	-1.34248000E-03	-1.50430000E-05
					-4.10547000E-04	-5.79915000E-03	 2.43896000E-03
					-8.87244000E-04	-1.78120000E-03	 2.68090000E-03
					 0.00000000E+00	 0.00000000E+00	 0.00000000E+00
					 0.00000000E+00	 0.00000000E+00	 0.00000000E+00
					 1.06287000E-05	-6.14530000E-03	-4.18331000E-05
					-5.32832000E-04	-6.43774000E-03	 5.10144000E-03
					 0.00000000E+00	 0.00000000E+00	 0.00000000E+00
					 1.53434000E-06	-1.80317000E-03	-1.45773000E-05
					-1.17177000E-04	-6.34885000E-03	 2.45820000E-03
					-1.21273000E-04	-2.24659000E-03	 2.62066000E-03
					 0.00000000E+00	 0.00000000E+00	 0.00000000E+00
					 8.49686000E-04	-5.99303000E-03	-5.16943000E-03
					 0.00000000E+00	 0.00000000E+00	 0.00000000E+00
					 2.62833000E-04	-6.55742000E-03	-5.24780000E-03
					 0.00000000E+00	 0.00000000E+00	 0.00000000E+00
					 8.99581000E-04	-1.76301000E-03	-2.71504000E-03
					 4.32180000E-04	-5.77078000E-03	-2.52380000E-03
					 0.00000000E+00	 0.00000000E+00	 0.00000000E+00
					 5.51715000E-04	-6.37824000E-03	-5.19569000E-03
					 0.00000000E+00	 0.00000000E+00	 0.00000000E+00
					 1.25809000E-04	-2.22897000E-03	-2.65283000E-03
					 1.35022000E-04	-6.31934000E-03	-2.54491000E-03
					 0.00000000E+00	 0.00000000E+00	 0.00000000E+00
					 0.00000000E+00	 0.00000000E+00	 0.00000000E+00
					 6.31762000E-06	-6.28111000E-03	-3.49764000E-05
					 3.45585000E-04	-6.55762000E-03	 5.08882000E-03
					 0.00000000E+00	 0.00000000E+00	 0.00000000E+00
					 0.00000000E+00	 0.00000000E+00	 0.00000000E+00
					 7.52859000E-06	-6.40140000E-03	-4.05490000E-05
					 4.49644000E-05	-6.69412000E-03	 5.15688000E-03
					 0.00000000E+00	 0.00000000E+00	 0.00000000E+00
					-3.10737000E-06	-1.59017000E-03	-1.01390000E-05
					 1.76020000E-04	-6.30745000E-03	 2.39889000E-03
					 6.57339000E-04	-2.01893000E-03	 2.68927000E-03
					 0.00000000E+00	 0.00000000E+00	 0.00000000E+00
					-3.29426000E-04	-6.50019000E-03	-5.16474000E-03
					 0.00000000E+00	 0.00000000E+00	 0.00000000E+00
					-2.93189000E-05	-6.63367000E-03	-5.24427000E-03
					 0.00000000E+00	 0.00000000E+00	 0.00000000E+00
					-6.58755000E-04	-2.00184000E-03	-2.71340000E-03
					-1.62295000E-04	-6.28042000E-03	-2.47081000E-03
					 2.73713000E-05	-2.01809000E-02	-1.51804000E-04
					-8.54850000E-04	-2.03921000E-02	 8.03118000E-03
					 2.86097000E-05	-2.09044000E-02	-1.56133000E-04
					-5.50578000E-04	-2.11241000E-02	 8.05381000E-03
					 2.16038000E-05	-1.22394000E-02	-8.45809000E-05
					-4.14193000E-04	-2.02552000E-02	 3.89568000E-03
					-8.37836000E-04	-1.25318000E-02	 6.81987000E-03
					 2.84123000E-05	-2.05730000E-02	-1.54975000E-04
					-7.02052000E-04	-2.07882000E-02	 8.03429000E-03
					 2.09535000E-05	-1.28732000E-02	-8.81083000E-05
					-2.60516000E-04	-2.09851000E-02	 3.89732000E-03
					-3.90462000E-04	-1.31672000E-02	 6.85685000E-03
					 9.03719000E-04	-2.02664000E-02	-8.34254000E-03
					 5.96093000E-04	-2.09891000E-02	-8.37505000E-03
					 8.73023000E-04	-1.24403000E-02	-7.00436000E-03
					 4.67403000E-04	-2.01967000E-02	-4.20169000E-03
					 7.50624000E-04	-2.06580000E-02	-8.35168000E-03
					 4.23791000E-04	-1.30675000E-02	-7.04439000E-03
					 3.13430000E-04	-2.09207000E-02	-4.21190000E-03
					 2.60123000E-05	-2.13283000E-02	-1.55375000E-04
					-2.51604000E-04	-2.15541000E-02	 8.02849000E-03
					 2.80804000E-05	-2.11472000E-02	-1.55887000E-04
					-4.01628000E-04	-2.13676000E-02	 8.07949000E-03
					 1.77786000E-05	-1.30556000E-02	-8.45879000E-05
					-1.08873000E-04	-2.14125000E-02	 3.84813000E-03
					 5.49401000E-05	-1.33565000E-02	 6.82637000E-03
					 2.88614000E-04	-2.14035000E-02	-8.34817000E-03
					 4.42320000E-04	-2.12256000E-02	-8.40111000E-03
					-2.67731000E-05	-1.32496000E-02	-7.00249000E-03
					 1.56655000E-04	-2.13371000E-02	-4.16059000E-03
					 4.12146000E-05	-3.85912000E-02	-3.21778000E-04
					-8.70115000E-04	-3.87437000E-02	 9.17441000E-03
					 4.25458000E-05	-3.94656000E-02	-3.34975000E-04
					-7.78934000E-04	-3.96067000E-02	 9.18011000E-03
					 3.58821000E-05	-2.90672000E-02	-2.35467000E-04
					-4.17861000E-04	-3.86554000E-02	 4.39481000E-03
					-8.74567000E-04	-2.92520000E-02	 8.77202000E-03
					 4.16145000E-05	-3.90417000E-02	-3.28369000E-04
					-8.23777000E-04	-3.91860000E-02	 9.17288000E-03
					 3.55780000E-05	-2.98792000E-02	-2.41249000E-04
					-3.69251000E-04	-3.95223000E-02	 4.38415000E-03
					-6.82110000E-04	-3.00616000E-02	 8.78755000E-03
					 9.63665000E-04	-3.85465000E-02	-9.81821000E-03
					 8.77251000E-04	-3.94243000E-02	-9.85125000E-03
					 9.46602000E-04	-2.90894000E-02	-9.24163000E-03
					 5.03347000E-04	-3.85553000E-02	-5.03932000E-03
					 9.19645000E-04	-3.89970000E-02	-9.82894000E-03
					 7.52424000E-04	-2.98998000E-02	-9.27536000E-03
					 4.58865000E-04	-3.94326000E-02	-5.05464000E-03
					 4.50846000E-05	-4.02453000E-02	-3.42141000E-04
					-6.85344000E-04	-4.03783000E-02	 9.15404000E-03
					 4.36600000E-05	-3.98678000E-02	-3.39944000E-04
					-7.32399000E-04	-4.00052000E-02	 9.18909000E-03
					 3.33786000E-05	-3.05009000E-02	-2.41133000E-04
					-3.20662000E-04	-4.02961000E-02	 4.34677000E-03
					-4.96047000E-04	-3.06893000E-02	 8.76089000E-03
					 7.88035000E-04	-4.02133000E-02	-9.84158000E-03
					 8.33472000E-04	-3.98299000E-02	-9.87250000E-03
					 5.60214000E-04	-3.05261000E-02	-9.25468000E-03
					 4.14448000E-04	-4.02189000E-02	-5.03148000E-03
					 5.38195000E-05	-5.78979000E-02	-4.98947000E-04
					-1.12868000E-03	-5.79917000E-02	 9.20529000E-03
					 5.43321000E-05	-5.90829000E-02	-5.20084000E-04
					-1.12745000E-03	-5.91758000E-02	 9.18632000E-03
					 4.61477000E-05	-4.82936000E-02	-4.06928000E-04
					-5.38295000E-04	-5.79473000E-02	 4.38511000E-03
					-9.42389000E-04	-4.84237000E-02	 9.26978000E-03
					 5.37510000E-05	-5.84904000E-02	-5.08623000E-04
					-1.12970000E-03	-5.85820000E-02	 9.15980000E-03
					 4.90570000E-05	-4.92816000E-02	-4.27015000E-04
					-5.36751000E-04	-5.91322000E-02	 4.32844000E-03
					-9.14880000E-04	-4.93972000E-02	 9.26190000E-03
					 1.23331000E-03	-5.78058000E-02	-1.02040000E-02
					 1.23506000E-03	-5.89849000E-02	-1.02258000E-02
					 1.04464000E-03	-4.82232000E-02	-1.00895000E-02
					 6.45085000E-04	-5.78542000E-02	-5.38157000E-03
					 1.23482000E-03	-5.83949000E-02	-1.01792000E-02
					 1.02317000E-03	-4.92068000E-02	-1.01169000E-02
					 6.45336000E-04	-5.90372000E-02	-5.36825000E-03
					 5.68293000E-05	-6.02586000E-02	-5.44682000E-04
					-1.12744000E-03	-6.03563000E-02	 9.15962000E-03
					 5.52621000E-05	-5.96693000E-02	-5.32287000E-04
					-1.12613000E-03	-5.97657000E-02	 9.21109000E-03
					 5.40453000E-05	-5.02315000E-02	-4.46279000E-04
					-5.35311000E-04	-6.03084000E-02	 4.26468000E-03
					-8.76394000E-04	-5.03393000E-02	 9.23557000E-03
					 1.24153000E-03	-6.01640000E-02	-1.02459000E-02
					 1.23718000E-03	-5.95716000E-02	-1.02727000E-02
					 9.94042000E-04	-5.01614000E-02	-1.01247000E-02
					 6.48724000E-04	-6.02146000E-02	-5.35353000E-03
					 6.50322000E-05	-7.69329000E-02	-6.92394000E-04
					-1.44981000E-03	-7.70298000E-02	 9.00474000E-03
					 6.23978000E-05	-7.84350000E-02	-7.09394000E-04
					-1.43245000E-03	-7.85416000E-02	 8.98395000E-03
					 5.72201000E-05	-6.73867000E-02	-5.97764000E-04
					-6.90109000E-04	-7.69820000E-02	 4.17215000E-03
					-1.34631000E-03	-6.74748000E-02	 9.09585000E-03
					 6.51822000E-05	-7.76835000E-02	-7.00813000E-04
					-1.44146000E-03	-7.77887000E-02	 8.98610000E-03
					 5.47749000E-05	-6.87781000E-02	-6.15805000E-04
					-6.86121000E-04	-7.84907000E-02	 4.14400000E-03
					-1.33590000E-03	-6.88758000E-02	 9.07552000E-03
					 1.56989000E-03	-7.68333000E-02	-1.03816000E-02
					 1.55634000E-03	-7.83359000E-02	-1.03951000E-02
					 1.44994000E-03	-6.72912000E-02	-1.02836000E-02
					 8.17924000E-04	-7.68820000E-02	-5.55528000E-03
					 1.56445000E-03	-7.75851000E-02	-1.03800000E-02
					 1.44291000E-03	-6.86803000E-02	-1.03013000E-02
					 8.10597000E-04	-7.83846000E-02	-5.56099000E-03
					 5.89002000E-05	-7.99229000E-02	-7.30340000E-04
					-1.43268000E-03	-8.00357000E-02	 8.96434000E-03
					 5.95809000E-05	-7.91805000E-02	-7.18858000E-04
					-1.43314000E-03	-7.92872000E-02	 8.98026000E-03
					 5.43671000E-05	-7.01618000E-02	-6.37813000E-04
					-6.84754000E-04	-7.99810000E-02	 4.11753000E-03
					-1.33778000E-03	-7.02672000E-02	 9.05246000E-03
					 1.55971000E-03	-7.98393000E-02	-1.04184000E-02
					 1.55777000E-03	-7.90840000E-02	-1.04105000E-02
					 1.45191000E-03	-7.00740000E-02	-1.03241000E-02
					 8.05320000E-04	-7.98813000E-02	-5.57659000E-03
					 6.88244000E-05	-9.64357000E-02	-8.52885000E-04
					-1.29521000E-03	-9.65783000E-02	 9.09587000E-03
					 6.92774000E-05	-9.77397000E-02	-8.91027000E-04
					-1.19254000E-03	-9.78916000E-02	 9.04553000E-03
					 7.61582000E-05	-8.65879000E-02	-7.73266000E-04
					-6.10980000E-04	-9.64939000E-02	 4.11552000E-03
					-1.43173000E-03	-8.67044000E-02	 8.98407000E-03
					 7.09987000E-05	-9.70997000E-02	-8.73943000E-04
					-1.24265000E-03	-9.72502000E-02	 9.10360000E-03
					 7.35797000E-05	-8.80629000E-02	-7.99068000E-04
					-5.61776000E-04	-9.78043000E-02	 4.10764000E-03
					-1.38298000E-03	-8.81925000E-02	 8.94708000E-03
					 1.42231000E-03	-9.63755000E-02	-1.08192000E-02
					 1.31945000E-03	-9.76814000E-02	-1.08453000E-02
					 1.57238000E-03	-8.64988000E-02	-1.05339000E-02
					 7.44146000E-04	-9.63926000E-02	-5.82685000E-03
					 1.37340000E-03	-9.70413000E-02	-1.08683000E-02
					 1.52253000E-03	-8.79785000E-02	-1.05470000E-02
					 6.95057000E-04	-9.76960000E-02	-5.89449000E-03
					 6.31705000E-05	-9.89459000E-02	-9.12056000E-04
					-1.10221000E-03	-9.91048000E-02	 9.03405000E-03
					 6.61106000E-05	-9.83559000E-02	-9.02933000E-04
					-1.14824000E-03	-9.85089000E-02	 8.98850000E-03
					 6.51956000E-05	-8.94938000E-02	-8.23165000E-04
					-5.18816000E-04	-9.90166000E-02	 4.13877000E-03
					-1.36105000E-03	-8.96365000E-02	 8.93151000E-03
					 1.21782000E-03	-9.88849000E-02	-1.08762000E-02
					 1.26792000E-03	-9.82981000E-02	-1.08114000E-02
					 1.48941000E-03	-8.94229000E-02	-1.05783000E-02
					 6.42048000E-04	-9.88987000E-02	-5.96898000E-03
					 3.80343000E-05	-1.17616000E-01	-1.07918000E-03
					-8.07694000E-04	-1.17777000E-01	 9.74723000E-03
					 5.72177000E-05	-1.18405000E-01	-1.10456000E-03
					-6.75815000E-04	-1.18566000E-01	 9.72308000E-03
					 4.91877000E-05	-1.06735000E-01	-9.53533000E-04
					-3.83076000E-04	-1.17675000E-01	 4.28554000E-03
					-1.05919000E-03	-1.06890000E-01	 9.41037000E-03
					 4.43558000E-05	-1.18025000E-01	-1.09182000E-03
					-7.45343000E-04	-1.18187000E-01	 9.77301000E-03
					 6.15149000E-05	-1.07776000E-01	-9.92729000E-04
					-3.06589000E-04	-1.18465000E-01	 4.29373000E-03
					-9.15559000E-04	-1.07932000E-01	 9.36705000E-03
					 8.78494000E-04	-1.17574000E-01	-1.19050000E-02
					 7.79515000E-04	-1.18359000E-01	-1.19303000E-02
					 1.15569000E-03	-1.06691000E-01	-1.13358000E-02
					 4.57398000E-04	-1.17584000E-01	-6.44090000E-03
					 8.24771000E-04	-1.17980000E-01	-1.19574000E-02
					 1.02971000E-03	-1.07734000E-01	-1.13724000E-02
					 4.16359000E-04	-1.18369000E-01	-6.50135000E-03
					 7.25664000E-05	-1.19077000E-01	-1.13117000E-03
					-5.39158000E-04	-1.19235000E-01	 9.67713000E-03
					 6.90789000E-05	-1.18758000E-01	-1.11936000E-03
					-6.01856000E-04	-1.18918000E-01	 9.67198000E-03
					 6.91404000E-05	-1.08686000E-01	-1.00921000E-03
					-2.33858000E-04	-1.19138000E-01	 4.28199000E-03
					-7.70279000E-04	-1.08841000E-01	 9.34997000E-03
					 6.71373000E-04	-1.19018000E-01	-1.19363000E-02
					 7.27966000E-04	-1.18709000E-01	-1.19086000E-02
					 8.95887000E-04	-1.08630000E-01	-1.13902000E-02
					 3.74400000E-04	-1.19034000E-01	-6.54152000E-03
					 7.17415000E-05	-1.40200000E-01	-1.36328000E-03
					-5.04547000E-04	-1.40356000E-01	 9.85588000E-03
					 3.84240000E-05	-1.40725000E-01	-1.34777000E-03
					-5.23957000E-04	-1.40893000E-01	 9.84782000E-03
					 4.12177000E-05	-1.28900000E-01	-1.22259000E-03
					-2.15633000E-04	-1.40280000E-01	 4.22862000E-03
					-6.09388000E-04	-1.29041000E-01	 9.89386000E-03
					 6.01426000E-05	-1.40471000E-01	-1.34921000E-03
					-5.12431000E-04	-1.40634000E-01	 9.86729000E-03
					 4.66531000E-05	-1.29509000E-01	-1.22319000E-03
					-2.49931000E-04	-1.40814000E-01	 4.23469000E-03
					-5.43061000E-04	-1.29657000E-01	 9.88431000E-03
					 5.91398000E-04	-1.40099000E-01	-1.25283000E-02
					 5.78443000E-04	-1.40580000E-01	-1.24959000E-02
					 6.58417000E-04	-1.28832000E-01	-1.23060000E-02
					 3.43635000E-04	-1.40152000E-01	-6.93757000E-03
					 5.87386000E-04	-1.40338000E-01	-1.25171000E-02
					 6.18600000E-04	-1.29412000E-01	-1.22971000E-02
					 3.18142000E-04	-1.40651000E-01	-6.91783000E-03
					 7.42039000E-07	-1.41228000E-01	-1.39595000E-03
					-5.46202000E-04	-1.41378000E-01	 9.74356000E-03
					 1.59185000E-05	-1.40965000E-01	-1.36412000E-03
					-5.35967000E-04	-1.41133000E-01	 9.80613000E-03
					 4.86849000E-05	-1.30061000E-01	-1.26789000E-03
					-2.83445000E-04	-1.41307000E-01	 4.15076000E-03
					-4.75264000E-04	-1.30194000E-01	 9.79874000E-03
					 5.61755000E-04	-1.41080000E-01	-1.24894000E-02
					 5.67298000E-04	-1.40821000E-01	-1.24893000E-02
					 5.73356000E-04	-1.29952000E-01	-1.22965000E-02
					 2.87215000E-04	-1.41152000E-01	-6.92976000E-03
					 0.00000000E+00	 0.00000000E+00	 0.00000000E+00
					 0.00000000E+00	 0.00000000E+00	 0.00000000E+00
					 2.07144000E-05	-1.10509000E-02	-2.59259000E-04
					-2.37148000E-03	-1.18507000E-02	 1.11434000E-02
					 0.00000000E+00	 0.00000000E+00	 0.00000000E+00
					 0.00000000E+00	 0.00000000E+00	 0.00000000E+00
					-1.12997000E-05	-1.26530000E-02	-3.01026000E-04
					-8.64356000E-04	-1.35079000E-02	 1.12216000E-02
					 0.00000000E+00	 0.00000000E+00	 0.00000000E+00
					 3.38323000E-05	-2.16521000E-03	-9.67439000E-05
					-1.17642000E-03	-1.11860000E-02	 5.40819000E-03
					-2.10350000E-03	-3.17072000E-03	 5.64664000E-03
					 0.00000000E+00	 0.00000000E+00	 0.00000000E+00
					 0.00000000E+00	 0.00000000E+00	 0.00000000E+00
					 6.54844000E-06	-1.21083000E-02	-2.85068000E-04
					-1.60587000E-03	-1.29354000E-02	 1.10991000E-02
					 0.00000000E+00	 0.00000000E+00	 0.00000000E+00
					-6.05267000E-06	-3.35520000E-03	-1.11888000E-04
					-4.39162000E-04	-1.28051000E-02	 5.33976000E-03
					-4.21643000E-04	-4.35190000E-03	 5.46848000E-03
					 0.00000000E+00	 0.00000000E+00	 0.00000000E+00
					 2.38733000E-03	-1.15938000E-02	-1.17039000E-02
					 0.00000000E+00	 0.00000000E+00	 0.00000000E+00
					 8.43332000E-04	-1.32433000E-02	-1.18671000E-02
					 0.00000000E+00	 0.00000000E+00	 0.00000000E+00
					 2.15879000E-03	-3.11435000E-03	-5.86059000E-03
					 1.20840000E-03	-1.10542000E-02	-5.93881000E-03
					 0.00000000E+00	 0.00000000E+00	 0.00000000E+00
					 1.60943000E-03	-1.26711000E-02	-1.17127000E-02
					 0.00000000E+00	 0.00000000E+00	 0.00000000E+00
					 4.15005000E-04	-4.30357000E-03	-5.70602000E-03
					 4.15306000E-04	-1.26708000E-02	-5.95566000E-03
					 0.00000000E+00	 0.00000000E+00	 0.00000000E+00
					 0.00000000E+00	 0.00000000E+00	 0.00000000E+00
					-4.50868000E-05	-1.27550000E-02	-3.00177000E-04
					 6.45619000E-04	-1.35486000E-02	 1.11054000E-02
					 0.00000000E+00	 0.00000000E+00	 0.00000000E+00
					 0.00000000E+00	 0.00000000E+00	 0.00000000E+00
					-2.88342000E-05	-1.29586000E-02	-3.06487000E-04
					-1.20044000E-04	-1.37821000E-02	 1.12327000E-02
					 0.00000000E+00	 0.00000000E+00	 0.00000000E+00
					-4.86822000E-05	-3.00041000E-03	-1.15350000E-04
					 2.99268000E-04	-1.28835000E-02	 5.21217000E-03
					 1.28645000E-03	-3.96743000E-03	 5.62679000E-03
					 0.00000000E+00	 0.00000000E+00	 0.00000000E+00
					-7.10857000E-04	-1.32944000E-02	-1.17376000E-02
					 0.00000000E+00	 0.00000000E+00	 0.00000000E+00
					 7.20562000E-05	-1.35203000E-02	-1.18825000E-02
					 0.00000000E+00	 0.00000000E+00	 0.00000000E+00
					-1.36312000E-03	-3.92480000E-03	-5.87514000E-03
					-3.80166000E-04	-1.27601000E-02	-5.82159000E-03
					 3.39935000E-05	-4.44623000E-02	-9.95306000E-04
					-2.75025000E-03	-4.54200000E-02	 1.96362000E-02
					 1.73106000E-05	-4.66607000E-02	-1.05033000E-03
					-1.62698000E-03	-4.76354000E-02	 1.96339000E-02
					 2.49140000E-05	-2.53211000E-02	-5.45108000E-04
					-1.35557000E-03	-4.48116000E-02	 9.23062000E-03
					-2.64038000E-03	-2.62803000E-02	 1.58465000E-02
					 2.53414000E-05	-4.56882000E-02	-1.03257000E-03
					-2.18963000E-03	-4.66541000E-02	 1.96135000E-02
					-5.00035000E-06	-2.72788000E-02	-6.00814000E-04
					-7.97900000E-04	-4.70203000E-02	 9.18653000E-03
					-1.27671000E-03	-2.82486000E-02	 1.58469000E-02
					 2.80227000E-03	-4.45847000E-02	-2.16859000E-02
					 1.64124000E-03	-4.67883000E-02	-2.17943000E-02
					 2.66359000E-03	-2.57597000E-02	-1.70020000E-02
					 1.41759000E-03	-4.44028000E-02	-1.12358000E-02
					 2.22554000E-03	-4.58176000E-02	-2.17349000E-02
					 1.25649000E-03	-2.77138000E-02	-1.71085000E-02
					 8.30574000E-04	-4.66052000E-02	-1.12988000E-02
					-6.05548000E-06	-4.77317000E-02	-1.05081000E-03
					-4.85434000E-04	-4.86899000E-02	 1.95769000E-02
					 6.09158000E-06	-4.73211000E-02	-1.05469000E-03
					-1.05445000E-03	-4.83237000E-02	 1.96796000E-02
					-3.78987000E-05	-2.78550000E-02	-6.02826000E-04
					-2.52025000E-04	-4.80778000E-02	 9.08237000E-03
					 8.19831000E-05	-2.88235000E-02	 1.57925000E-02
					 4.86954000E-04	-4.78418000E-02	-2.17368000E-02
					 1.06102000E-03	-4.74429000E-02	-2.18516000E-02
					-1.40240000E-04	-2.82949000E-02	-1.70490000E-02
					 2.45038000E-04	-4.76636000E-02	-1.11933000E-02
					 1.80689000E-04	-9.32383000E-02	-2.36359000E-03
					-2.81071000E-03	-9.41680000E-02	 2.39716000E-02
					 1.68634000E-04	-9.58983000E-02	-2.37388000E-03
					-2.19997000E-03	-9.69437000E-02	 2.40146000E-02
					 8.77062000E-05	-6.74370000E-02	-1.60941000E-03
					-1.30892000E-03	-9.36215000E-02	 1.07214000E-02
					-2.78343000E-03	-6.84195000E-02	 2.22998000E-02
					 1.74413000E-04	-9.46486000E-02	-2.37008000E-03
					-2.50992000E-03	-9.56494000E-02	 2.39574000E-02
					 7.01195000E-05	-6.98686000E-02	-1.64764000E-03
					-1.03969000E-03	-9.63411000E-02	 1.06935000E-02
					-1.92968000E-03	-7.08676000E-02	 2.23214000E-02
					 3.13417000E-03	-9.28427000E-02	-2.87175000E-02
					 2.54070000E-03	-9.55156000E-02	-2.88172000E-02
					 2.93962000E-03	-6.73066000E-02	-2.55651000E-02
					 1.65804000E-03	-9.29680000E-02	-1.54469000E-02
					 2.83546000E-03	-9.42540000E-02	-2.87445000E-02
					 2.06459000E-03	-6.97229000E-02	-2.56692000E-02
					 1.35639000E-03	-9.56417000E-02	-1.54700000E-02
					 1.61033000E-04	-9.79741000E-02	-2.35020000E-03
					-1.68787000E-03	-9.91371000E-02	 2.39757000E-02
					 1.63908000E-04	-9.70267000E-02	-2.36846000E-03
					-1.94690000E-03	-9.80056000E-02	 2.40899000E-02
					 6.21423000E-05	-7.14303000E-02	-1.63910000E-03
					-7.32314000E-04	-9.84747000E-02	 1.05871000E-02
					-1.10045000E-03	-7.24599000E-02	 2.22651000E-02
					 1.97211000E-03	-9.76237000E-02	-2.87606000E-02
					 2.25521000E-03	-9.66353000E-02	-2.88867000E-02
					 1.18206000E-03	-7.12781000E-02	-2.56038000E-02
					 1.05750000E-03	-9.77480000E-02	-1.53397000E-02
					 6.09393000E-04	-1.49882000E-01	-4.17060000E-03
					-2.32661000E-03	-1.50586000E-01	 2.42078000E-02