<?xml version="1.0"?>
<VTKFile type="UnstructuredGrid" version="0.1" byte_order="LittleEndian">
	<UnstructuredGrid>
		<Piece NumberOfPoints="522" NumberOfCells="64">
			<Points>
				<DataArray type="Float64" NumberOfComponents="3" format="ascii">
					 1.00000000E+00	 1.00000000E+00	-5.96046000E-08
					 1.00000000E+00	 5.00000000E-01	-5.96046000E-08
					 1.00000000E+00	 5.00000000E-01	 1.00000000E+00
					 1.00000000E+00	 1.00000000E+00	 1.00000000E+00
					 5.00000000E-01	 1.00000000E+00	-5.96046000E-08
					 5.00000000E-01	 5.00000000E-01	-5.96046000E-08
					 5.00000000E-01	 5.00000000E-01	 1.00000000E+00
					 5.00000000E-01	 1.00000000E+00	 1.00000000E+00
					 1.00000000E+00	 7.50000000E-01	-5.96046000E-08
					 1.00000000E+00	 5.00000000E-01	 5.00000000E-01
					 1.00000000E+00	 7.50000000E-01	 1.00000000E+00
					 1.00000000E+00	 1.00000000E+00	 5.00000000E-01
					 7.50000000E-01	 1.00000000E+00	-5.96046000E-08
					 7.50000000E-01	 5.00000000E-01	-5.96046000E-08
					 7.50000000E-01	 5.00000000E-01	 1.00000000E+00
					 7.50000000E-01	 1.00000000E+00	 1.00000000E+00
					 5.00000000E-01	 7.50000000E-01	-5.96046000E-08
					 5.00000000E-01	 5.00000000E-01	 5.00000000E-01
					 5.00000000E-01	 7.50000000E-01	 1.00000000E+00
					 5.00000000E-01	 1.00000000E+00	 5.00000000E-01
					 1.00000000E+00	-1.49012000E-08	-5.96046000E-08
					 1.00000000E+00	-1.49012000E-08	 1.00000000E+00
					 5.00000000E-01	-1.49012000E-08	-5.96046000E-08
					 5.00000000E-01	-1.49012000E-08	 1.00000000E+00
					 1.00000000E+00	 2.50000000E-01	-5.96046000E-08
					 1.00000000E+00	-1.49012000E-08	 5.00000000E-01
					 1.00000000E+00	 2.50000000E-01	 1.00000000E+00
					 7.50000000E-01	-1.49012000E-08	-5.96046000E-08
					 7.50000000E-01	-1.49012000E-08	 1.00000000E+00
					 5.00000000E-01	 2.50000000E-01	-5.96046000E-08
					 5.00000000E-01	-1.49012000E-08	 5.00000000E-01
					 5.00000000E-01	 2.50000000E-01	 1.00000000E+00
					-7.45058000E-09	 1.00000000E+00	-5.96046000E-08
					-7.45058000E-09	 5.00000000E-01	-5.96046000E-08
					-7.45058000E-09	 5.00000000E-01	 1.00000000E+00
					-7.45058000E-09	 1.00000000E+00	 1.00000000E+00
					 2.50000000E-01	 1.00000000E+00	-5.96046000E-08
					 2.50000000E-01	 5.00000000E-01	-5.96046000E-08
					 2.50000000E-01	 5.00000000E-01	 1.00000000E+00
					 2.50000000E-01	 1.00000000E+00	 1.00000000E+00
					-7.45058000E-09	 7.50000000E-01	-5.96046000E-08
					-7.45058000E-09	 5.00000000E-01	 5.00000000E-01
					-7.45058000E-09	 7.50000000E-01	 1.00000000E+00
					-7.45058000E-09	 1.00000000E+00	 5.00000000E-01
					-7.45058000E-09	-1.49012000E-08	-5.96046000E-08
					-7.45058000E-09	-1.49012000E-08	 1.00000000E+00
					 2.50000000E-01	-1.49012000E-08	-5.96046000E-08
					 2.50000000E-01	-1.49012000E-08	 1.00000000E+00
					-7.45058000E-09	 2.50000000E-01	-5.96046000E-08
					-7.45058000E-09	-1.49012000E-08	 5.00000000E-01
					-7.45058000E-09	 2.50000000E-01	 1.00000000E+00
					 1.00000000E+00	 5.00000000E-01	 2.00000000E+00
					 1.00000000E+00	 1.00000000E+00	 2.00000000E+00
					 5.00000000E-01	 5.00000000E-01	 2.00000000E+00
					 5.00000000E-01	 1.00000000E+00	 2.00000000E+00
					 1.00000000E+00	 5.00000000E-01	 1.50000000E+00
					 1.00000000E+00	 7.50000000E-01	 2.00000000E+00
					 1.00000000E+00	 1.00000000E+00	 1.50000000E+00
					 7.50000000E-01	 5.00000000E-01	 2.00000000E+00
					 7.50000000E-01	 1.00000000E+00	 2.00000000E+00
					 5.00000000E-01	 5.00000000E-01	 1.50000000E+00
					 5.00000000E-01	 7.50000000E-01	 2.00000000E+00
					 5.00000000E-01	 1.00000000E+00	 1.50000000E+00
					 1.00000000E+00	-1.49012000E-08	 2.00000000E+00
					 5.00000000E-01	-1.49012000E-08	 2.00000000E+00
					 1.00000000E+00	-1.49012000E-08	 1.50000000E+00
					 1.00000000E+00	 2.50000000E-01	 2.00000000E+00
					 7.50000000E-01	-1.49012000E-08	 2.00000000E+00
					 5.00000000E-01	-1.49012000E-08	 1.50000000E+00
					 5.00000000E-01	 2.50000000E-01	 2.00000000E+00
					-7.45058000E-09	 5.00000000E-01	 2.00000000E+00
					-7.45058000E-09	 1.00000000E+00	 2.00000000E+00
					 2.50000000E-01	 5.00000000E-01	 2.00000000E+00
					 2.50000000E-01	 1.00000000E+00	 2.00000000E+00
					-7.45058000E-09	 5.00000000E-01	 1.50000000E+00
					-7.45058000E-09	 7.50000000E-01	 2.00000000E+00
					-7.45058000E-09	 1.00000000E+00	 1.50000000E+00
					-7.45058000E-09	-1.49012000E-08	 2.00000000E+00
					 2.50000000E-01	-1.49012000E-08	 2.00000000E+00
					-7.45058000E-09	-1.49012000E-08	 1.50000000E+00
					-7.45058000E-09	 2.50000000E-01	 2.00000000E+00
					 1.00000000E+00	 5.00000000E-01	 3.00000000E+00
					 1.00000000E+00	 1.00000000E+00	 3.00000000E+00
					 5.00000000E-01	 5.00000000E-01	 3.00000000E+00
					 5.00000000E-01	 1.00000000E+00	 3.00000000E+00
					 1.00000000E+00	 5.00000000E-01	 2.50000000E+00
					 1.00000000E+00	 7.50000000E-01	 3.00000000E+00
					 1.00000000E+00	 1.00000000E+00	 2.50000000E+00
					 7.50000000E-01	 5.00000000E-01	 3.00000000E+00
					 7.50000000E-01	 1.00000000E+00	 3.00000000E+00
					 5.00000000E-01	 5.00000000E-01	 2.50000000E+00
					 5.00000000E-01	 7.50000000E-01	 3.00000000E+00
					 5.00000000E-01	 1.00000000E+00	 2.50000000E+00
					 1.00000000E+00	-1.49012000E-08	 3.00000000E+00
					 5.00000000E-01	-1.49012000E-08	 3.00000000E+00
					 1.00000000E+00	-1.49012000E-08	 2.50000000E+00
					 1.00000000E+00	 2.50000000E-01	 3.00000000E+00
					 7.50000000E-01	-1.49012000E-08	 3.00000000E+00
					 5.00000000E-01	-1.49012000E-08	 2.50000000E+00
					 5.00000000E-01	 2.50000000E-01	 3.00000000E+00
					-7.45058000E-09	 5.00000000E-01	 3.00000000E+00
					-7.45058000E-09	 1.00000000E+00	 3.00000000E+00
					 2.50000000E-01	 5.00000000E-01	 3.00000000E+00
					 2.50000000E-01	 1.00000000E+00	 3.00000000E+00
					-7.45058000E-09	 5.00000000E-01	 2.50000000E+00
					-7.45058000E-09	 7.50000000E-01	 3.00000000E+00
					-7.45058000E-09	 1.00000000E+00	 2.50000000E+00
					-7.45058000E-09	-1.49012000E-08	 3.00000000E+00
					 2.50000000E-01	-1.49012000E-08	 3.00000000E+00
					-7.45058000E-09	-1.49012000E-08	 2.50000000E+00
					-7.45058000E-09	 2.50000000E-01	 3.00000000E+00
					 1.00000000E+00	 5.00000000E-01	 4.00000000E+00
					 1.00000000E+00	 1.00000000E+00	 4.00000000E+00
					 5.00000000E-01	 5.00000000E-01	 4.00000000E+00
					 5.00000000E-01	 1.00000000E+00	 4.00000000E+00
					 1.00000000E+00	 5.00000000E-01	 3.50000000E+00
					 1.00000000E+00	 7.50000000E-01	 4.00000000E+00
					 1.00000000E+00	 1.00000000E+00	 3.50000000E+00
					 7.50000000E-01	 5.00000000E-01	 4.00000000E+00
					 7.50000000E-01	 1.00000000E+00	 4.00000000E+00
					 5.00000000E-01	 5.00000000E-01	 3.50000000E+00
					 5.00000000E-01	 7.50000000E-01	 4.00000000E+00
					 5.00000000E-01	 1.00000000E+00	 3.50000000E+00
					 1.00000000E+00	-1.49012000E-08	 4.00000000E+00
					 5.00000000E-01	-1.49012000E-08	 4.00000000E+00
					 1.00000000E+00	-1.49012000E-08	 3.50000000E+00
					 1.00000000E+00	 2.50000000E-01	 4.00000000E+00
					 7.50000000E-01	-1.49012000E-08	 4.00000000E+00
					 5.00000000E-01	-1.49012000E-08	 3.50000000E+00
					 5.00000000E-01	 2.50000000E-01	 4.00000000E+00
					-7.45058000E-09	 5.00000000E-01	 4.00000000E+00
					-7.45058000E-09	 1.00000000E+00	 4.00000000E+00
					 2.50000000E-01	 5.00000000E-01	 4.00000000E+00
					 2.50000000E-01	 1.00000000E+00	 4.00000000E+00
					-7.45058000E-09	 5.00000000E-01	 3.50000000E+00
					-7.45058000E-09	 7.50000000E-01	 4.00000000E+00
					-7.45058000E-09	 1.00000000E+00	 3.50000000E+00
					-7.45058000E-09	-1.49012000E-08	 4.00000000E+00
					 2.50000000E-01	-1.49012000E-08	 4.00000000E+00
					-7.45058000E-09	-1.49012000E-08	 3.50000000E+00
					-7.45058000E-09	 2.50000000E-01	 4.00000000E+00
					 1.00000000E+00	 5.00000000E-01	 5.00000000E+00
					 1.00000000E+00	 1.00000000E+00	 5.00000000E+00
					 5.00000000E-01	 5.00000000E-01	 5.00000000E+00
					 5.00000000E-01	 1.00000000E+00	 5.00000000E+00
					 1.00000000E+00	 5.00000000E-01	 4.50000000E+00
					 1.00000000E+00	 7.50000000E-01	 5.00000000E+00
					 1.00000000E+00	 1.00000000E+00	 4.50000000E+00
					 7.50000000E-01	 5.00000000E-01	 5.00000000E+00
					 7.50000000E-01	 1.00000000E+00	 5.00000000E+00
					 5.00000000E-01	 5.00000000E-01	 4.50000000E+00
					 5.00000000E-01	 7.50000000E-01	 5.00000000E+00
					 5.00000000E-01	 1.00000000E+00	 4.50000000E+00
					 1.00000000E+00	-1.49012000E-08	 5.00000000E+00
					 5.00000000E-01	-1.49012000E-08	 5.00000000E+00
					 1.00000000E+00	-1.49012000E-08	 4.50000000E+00
					 1.00000000E+00	 2.50000000E-01	 5.00000000E+00
					 7.50000000E-01	-1.49012000E-08	 5.00000000E+00
					 5.00000000E-01	-1.49012000E-08	 4.50000000E+00
					 5.00000000E-01	 2.50000000E-01	 5.00000000E+00
					-7.45058000E-09	 5.00000000E-01	 5.00000000E+00
					-7.45058000E-09	 1.00000000E+00	 5.00000000E+00
					 2.50000000E-01	 5.00000000E-01	 5.00000000E+00
					 2.50000000E-01	 1.00000000E+00	 5.00000000E+00
					-7.45058000E-09	 5.00000000E-01	 4.50000000E+00
					-7.45058000E-09	 7.50000000E-01	 5.00000000E+00
					-7.45058000E-09	 1.00000000E+00	 4.50000000E+00
					-7.45058000E-09	-1.49012000E-08	 5.00000000E+00
					 2.50000000E-01	-1.49012000E-08	 5.00000000E+00
					-7.45058000E-09	-1.49012000E-08	 4.50000000E+00
					-7.45058000E-09	 2.50000000E-01	 5.00000000E+00
					 1.00000000E+00	 5.00000000E-01	 6.00000000E+00
					 1.00000000E+00	 1.00000000E+00	 6.00000000E+00
					 5.00000000E-01	 5.00000000E-01	 6.00000000E+00
					 5.00000000E-01	 1.00000000E+00	 6.00000000E+00
					 1.00000000E+00	 5.00000000E-01	 5.50000000E+00
					 1.00000000E+00	 7.50000000E-01	 6.00000000E+00
					 1.00000000E+00	 1.00000000E+00	 5.50000000E+00
					 7.50000000E-01	 5.00000000E-01	 6.00000000E+00
					 7.50000000E-01	 1.00000000E+00	 6.00000000E+00
					 5.00000000E-01	 5.00000000E-01	 5.50000000E+00
					 5.00000000E-01	 7.50000000E-01	 6.00000000E+00
					 5.00000000E-01	 1.00000000E+00	 5.50000000E+00
					 1.00000000E+00	-1.49012000E-08	 6.00000000E+00
[...]
			<PointData>
				<DataArray type="Float32" Name="U" NumberOfComponents="3" ComponentName0="D1" ComponentName1="D2" ComponentName2="D3" format="ascii">
					 0.00000000E+00	 0.00000000E+00	 0.00000000E+00
					 0.00000000E+00	 0.00000000E+00	 0.00000000E+00
					-3.74752000E-09	-5.32474000E-07	-2.62314000E-07
					-1.14862000E-07	-1.29383000E-08	-1.48437000E-07
					 0.00000000E+00	 0.00000000E+00	 0.00000000E+00
					 0.00000000E+00	 0.00000000E+00	 0.00000000E+00
					 3.63076000E-07	-2.58169000E-07	-7.33980000E-08
					-3.26207000E-07	-1.95058000E-07	 2.75013000E-08
					 0.00000000E+00	 0.00000000E+00	 0.00000000E+00
					-9.83565000E-08	 1.67050000E-07	 6.84607000E-08
					-2.62842000E-07	 1.12527000E-07	-1.25842000E-07
					-2.45473000E-08	-2.11346000E-07	 1.79485000E-08
					 0.00000000E+00	 0.00000000E+00	 0.00000000E+00
					 0.00000000E+00	 0.00000000E+00	 0.00000000E+00
					 2.87224000E-07	 3.56532000E-07	 9.24454000E-08
					 4.24667000E-07	-3.72782000E-07	-1.32863000E-09
					 0.00000000E+00	 0.00000000E+00	 0.00000000E+00
					-8.19638000E-09	 3.31338000E-09	-1.39569000E-07
					 7.30788000E-09	 3.94375000E-07	-3.80066000E-08
					 2.41932000E-08	-1.77031000E-07	-3.90721000E-07
					 0.00000000E+00	 0.00000000E+00	 0.00000000E+00
					 1.40150000E-06	-8.89858000E-07	-5.48852000E-07
					 0.00000000E+00	 0.00000000E+00	 0.00000000E+00
					 8.50603000E-07	 3.28745000E-07	-3.16049000E-07
					 0.00000000E+00	 0.00000000E+00	 0.00000000E+00
					-1.26615000E-07	 7.96785000E-08	-5.67850000E-08
					-2.79660000E-07	 4.73541000E-07	 1.57688000E-07
					 0.00000000E+00	 0.00000000E+00	 0.00000000E+00
					-8.68967000E-07	 1.72481000E-07	 1.18753000E-07
					 0.00000000E+00	 0.00000000E+00	 0.00000000E+00
					-2.33461000E-07	 2.01314000E-07	 7.37381000E-08
					-3.79378000E-07	-4.39637000E-07	 9.79256000E-08
					 0.00000000E+00	 0.00000000E+00	 0.00000000E+00
					 0.00000000E+00	 0.00000000E+00	 0.00000000E+00
					 3.98436000E-08	 4.27072000E-07	 9.91411000E-08
					-1.07358000E-06	 6.43083000E-07	 2.39256000E-07
					 0.00000000E+00	 0.00000000E+00	 0.00000000E+00
					 0.00000000E+00	 0.00000000E+00	 0.00000000E+00
					-5.04587000E-07	-1.00546000E-08	-2.90227000E-08
					 3.66723000E-07	-2.62031000E-07	-1.30111000E-07
					 0.00000000E+00	 0.00000000E+00	 0.00000000E+00
					 2.20910000E-07	-9.48779000E-08	-1.58466000E-07
					 5.06677000E-07	-4.84510000E-07	-3.83273000E-07
					 2.39662000E-07	-3.43426000E-07	-4.78117000E-07
					 0.00000000E+00	 0.00000000E+00	 0.00000000E+00
					-1.95673000E-07	 3.04003000E-07	-5.95433000E-07
					 0.00000000E+00	 0.00000000E+00	 0.00000000E+00
					-2.40573000E-07	 2.71448000E-07	 1.05489000E-07
					 0.00000000E+00	 0.00000000E+00	 0.00000000E+00
					 1.34887000E-07	 3.56201000E-08	 1.79814000E-07
					 6.15232000E-07	-4.72101000E-07	 1.38634000E-07
					-1.83275000E-07	 2.95999000E-07	 4.61049000E-07
					 7.59027000E-07	-2.54300000E-09	 2.83320000E-08
					-5.29273000E-07	 1.13978000E-06	-7.02473000E-07
					 1.90650000E-08	 4.26451000E-07	-2.01459000E-06
					-1.46516000E-08	 4.11163000E-07	 1.01816000E-07
					 1.25592000E-06	-4.83366000E-07	-1.21659000E-07
					-7.30070000E-07	-5.99658000E-07	-1.96062000E-07
					-9.85634000E-07	-6.33566000E-07	-3.06735000E-07
					-1.81965000E-06	 1.11710000E-06	 1.13826000E-07
					-2.94080000E-07	 1.75976000E-07	 1.96281000E-07
					 7.56204000E-07	-1.30571000E-06	 4.89532000E-07
					-5.38135000E-08	-1.15396000E-07	 6.45341000E-07
					-2.03635000E-06	 8.04871000E-07	 1.07316000E-06
					-7.06686000E-07	 2.64036000E-07	 5.84718000E-07
					-5.01822000E-08	-1.12306000E-07	 4.67168000E-07
					 1.28925000E-06	 6.30048000E-07	-2.33117000E-07
					 3.20110000E-07	-1.17493000E-06	-1.79019000E-07
					-2.97825000E-07	-6.17651000E-08	 1.02030000E-07
					 3.20668000E-07	 6.14131000E-07	-3.29658000E-07
					 5.24336000E-07	-8.96799000E-07	-1.14626000E-06
					 1.77255000E-06	-1.04164000E-06	-2.52087000E-06
					 1.05772000E-06	-1.03637000E-06	 1.22516000E-07
					 6.45868000E-07	 2.11398000E-06	 5.99818000E-07
					 2.67170000E-07	 5.83885000E-08	 2.30161000E-07
					-2.60763000E-06	 1.52551000E-07	 9.58959000E-07
					 7.47817000E-07	-1.08755000E-07	 4.86869000E-07
					 9.44784000E-07	-2.05850000E-06	 1.55654000E-06
					 7.19502000E-07	-8.71209000E-07	-4.83419000E-07
					 1.02345000E-06	 6.16378000E-07	-1.49202000E-07
					-1.59429000E-06	 2.61935000E-06	-4.90068000E-07
					 7.15148000E-07	 1.20000000E-06	 7.55454000E-08
					-2.71744000E-06	-3.90977000E-07	 2.89687000E-07
					-5.19189000E-07	-1.46117000E-06	 1.68412000E-06
					 1.23615000E-07	 1.49164000E-06	 5.42657000E-06
					 1.22966000E-06	-1.14223000E-06	-8.45816000E-07
					-1.36247000E-06	 4.01142000E-07	 9.69759000E-07
					 2.98871000E-06	 2.74064000E-06	 1.61384000E-07
					 2.82606000E-07	-4.01773000E-07	 5.10836000E-07
					 3.61330000E-06	-7.16776000E-07	-3.82202000E-07
					 1.03549000E-06	-9.86637000E-07	 6.67223000E-07
					-1.54359000E-06	 6.20778000E-07	-9.89028000E-07
					 9.28402000E-07	 1.83266000E-06	 3.08452000E-07
					 4.77808000E-07	 4.88846000E-07	 9.11364000E-07
					-1.39406000E-07	-3.39973000E-06	 1.39588000E-07
					 1.29899000E-06	-5.72270000E-07	-1.14992000E-06
					-8.25651000E-07	-1.89808000E-06	-1.72986000E-07
					 9.53762000E-07	 1.53707000E-06	-3.61619000E-07
					 8.05914000E-07	-1.36778000E-06	-6.80922000E-07
					 1.09080000E-06	 1.81928000E-06	 7.17303000E-07
					-7.49776000E-07	 6.86095000E-07	 1.10968000E-06
					-1.86852000E-08	-2.89780000E-07	 5.28855000E-06
					 8.12680000E-07	 2.44051000E-06	 1.16044000E-07
					-2.49206000E-06	-6.20447000E-06	-1.65302000E-06
					-2.38019000E-06	-1.22844000E-06	 8.44943000E-08
					 2.83466000E-06	 3.60136000E-06	 9.63610000E-07
					-5.16368000E-06	 3.40803000E-06	 1.09074000E-06
					 2.25991000E-06	 6.64203000E-06	-5.93450000E-07
					-2.26537000E-06	 3.04038000E-07	-6.89796000E-07
					-3.37637000E-06	-1.02622000E-06	-8.70025000E-07
					-8.44465000E-07	-6.46539000E-06	 7.38868000E-07
					-3.42398000E-07	-2.36051000E-07	-2.08881000E-06
					 1.63948000E-06	 3.49512000E-06	-1.22687000E-06
					 3.42466000E-06	-4.39612000E-06	 1.09753000E-06
					 2.72753000E-06	-7.06939000E-06	-4.53153000E-06
					-3.29510000E-06	 5.68280000E-07	 1.90780000E-06
					-2.83957000E-06	-1.85840000E-06	-2.53664000E-06
					-4.11722000E-06	-2.97407000E-06	 7.68787000E-07
					 4.49125000E-06	 3.72357000E-06	 8.63830000E-07
					 1.50569000E-07	-6.08003000E-07	 1.65587000E-06
					-7.52058000E-07	 2.34520000E-06	-2.61201000E-06
					-1.87503000E-06	 6.68818000E-07	-1.25053000E-06
					-1.94100000E-06	-5.08676000E-06	-5.18556000E-06
					 5.65480000E-06	-2.84940000E-06	-4.28880000E-06
					-1.49758000E-07	 4.93482000E-06	-4.02090000E-07
					-2.51653000E-06	 1.81556000E-06	 4.87737000E-07
					-7.60411000E-06	-2.54127000E-06	 4.64517000E-07
					 7.67944000E-07	 4.22016000E-06	 1.24295000E-06
					 4.36963000E-07	 4.18242000E-06	 9.64819000E-07
					-3.07630000E-06	-5.14490000E-06	-1.68095000E-06
					-3.15690000E-06	-1.33463000E-06	 4.68279000E-06
					-6.79058000E-06	-1.96672000E-06	-1.75955000E-06
					-6.64023000E-06	 4.32099000E-06	-7.06355000E-07
					-3.80957000E-07	 1.24876000E-05	 6.30873000E-06
					 3.73636000E-06	 5.12180000E-06	-2.68459000E-08
					 8.88527000E-06	-1.14162000E-05	-1.17038000E-05
					 8.73889000E-06	-1.01409000E-05	-5.01675000E-06
					-1.28632000E-05	-3.51985000E-06	-6.41927000E-06
					 3.41991000E-06	 1.42014000E-06	 4.85404000E-06
					 1.44286000E-06	-1.72381000E-06	 2.66718000E-06
					 1.00753000E-05	 2.62937000E-06	-3.04260000E-07
					 3.46243000E-07	-6.69997000E-06	-6.27175000E-07
					 9.59521000E-06	 1.29939000E-06	 4.52011000E-06
					-5.08424000E-06	 1.65990000E-05	-8.63082000E-06
					-3.73336000E-06	 6.24247000E-06	-4.21981000E-06
					-2.00617000E-07	 1.17341000E-06	-1.75596000E-06
					 1.00960000E-05	 1.09185000E-05	 5.57907000E-06
					-2.13604000E-06	-4.39847000E-06	-2.92140000E-06
					-8.03715000E-06	-4.47408000E-06	-8.88529000E-06
					-7.32302000E-06	-1.42263000E-05	-1.49671000E-05
					-3.05379000E-06	-9.33177000E-07	 1.50998000E-06
					 6.45012000E-06	 7.82416000E-06	 5.79183000E-06
					-4.35077000E-06	 6.51049000E-06	 1.33170000E-05
					-1.14872000E-05	-1.37332000E-06	-6.36224000E-06
					-1.89989000E-06	 2.50107000E-06	-5.45311000E-06
					-5.62412000E-07	-6.52251000E-07	 1.18354000E-06
					 1.66150000E-05	 7.08174000E-06	 1.62263000E-06
					 2.07172000E-06	-8.06671000E-06	-2.52389000E-06
					-3.44437000E-06	-5.38975000E-06	-2.93338000E-06
					 4.29536000E-06	-4.61397000E-06	-1.96753000E-06
					-1.32358000E-07	 7.83997000E-06	-1.06101000E-05
					 2.11256000E-05	 1.24931000E-05	-8.50415000E-06
					 9.87689000E-06	-1.64914000E-05	-4.09526000E-06
					 1.54732000E-06	-1.67805000E-06	-1.41264000E-05
					 4.13080000E-06	-7.35586000E-06	-3.88260000E-06
					-1.91637000E-05	 2.21167000E-06	 2.29527000E-05
					 1.02748000E-05	 1.45889000E-05	 7.30430000E-06
					 1.94843000E-05	-2.55988000E-05	 1.17299000E-05
					-7.36698000E-06	-6.17450000E-06	-7.89229000E-06
					 1.15832000E-05	 1.52230000E-06	-2.38936000E-06
					-1.41282000E-05	 1.85005000E-05	-4.11974000E-06
					 2.51431000E-06	 2.32897000E-05	-9.42664000E-06
					-2.02351000E-05	-1.05250000E-05	-1.17905000E-05
					 4.26617000E-06	-1.31654000E-07	-2.87514000E-06
					 1.52465000E-05	 3.98015000E-06	 6.76756000E-06
					 1.66352000E-05	 6.50794000E-06	-7.97185000E-06
					-2.41653000E-05	-3.23614000E-07	-3.23290000E-05
					 2.22856000E-05	 9.57240000E-06	-8.80330000E-06
					 8.93699000E-06	 2.26201000E-05	-6.23231000E-06
					 6.11779000E-06	 3.35754000E-05	 3.94617000E-05
					 7.61438000E-06	-3.16457000E-06	-5.96834000E-06
					 6.58926000E-06	-1.34587000E-06	-1.28352000E-05
					 7.65819000E-06	 7.34012000E-06	-3.02301000E-05
					 2.08208000E-05	 1.00671000E-05	-2.86595000E-05
					-1.20080000E-06	-1.91927000E-05	-2.92657000E-05
					 2.84063000E-06	 1.14455000E-06	-1.02183000E-08
					 6.78687000E-06	 1.01702000E-05	-4.81621000E-05
					-1.20205000E-05	-2.12904000E-05	-4.65076000E-05
					 5.54821000E-06	 9.01835000E-06	 5.12247000E-06
					 3.23408000E-06	 3.37133000E-05	-2.88246000E-05
					 9.10595000E-06	 1.43103000E-05	-7.71449000E-06
					-4.62147000E-05	-9.37167000E-06	 3.71983000E-06
					-1.14412000E-05	 8.98978000E-06	-8.62173000E-06
					 1.36710000E-05	-5.63402000E-05	-1.04480000E-05
					-1.53327000E-05	 1.32152000E-06	-4.49786000E-06
					-3.47718000E-06	 5.12890000E-05	-8.15982000E-06
					-4.22939000E-05	 7.29945000E-06	-1.61012000E-05
					-1.58125000E-05	 3.07094000E-05	-4.62215000E-05
					 1.07367000E-05	 1.02932000E-07	-4.22903000E-05
					-3.04684000E-05	 1.15044000E-05	-8.18024000E-06
					-2.45584000E-06	-7.46465000E-06	-4.59992000E-05
					 7.52001000E-06	-8.27359000E-05	-9.56541000E-05
					-1.00570000E-04	-1.65288000E-04	 2.59576000E-04
					 1.24281000E-05	-1.63202000E-04	-9.15046000E-05
					-7.36617000E-05	-2.44961000E-04	 2.38267000E-04
					-1.00270000E-05	 1.72965000E-05	-5.35658000E-05
					 1.28312000E-05	-1.05709000E-04	 1.84770000E-04
					-8.31899000E-05	 6.94957000E-06	 6.17628000E-05
					 2.10828000E-05	-1.67854000E-04	-8.15656000E-05
					-1.22056000E-04	-1.76537000E-04	 2.33974000E-04
					 3.61353000E-06	 2.54884000E-06	-3.90009000E-05
					-2.62997000E-05	-2.18598000E-04	 1.07934000E-04
					 1.41427000E-05	-5.67824000E-05	 1.04900000E-04
					 1.04918000E-04	-2.22722000E-04	-4.26397000E-04
					 7.19438000E-05	-2.80313000E-04	-4.22265000E-04
					 7.97014000E-05	-2.30556000E-05	-2.14337000E-04
					 5.81965000E-05	-1.69975000E-04	-2.36569000E-04
					 8.92306000E-05	-2.22792000E-04	-4.22245000E-04
					 2.61858000E-05	-5.10280000E-05	-2.04784000E-04
					 3.63706000E-05	-2.46639000E-04	-2.19671000E-04
					 1.84815000E-05	-2.42936000E-04	-8.51407000E-05
					 9.39681000E-05	-2.14378000E-04	 3.17579000E-04
					 7.76504000E-08	-2.03275000E-04	-8.19608000E-05
					 2.08909000E-05	-2.41675000E-04	 3.63828000E-04
					 7.90019000E-06	 1.43234000E-05	-2.65377000E-05
					-2.29191000E-05	-2.12514000E-04	 1.04362000E-04
					 6.42460000E-05	-6.11866000E-05	 1.23191000E-04
					 5.48971000E-06	-2.66498000E-04	-4.42896000E-04
					 7.42362000E-05	-2.44523000E-04	-4.80767000E-04
					-6.91787000E-06	-2.71770000E-05	-2.05632000E-04
					-1.34299000E-06	-2.92811000E-04	-1.93838000E-04
					 6.60103000E-04	-1.65646000E-03	-4.94741000E-04
					 5.03330000E-04	-2.59671000E-03	 9.58140000E-04
					 9.32099000E-05	-2.05140000E-03	-1.51462000E-04
					-5.68526000E-04	-3.71703000E-03	 1.98117000E-03
					 7.01319000E-06	-8.45563000E-04	-3.19287000E-04
					 5.36277000E-04	-2.13452000E-03	-2.94211000E-05
					-3.47313000E-04	-6.41813000E-04	 7.43986000E-04
					 3.48504000E-04	-1.78462000E-03	-1.39954000E-04
					 2.91080000E-05	-3.25809000E-03	 1.43608000E-03
					-1.99032000E-05	-1.06675000E-03	-1.78248000E-04
					-7.48268000E-05	-2.76243000E-03	 6.01720000E-04
					-2.97400000E-04	-1.17663000E-03	 1.04413000E-03
					 2.60799000E-04	-7.46252000E-04	 8.71105000E-05
					 3.02125000E-04	-1.00273000E-03	-1.18191000E-05
					 2.47474000E-04	-8.28425000E-04	-4.26506000E-04
					 4.14002000E-04	-1.19379000E-03	-3.50785000E-04
					 3.00133000E-04	-9.42412000E-04	-6.31964000E-05
					 2.04101000E-04	-1.11040000E-03	-4.41591000E-04
					 1.62607000E-04	-1.48469000E-03	-2.31906000E-04
					-5.32849000E-04	-2.56008000E-03	-3.45368000E-04
					-1.21736000E-03	-4.77989000E-03	 1.75461000E-03
					-1.80500000E-04	-2.35752000E-03	-1.10234000E-04
					-9.23242000E-04	-4.43346000E-03	 1.94614000E-03
					-4.36050000E-05	-1.35759000E-03	-2.98945000E-04
					-8.77592000E-04	-3.60446000E-03	 2.76781000E-04
					-1.49784000E-04	-1.33168000E-03	 8.89961000E-04
					 2.27589000E-05	-1.44643000E-03	-1.16734000E-04
					 1.39812000E-04	-1.34744000E-03	-1.23386000E-04
					 1.50926000E-04	-1.33695000E-03	-5.34001000E-04
					-1.91035000E-04	-1.94882000E-03	-3.44215000E-04
					 0.00000000E+00	 0.00000000E+00	 0.00000000E+00
					 0.00000000E+00	 0.00000000E+00	 0.00000000E+00
					-1.06962000E-04	-1.15921000E-02	-2.52424000E-04
					-2.74726000E-03	-1.24375000E-02	 1.19807000E-02
					 0.00000000E+00	 0.00000000E+00	 0.00000000E+00
					 0.00000000E+00	 0.00000000E+00	 0.00000000E+00
					 7.37490000E-06	-1.35845000E-02	-2.12016000E-04
					-1.18769000E-03	-1.44177000E-02	 1.20984000E-02
					 0.00000000E+00	 0.00000000E+00	 0.00000000E+00
					-4.68298000E-06	-2.22208000E-03	-6.07483000E-05
					-1.38069000E-03	-1.17449000E-02	 5.88539000E-03
					-2.44325000E-03	-3.23400000E-03	 6.06797000E-03
					 0.00000000E+00	 0.00000000E+00	 0.00000000E+00
					 0.00000000E+00	 0.00000000E+00	 0.00000000E+00
					-6.32682000E-05	-1.28145000E-02	-2.49649000E-04
					-1.94294000E-03	-1.37499000E-02	 1.19396000E-02
					 0.00000000E+00	 0.00000000E+00	 0.00000000E+00
					-3.21353000E-06	-3.59604000E-03	-8.25139000E-05
					-6.08887000E-04	-1.36865000E-02	 5.82785000E-03
					-5.65407000E-04	-4.66625000E-03	 5.91916000E-03
					 0.00000000E+00	 0.00000000E+00	 0.00000000E+00
					 2.82341000E-03	-1.21394000E-02	-1.25508000E-02
					 0.00000000E+00	 0.00000000E+00	 0.00000000E+00
					 1.27258000E-03	-1.42399000E-02	-1.26371000E-02
					 0.00000000E+00	 0.00000000E+00	 0.00000000E+00
					 2.44722000E-03	-3.15270000E-03	-6.30529000E-03
					 1.34916000E-03	-1.15799000E-02	-6.39749000E-03
					 0.00000000E+00	 0.00000000E+00	 0.00000000E+00
					 2.02510000E-03	-1.35249000E-02	-1.24593000E-02
					 0.00000000E+00	 0.00000000E+00	 0.00000000E+00
					 5.67243000E-04	-4.62577000E-03	-6.10276000E-03
					 6.62006000E-04	-1.36197000E-02	-6.32683000E-03
					 0.00000000E+00	 0.00000000E+00	 0.00000000E+00
					 0.00000000E+00	 0.00000000E+00	 0.00000000E+00
					 4.93838000E-05	-1.39665000E-02	-2.27430000E-04
					 4.29078000E-04	-1.48568000E-02	 1.19783000E-02
					 0.00000000E+00	 0.00000000E+00	 0.00000000E+00
					 0.00000000E+00	 0.00000000E+00	 0.00000000E+00
					 3.15047000E-05	-1.40795000E-02	-2.30506000E-04
					-3.88859000E-04	-1.48868000E-02	 1.21145000E-02
					 0.00000000E+00	 0.00000000E+00	 0.00000000E+00
					 1.95632000E-06	-3.36281000E-03	-6.15695000E-05
					 2.94896000E-04	-1.41066000E-02	 5.66324000E-03
					 1.20880000E-03	-4.46129000E-03	 6.09169000E-03
					 0.00000000E+00	 0.00000000E+00	 0.00000000E+00
					-3.38434000E-04	-1.45723000E-02	-1.25315000E-02
					 0.00000000E+00	 0.00000000E+00	 0.00000000E+00
					 4.66304000E-04	-1.45960000E-02	-1.26796000E-02
					 0.00000000E+00	 0.00000000E+00	 0.00000000E+00
					-1.23267000E-03	-4.42146000E-03	-6.28094000E-03
					-2.24617000E-04	-1.39771000E-02	-6.13230000E-03
					 7.25875000E-05	-4.70145000E-02	-1.01074000E-03
					-3.40360000E-03	-4.81696000E-02	 2.16617000E-02
					 1.78884000E-04	-4.98139000E-02	-1.03669000E-03
					-1.85368000E-03	-5.10457000E-02	 2.17045000E-02
					 1.01137000E-04	-2.66775000E-02	-5.30509000E-04
					-1.64539000E-03	-4.74323000E-02	 1.03191000E-02
					-3.15615000E-03	-2.77270000E-02	 1.71389000E-02
					 1.36139000E-04	-4.85925000E-02	-1.03088000E-03
					-2.63408000E-03	-4.97523000E-02	 2.16368000E-02
					 6.73072000E-05	-2.90901000E-02	-5.42297000E-04
					-8.17362000E-04	-5.02763000E-02	 1.02734000E-02
					-1.52370000E-03	-3.01964000E-02	 1.71994000E-02
					 3.70911000E-03	-4.72961000E-02	-2.37239000E-02
					 2.27053000E-03	-5.00279000E-02	-2.37221000E-02
					 3.36198000E-03	-2.70337000E-02	-1.82905000E-02
					 1.85835000E-03	-4.70077000E-02	-1.23153000E-02
					 2.99445000E-03	-4.88496000E-02	-2.37288000E-02
					 1.70563000E-03	-2.95600000E-02	-1.83092000E-02
					 1.24499000E-03	-4.97636000E-02	-1.23027000E-02
					 2.50960000E-04	-5.12010000E-02	-1.00306000E-03
					-4.74968000E-04	-5.24660000E-02	 2.16705000E-02
					 2.28253000E-04	-5.06204000E-02	-1.01671000E-03
					-1.16291000E-03	-5.19293000E-02	 2.17650000E-02
					 7.54535000E-05	-2.99010000E-02	-5.18990000E-04
					-1.60125000E-04	-5.16863000E-02	 1.02101000E-02
					 1.44381000E-05	-3.10571000E-02	 1.72219000E-02
					 9.24369000E-04	-5.11995000E-02	-2.36825000E-02
					 1.58707000E-03	-5.07770000E-02	-2.37934000E-02
					 2.66974000E-04	-3.05236000E-02	-1.82745000E-02
					 5.79722000E-04	-5.10367000E-02	-1.22374000E-02
					 3.99633000E-04	-1.01616000E-01	-2.45988000E-03
					-3.61983000E-03	-1.03031000E-01	 2.84960000E-02
					 4.27066000E-04	-1.04914000E-01	-2.66203000E-03
					-2.31778000E-03	-1.06498000E-01	 2.84793000E-02
					 2.82564000E-04	-7.21447000E-02	-1.64353000E-03
					-1.55841000E-03	-1.02185000E-01	 1.29334000E-02
					-3.49835000E-03	-7.35025000E-02	 2.54656000E-02
					 4.13061000E-04	-1.03425000E-01	-2.57065000E-03
					-2.95435000E-03	-1.04986000E-01	 2.84823000E-02
					 2.94993000E-04	-7.52570000E-02	-1.69609000E-03
					-9.94724000E-04	-1.05571000E-01	 1.28388000E-02
					-2.18325000E-03	-7.66433000E-02	 2.54109000E-02
					 4.10564000E-03	-1.01308000E-01	-3.36703000E-02
					 3.14601000E-03	-1.04591000E-01	-3.38376000E-02
					 4.01736000E-03	-7.20783000E-02	-2.87945000E-02
					 2.31513000E-03	-1.01326000E-01	-1.80136000E-02
					 3.62000000E-03	-1.03022000E-01	-3.37246000E-02
					 2.74400000E-03	-7.51431000E-02	-2.89331000E-02
					 1.77062000E-03	-1.04626000E-01	-1.81536000E-02
					 4.32326000E-04	-1.07169000E-01	-2.63057000E-03
					-1.32734000E-03	-1.08860000E-01	 2.83886000E-02
					 4.35522000E-04	-1.06247000E-01	-2.67876000E-03
					-1.82588000E-03	-1.07710000E-01	 2.84934000E-02
					 2.46853000E-04	-7.70932000E-02	-1.67818000E-03
					-4.05144000E-04	-1.07851000E-01	 1.27216000E-02
					-9.18557000E-04	-7.85011000E-02	 2.53963000E-02
					 2.12870000E-03	-1.06804000E-01	-3.38091000E-02
					 2.63724000E-03	-1.05782000E-01	-3.39106000E-02
					 1.47880000E-03	-7.69920000E-02	-2.89199000E-02
					 1.24392000E-03	-1.06868000E-01	-1.80206000E-02
					 7.15158000E-04	-1.71184000E-01	-5.01415000E-03
					-3.11922000E-03	-1.72828000E-01	 3.18546000E-02