# vtk DataFile Version 3.0

ASCII
DATASET UNSTRUCTURED_GRID

POINTS 522 double
	 1.00000000E+00	 1.00000000E+00	-5.96046000E-08
	 1.00000000E+00	 5.00000000E-01	-5.96046000E-08
	 1.00000000E+00	 5.00000000E-01	 1.00000000E+00
	 1.00000000E+00	 1.00000000E+00	 1.00000000E+00
	 5.00000000E-01	 1.00000000E+00	-5.96046000E-08
	 5.00000000E-01	 5.00000000E-01	-5.96046000E-08
	 5.00000000E-01	 5.00000000E-01	 1.00000000E+00
	 5.00000000E-01	 1.00000000E+00	 1.00000000E+00
	 1.00000000E+00	 7.50000000E-01	-5.96046000E-08
	 1.00000000E+00	 5.00000000E-01	 5.00000000E-01
	 1.00000000E+00	 7.50000000E-01	 1.00000000E+00
	 1.00000000E+00	 1.00000000E+00	 5.00000000E-01
	 7.50000000E-01	 1.00000000E+00	-5.96046000E-08
	 7.50000000E-01	 5.00000000E-01	-5.96046000E-08
	 7.50000000E-01	 5.00000000E-01	 1.00000000E+00
	 7.50000000E-01	 1.00000000E+00	 1.00000000E+00
	 5.00000000E-01	 7.50000000E-01	-5.96046000E-08
	 5.00000000E-01	 5.00000000E-01	 5.00000000E-01
	 5.00000000E-01	 7.50000000E-01	 1.00000000E+00
	 5.00000000E-01	 1.00000000E+00	 5.00000000E-01
	 1.00000000E+00	-1.49012000E-08	-5.96046000E-08
	 1.00000000E+00	-1.49012000E-08	 1.00000000E+00
	 5.00000000E-01	-1.49012000E-08	-5.96046000E-08
	 5.00000000E-01	-1.49012000E-08	 1.00000000E+00
	 1.00000000E+00	 2.50000000E-01	-5.96046000E-08
	 1.00000000E+00	-1.49012000E-08	 5.00000000E-01
	 1.00000000E+00	 2.50000000E-01	 1.00000000E+00
	 7.50000000E-01	-1.49012000E-08	-5.96046000E-08
	 7.50000000E-01	-1.49012000E-08	 1.00000000E+00
	 5.00000000E-01	 2.50000000E-01	-5.96046000E-08
	 5.00000000E-01	-1.49012000E-08	 5.00000000E-01
	 5.00000000E-01	 2.50000000E-01	 1.00000000E+00
	-7.45058000E-09	 1.00000000E+00	-5.96046000E-08
	-7.45058000E-09	 5.00000000E-01	-5.96046000E-08
	-7.45058000E-09	 5.00000000E-01	 1.00000000E+00
	-7.45058000E-09	 1.00000000E+00	 1.00000000E+00
	 2.50000000E-01	 1.00000000E+00	-5.96046000E-08
	 2.50000000E-01	 5.00000000E-01	-5.96046000E-08
	 2.50000000E-01	 5.00000000E-01	 1.00000000E+00
	 2.50000000E-01	 1.00000000E+00	 1.00000000E+00
	-7.45058000E-09	 7.50000000E-01	-5.96046000E-08
	-7.45058000E-09	 5.00000000E-01	 5.00000000E-01
	-7.45058000E-09	 7.50000000E-01	 1.00000000E+00
	-7.45058000E-09	 1.00000000E+00	 5.00000000E-01
	-7.45058000E-09	-1.49012000E-08	-5.96046000E-08
	-7.45058000E-09	-1.49012000E-08	 1.00000000E+00
	 2.50000000E-01	-1.49012000E-08	-5.96046000E-08
	 2.50000000E-01	-1.49012000E-08	 1.00000000E+00
	-7.45058000E-09	 2.50000000E-01	-5.96046000E-08
	-7.45058000E-09	-1.49012000E-08	 5.00000000E-01
	-7.45058000E-09	 2.50000000E-01	 1.00000000E+00
	 1.00000000E+00	 5.00000000E-01	 2.00000000E+00
	 1.00000000E+00	 1.00000000E+00	 2.00000000E+00
	 5.00000000E-01	 5.00000000E-01	 2.00000000E+00
	 5.00000000E-01	 1.00000000E+00	 2.00000000E+00
	 1.00000000E+00	 5.00000000E-01	 1.50000000E+00
	 1.00000000E+00	 7.50000000E-01	 2.00000000E+00
	 1.00000000E+00	 1.00000000E+00	 1.50000000E+00
	 7.50000000E-01	 5.00000000E-01	 2.00000000E+00
	 7.50000000E-01	 1.00000000E+00	 2.00000000E+00
	 5.00000000E-01	 5.00000000E-01	 1.50000000E+00
	 5.00000000E-01	 7.50000000E-01	 2.00000000E+00
	 5.00000000E-01	 1.00000000E+00	 1.50000000E+00
	 1.00000000E+00	-1.49012000E-08	 2.00000000E+00
	 5.00000000E-01	-1.49012000E-08	 2.00000000E+00
	 1.00000000E+00	-1.49012000E-08	 1.50000000E+00
	 1.00000000E+00	 2.50000000E-01	 2.00000000E+00
	 7.50000000E-01	-1.49012000E-08	 2.00000000E+00
	 5.00000000E-01	-1.49012000E-08	 1.50000000E+00
	 5.00000000E-01	 2.50000000E-01	 2.00000000E+00
	-7.45058000E-09	 5.00000000E-01	 2.00000000E+00
	-7.45058000E-09	 1.00000000E+00	 2.00000000E+00
	 2.50000000E-01	 5.00000000E-01	 2.00000000E+00
	 2.50000000E-01	 1.00000000E+00	 2.00000000E+00
	-7.45058000E-09	 5.00000000E-01	 1.50000000E+00
	-7.45058000E-09	 7.50000000E-01	 2.00000000E+00
	-7.45058000E-09	 1.00000000E+00	 1.50000000E+00
	-7.45058000E-09	-1.49012000E-08	 2.00000000E+00
	 2.50000000E-01	-1.49012000E-08	 2.00000000E+00
	-7.45058000E-09	-1.49012000E-08	 1.50000000E+00
	-7.45058000E-09	 2.50000000E-01	 2.00000000E+00
	 1.00000000E+00	 5.00000000E-01	 3.00000000E+00
	 1.00000000E+00	 1.00000000E+00	 3.00000000E+00
	 5.00000000E-01	 5.00000000E-01	 3.00000000E+00
	 5.00000000E-01	 1.00000000E+00	 3.00000000E+00
	 1.00000000E+00	 5.00000000E-01	 2.50000000E+00
	 1.00000000E+00	 7.50000000E-01	 3.00000000E+00
	 1.00000000E+00	 1.00000000E+00	 2.50000000E+00
	 7.50000000E-01	 5.00000000E-01	 3.00000000E+00
	 7.50000000E-01	 1.00000000E+00	 3.00000000E+00
	 5.00000000E-01	 5.00000000E-01	 2.50000000E+00
	 5.00000000E-01	 7.50000000E-01	 3.00000000E+00
	 5.00000000E-01	 1.00000000E+00	 2.50000000E+00
	 1.00000000E+00	-1.49012000E-08	 3.00000000E+00
	 5.00000000E-01	-1.49012000E-08	 3.00000000E+00
	 1.00000000E+00	-1.49012000E-08	 2.50000000E+00
	 1.00000000E+00	 2.50000000E-01	 3.00000000E+00
	 7.50000000E-01	-1.49012000E-08	 3.00000000E+00
	 5.00000000E-01	-1.49012000E-08	 2.50000000E+00
	 5.00000000E-01	 2.50000000E-01	 3.00000000E+00
	-7.45058000E-09	 5.00000000E-01	 3.00000000E+00
	-7.45058000E-09	 1.00000000E+00	 3.00000000E+00
	 2.50000000E-01	 5.00000000E-01	 3.00000000E+00
	 2.50000000E-01	 1.00000000E+00	 3.00000000E+00
	-7.45058000E-09	 5.00000000E-01	 2.50000000E+00
	-7.45058000E-09	 7.50000000E-01	 3.00000000E+00
	-7.45058000E-09	 1.00000000E+00	 2.50000000E+00
	-7.45058000E-09	-1.49012000E-08	 3.00000000E+00
	 2.50000000E-01	-1.49012000E-08	 3.00000000E+00
	-7.45058000E-09	-1.49012000E-08	 2.50000000E+00
	-7.45058000E-09	 2.50000000E-01	 3.00000000E+00
	 1.00000000E+00	 5.00000000E-01	 4.00000000E+00
	 1.00000000E+00	 1.00000000E+00	 4.00000000E+00
	 5.00000000E-01	 5.00000000E-01	 4.00000000E+00
	 5.00000000E-01	 1.00000000E+00	 4.00000000E+00
	 1.00000000E+00	 5.00000000E-01	 3.50000000E+00
	 1.00000000E+00	 7.50000000E-01	 4.00000000E+00
	 1.00000000E+00	 1.00000000E+00	 3.50000000E+00
	 7.50000000E-01	 5.00000000E-01	 4.00000000E+00
	 7.50000000E-01	 1.00000000E+00	 4.00000000E+00
	 5.00000000E-01	 5.00000000E-01	 3.50000000E+00
	 5.00000000E-01	 7.50000000E-01	 4.00000000E+00
	 5.00000000E-01	 1.00000000E+00	 3.50000000E+00
	 1.00000000E+00	-1.49012000E-08	 4.00000000E+00
	 5.00000000E-01	-1.49012000E-08	 4.00000000E+00
	 1.00000000E+00	-1.49012000E-08	 3.50000000E+00
	 1.00000000E+00	 2.50000000E-01	 4.00000000E+00
	 7.50000000E-01	-1.49012000E-08	 4.00000000E+00
	 5.00000000E-01	-1.49012000E-08	 3.50000000E+00
	 5.00000000E-01	 2.50000000E-01	 4.00000000E+00
	-7.45058000E-09	 5.00000000E-01	 4.00000000E+00
	-7.45058000E-09	 1.00000000E+00	 4.00000000E+00
	 2.50000000E-01	 5.00000000E-01	 4.00000000E+00
	 2.50000000E-01	 1.00000000E+00	 4.00000000E+00
	-7.45058000E-09	 5.00000000E-01	 3.50000000E+00
	-7.45058000E-09	 7.50000000E-01	 4.00000000E+00
	-7.45058000E-09	 1.00000000E+00	 3.50000000E+00
	-7.45058000E-09	-1.49012000E-08	 4.00000000E+00
	 2.50000000E-01	-1.49012000E-08	 4.00000000E+00
	-7.45058000E-09	-1.49012000E-08	 3.50000000E+00
	-7.45058000E-09	 2.50000000E-01	 4.00000000E+00
	 1.00000000E+00	 5.00000000E-01	 5.00000000E+00
	 1.00000000E+00	 1.00000000E+00	 5.00000000E+00
	 5.00000000E-01	 5.00000000E-01	 5.00000000E+00
	 5.00000000E-01	 1.00000000E+00	 5.00000000E+00
	 1.00000000E+00	 5.00000000E-01	 4.50000000E+00
	 1.00000000E+00	 7.50000000E-01	 5.00000000E+00
	 1.00000000E+00	 1.00000000E+00	 4.50000000E+00
	 7.50000000E-01	 5.00000000E-01	 5.00000000E+00
	 7.50000000E-01	 1.00000000E+00	 5.00000000E+00
	 5.00000000E-01	 5.00000000E-01	 4.50000000E+00
	 5.00000000E-01	 7.50000000E-01	 5.00000000E+00
	 5.00000000E-01	 1.00000000E+00	 4.50000000E+00
	 1.00000000E+00	-1.49012000E-08	 5.00000000E+00
	 5.00000000E-01	-1.49012000E-08	 5.00000000E+00
	 1.00000000E+00	-1.49012000E-08	 4.50000000E+00
	 1.00000000E+00	 2.50000000E-01	 5.00000000E+00
	 7.50000000E-01	-1.49012000E-08	 5.00000000E+00
	 5.00000000E-01	-1.49012000E-08	 4.50000000E+00
	 5.00000000E-01	 2.50000000E-01	 5.00000000E+00
	-7.45058000E-09	 5.00000000E-01	 5.00000000E+00
	-7.45058000E-09	 1.00000000E+00	 5.00000000E+00
	 2.50000000E-01	 5.00000000E-01	 5.00000000E+00
	 2.50000000E-01	 1.00000000E+00	 5.00000000E+00
	-7.45058000E-09	 5.00000000E-01	 4.50000000E+00
	-7.45058000E-09	 7.50000000E-01	 5.00000000E+00
	-7.45058000E-09	 1.00000000E+00	 4.50000000E+00
	-7.45058000E-09	-1.49012000E-08	 5.00000000E+00
	 2.50000000E-01	-1.49012000E-08	 5.00000000E+00
	-7.45058000E-09	-1.49012000E-08	 4.50000000E+00
	-7.45058000E-09	 2.50000000E-01	 5.00000000E+00
	 1.00000000E+00	 5.00000000E-01	 6.00000000E+00
	 1.00000000E+00	 1.00000000E+00	 6.00000000E+00
	 5.00000000E-01	 5.00000000E-01	 6.00000000E+00
	 5.00000000E-01	 1.00000000E+00	 6.00000000E+00
	 1.00000000E+00	 5.00000000E-01	 5.50000000E+00
	 1.00000000E+00	 7.50000000E-01	 6.00000000E+00
	 1.00000000E+00	 1.00000000E+00	 5.50000000E+00
	 7.50000000E-01	 5.00000000E-01	 6.00000000E+00
	 7.50000000E-01	 1.00000000E+00	 6.00000000E+00
	 5.00000000E-01	 5.00000000E-01	 5.50000000E+00
	 5.00000000E-01	 7.50000000E-01	 6.00000000E+00
	 5.00000000E-01	 1.00000000E+00	 5.50000000E+00
	 1.00000000E+00	-1.49012000E-08	 6.00000000E+00
	 5.00000000E-01	-1.49012000E-08	 6.00000000E+00
	 1.00000000E+00	-1.49012000E-08	 5.50000000E+00
	 1.00000000E+00	 2.50000000E-01	 6.00000000E+00
	 7.50000000E-01	-1.49012000E-08	 6.00000000E+00
	 5.00000000E-01	-1.49012000E-08	 5.50000000E+00
	 5.00000000E-01	 2.50000000E-01	 6.00000000E+00
	-7.45058000E-09	 5.00000000E-01	 6.00000000E+00
	-7.45058000E-09	 1.00000000E+00	 6.00000000E+00
	 2.50000000E-01	 5.00000000E-01	 6.00000000E+00
	 2.50000000E-01	 1.00000000E+00	 6.00000000E+00
	-7.45058000E-09	 5.00000000E-01	 5.50000000E+00
	-7.45058000E-09	 7.50000000E-01	 6.00000000E+00
	-7.45058000E-09	 1.00000000E+00	 5.50000000E+00
	-7.45058000E-09	-1.49012000E-08	 6.00000000E+00
	 2.50000000E-01	-1.49012000E-08	 6.00000000E+00
	-7.45058000E-09	-1.49012000E-08	 5.50000000E+00
	-7.45058000E-09	 2.50000000E-01	 6.00000000E+00
	 1.00000000E+00	 5.00000000E-01	 7.00000000E+00
[...]
POINT_DATA 522
FIELD U 1
	U 3 522 double
		 0.00000000E+00	 0.00000000E+00	 0.00000000E+00
		 0.00000000E+00	 0.00000000E+00	 0.00000000E+00
		 2.07025000E-06	 5.05646000E-03	 3.20080000E-05
		-1.19133000E-04	 5.07315000E-03	-3.64676000E-03
		 0.00000000E+00	 0.00000000E+00	 0.00000000E+00
		 0.00000000E+00	 0.00000000E+00	 0.00000000E+00
		-2.49828000E-05	 4.77267000E-03	 6.42336000E-05
		-4.39128000E-04	 4.93846000E-03	-3.70108000E-03
		 0.00000000E+00	 0.00000000E+00	 0.00000000E+00
		-1.32152000E-05	 1.41848000E-03	 2.60414000E-05
		-6.97178000E-05	 4.97848000E-03	-1.66850000E-03
		 3.31720000E-04	 1.67072000E-03	-1.98176000E-03
		 0.00000000E+00	 0.00000000E+00	 0.00000000E+00
		 0.00000000E+00	 0.00000000E+00	 0.00000000E+00
		-1.93066000E-05	 4.96123000E-03	 2.53890000E-05
		-2.82483000E-04	 5.09501000E-03	-3.71451000E-03
		 0.00000000E+00	 0.00000000E+00	 0.00000000E+00
		-1.67605000E-05	 1.41074000E-03	 4.30870000E-05
		-2.23038000E-04	 4.77758000E-03	-1.74333000E-03
		-2.38104000E-04	 1.71611000E-03	-1.91819000E-03
		 0.00000000E+00	 0.00000000E+00	 0.00000000E+00
		 1.12501000E-04	 5.15340000E-03	 3.71778000E-03
		 0.00000000E+00	 0.00000000E+00	 0.00000000E+00
		 4.14804000E-04	 4.98188000E-03	 3.80322000E-03
		 0.00000000E+00	 0.00000000E+00	 0.00000000E+00
		-3.70048000E-04	 1.71210000E-03	 2.01461000E-03
		 4.81898000E-05	 5.02776000E-03	 1.75567000E-03
		 0.00000000E+00	 0.00000000E+00	 0.00000000E+00
		 2.75339000E-04	 5.15003000E-03	 3.79202000E-03
		 0.00000000E+00	 0.00000000E+00	 0.00000000E+00
		 1.91798000E-04	 1.73149000E-03	 1.98104000E-03
		 1.99620000E-04	 4.79511000E-03	 1.83023000E-03
		 0.00000000E+00	 0.00000000E+00	 0.00000000E+00
		 0.00000000E+00	 0.00000000E+00	 0.00000000E+00
		-5.78983000E-05	 4.13818000E-03	 7.64728000E-05
		-7.97919000E-04	 4.30645000E-03	-3.62627000E-03
		 0.00000000E+00	 0.00000000E+00	 0.00000000E+00
		 0.00000000E+00	 0.00000000E+00	 0.00000000E+00
		-3.94016000E-05	 4.52836000E-03	 7.38455000E-05
		-6.17982000E-04	 4.69746000E-03	-3.63847000E-03
		 0.00000000E+00	 0.00000000E+00	 0.00000000E+00
		-1.27629000E-05	 9.73327000E-04	 2.60643000E-05
		-4.11983000E-04	 4.14431000E-03	-1.74598000E-03
		-7.81696000E-04	 1.24181000E-03	-1.92955000E-03
		 0.00000000E+00	 0.00000000E+00	 0.00000000E+00
		 8.35426000E-04	 4.27759000E-03	 3.72141000E-03
		 0.00000000E+00	 0.00000000E+00	 0.00000000E+00
		 6.09497000E-04	 4.74126000E-03	 3.73394000E-03
		 0.00000000E+00	 0.00000000E+00	 0.00000000E+00
		 7.63809000E-04	 1.27603000E-03	 2.00786000E-03
		 3.73414000E-04	 4.13524000E-03	 1.81326000E-03
		 6.04245000E-06	 1.53732000E-02	-1.06019000E-04
		-3.49601000E-04	 1.54184000E-02	-5.55848000E-03
		-3.17853000E-05	 1.49925000E-02	-1.54191000E-04
		-4.22440000E-04	 1.50788000E-02	-5.60418000E-03
		 3.20788000E-05	 9.80757000E-03	-3.37629000E-05
		-1.68418000E-04	 1.53873000E-02	-2.81701000E-03
		-2.24630000E-04	 9.96666000E-03	-4.82986000E-03
		-8.13523000E-06	 1.51778000E-02	-1.16429000E-04
		-3.84980000E-04	 1.51918000E-02	-5.55849000E-03
		-1.22192000E-05	 9.44195000E-03	-3.27603000E-05
		-2.22063000E-04	 1.50197000E-02	-2.82777000E-03
		-5.04766000E-04	 9.59609000E-03	-4.84241000E-03
		 3.84835000E-04	 1.54761000E-02	 5.32410000E-03
		 4.08850000E-04	 1.51054000E-02	 5.39333000E-03
		 3.10429000E-04	 1.00029000E-02	 4.73505000E-03
		 1.32966000E-04	 1.54045000E-02	 2.59378000E-03
		 3.87331000E-04	 1.52588000E-02	 5.33484000E-03
		 4.96068000E-04	 9.57790000E-03	 4.79233000E-03
		 1.87916000E-04	 1.50331000E-02	 2.60507000E-03
		-7.53596000E-05	 1.44920000E-02	-7.02164000E-05
		-5.43917000E-04	 1.45662000E-02	-5.50056000E-03
		-5.32870000E-05	 1.47340000E-02	-8.49553000E-05
		-4.77028000E-04	 1.48177000E-02	-5.61070000E-03
		-3.67680000E-05	 8.83595000E-03	 1.67098000E-05
		-2.91469000E-04	 1.45249000E-02	-2.70108000E-03
		-8.14688000E-04	 8.91804000E-03	-4.75265000E-03
		 5.46285000E-04	 1.45029000E-02	 5.38520000E-03
		 4.65582000E-04	 1.48148000E-02	 5.41925000E-03
		 7.62647000E-04	 8.95716000E-03	 4.79799000E-03
		 2.34692000E-04	 1.44863000E-02	 2.56120000E-03
		-9.18965000E-05	 2.64241000E-02	-1.75179000E-04
		 1.06963000E-04	 2.65324000E-02	-6.34521000E-03
		-6.49886000E-05	 2.66333000E-02	-1.50963000E-04
		 1.09643000E-04	 2.66359000E-02	-6.25497000E-03
		-5.40941000E-05	 2.07365000E-02	-1.16012000E-04
		 6.83587000E-05	 2.64507000E-02	-3.33028000E-03
		-1.42659000E-04	 2.08500000E-02	-5.92821000E-03
		-7.95452000E-05	 2.65580000E-02	-1.70380000E-04
		 1.11028000E-04	 2.65762000E-02	-6.27311000E-03
		-4.88964000E-05	 2.06918000E-02	-1.74631000E-04
		 7.18257000E-06	 2.66095000E-02	-3.22383000E-03
		-1.68075000E-04	 2.07271000E-02	-5.92274000E-03
		-4.80028000E-04	 2.64325000E-02	 5.93354000E-03
		-2.19689000E-04	 2.67874000E-02	 5.96024000E-03
		-1.94056000E-05	 2.08668000E-02	 5.66742000E-03
		-2.40799000E-04	 2.64156000E-02	 2.92516000E-03
		-3.47799000E-04	 2.66277000E-02	 5.90929000E-03
		 6.67186000E-05	 2.07792000E-02	 5.65285000E-03
		-1.43515000E-04	 2.67052000E-02	 2.93091000E-03
		-4.94060000E-05	 2.67462000E-02	-1.05602000E-04
		 1.07875000E-04	 2.69039000E-02	-6.33602000E-03
		-6.35962000E-05	 2.67018000E-02	-1.56646000E-04
		 1.08817000E-04	 2.67331000E-02	-6.35157000E-03
		-4.50323000E-05	 2.05043000E-02	-1.13817000E-04
		-2.22993000E-05	 2.68074000E-02	-3.20906000E-03
		-2.13453000E-04	 2.05936000E-02	-5.95400000E-03
		 5.27162000E-06	 2.67491000E-02	 5.95908000E-03
		-8.93633000E-05	 2.67735000E-02	 5.97794000E-03
		 1.57421000E-04	 2.06132000E-02	 5.71256000E-03
		-3.48464000E-05	 2.67287000E-02	 2.91617000E-03
		-3.62782000E-05	 3.91363000E-02	-2.42538000E-04
		 8.06944000E-04	 3.90850000E-02	-7.40130000E-03
		-1.07385000E-04	 3.97312000E-02	-3.46851000E-04
		 4.79039000E-04	 3.97814000E-02	-7.56513000E-03
		-3.54942000E-05	 3.24781000E-02	-2.25262000E-04
		 3.43641000E-04	 3.90924000E-02	-3.83366000E-03
		 4.95273000E-04	 3.25018000E-02	-6.83577000E-03
		-6.98546000E-05	 3.94668000E-02	-2.89387000E-04
		 6.48472000E-04	 3.94892000E-02	-7.47658000E-03
		-3.55290000E-05	 3.29180000E-02	-2.25408000E-04
		 1.83975000E-04	 3.97429000E-02	-3.94520000E-03
		 3.63580000E-04	 3.29652000E-02	-6.82786000E-03
		-7.10147000E-04	 3.93137000E-02	 6.88305000E-03
		-5.56747000E-04	 3.98696000E-02	 6.84579000E-03
		-5.67258000E-04	 3.26056000E-02	 6.36896000E-03
		-3.84775000E-04	 3.92119000E-02	 3.33095000E-03
		-6.27999000E-04	 3.96220000E-02	 6.86151000E-03
		-3.99876000E-04	 3.30279000E-02	 6.38271000E-03
		-3.26877000E-04	 3.97693000E-02	 3.23006000E-03
		-1.13209000E-04	 4.01708000E-02	-4.82483000E-04
		 1.34644000E-04	 4.01578000E-02	-7.56706000E-03
		-1.01667000E-04	 3.99941000E-02	-3.96555000E-04
		 2.87884000E-04	 4.00173000E-02	-7.54455000E-03
		-6.23875000E-05	 3.32086000E-02	-2.97371000E-04
		 2.22528000E-05	 4.01429000E-02	-4.02555000E-03
		 2.30042000E-04	 3.33275000E-02	-6.88783000E-03
		-4.49562000E-04	 4.03589000E-02	 6.71523000E-03
		-5.13985000E-04	 4.01244000E-02	 6.80262000E-03
		-2.84967000E-04	 3.33024000E-02	 6.30625000E-03
		-2.40088000E-04	 4.02401000E-02	 3.13625000E-03
		-9.74849000E-05	 5.47863000E-02	-4.71524000E-04
		 5.45046000E-04	 5.48477000E-02	-8.58200000E-03
		-4.34844000E-05	 5.54633000E-02	-4.55122000E-04
		 5.81170000E-04	 5.53885000E-02	-8.65237000E-03
		-9.71138000E-05	 4.67074000E-02	-3.46725000E-04
		 2.81192000E-04	 5.48088000E-02	-4.53192000E-03
		 6.03813000E-04	 4.67354000E-02	-8.07229000E-03
		-5.93537000E-05	 5.51088000E-02	-4.62085000E-04
		 5.44061000E-04	 5.51094000E-02	-8.57178000E-03
		-9.04258000E-05	 4.73406000E-02	-4.29120000E-04
		 2.75127000E-04	 5.54026000E-02	-4.51923000E-03
		 4.72509000E-04	 4.73222000E-02	-8.23581000E-03
		-8.86946000E-04	 5.48060000E-02	 7.78515000E-03
		-7.25286000E-04	 5.55821000E-02	 7.68709000E-03
		-7.79332000E-04	 4.68319000E-02	 7.38585000E-03
		-4.72781000E-04	 5.47711000E-02	 3.66524000E-03
		-8.20870000E-04	 5.51988000E-02	 7.71546000E-03
		-6.25551000E-04	 4.74764000E-02	 7.35116000E-03
		-4.08537000E-04	 5.55272000E-02	 3.59924000E-03
		-3.97142000E-05	 5.60725000E-02	-4.95597000E-04
		 5.45083000E-04	 5.60767000E-02	-8.64649000E-03
		-6.14788000E-05	 5.57753000E-02	-4.70304000E-04
		 5.90651000E-04	 5.57617000E-02	-8.70133000E-03
		-7.32811000E-05	 4.78120000E-02	-4.46537000E-04
		 2.53251000E-04	 5.60721000E-02	-4.49702000E-03
		 3.05880000E-04	 4.77910000E-02	-8.16308000E-03
		-4.96958000E-04	 5.60635000E-02	 7.71260000E-03
		-5.96829000E-04	 5.58801000E-02	 7.73218000E-03
		-4.72568000E-04	 4.79448000E-02	 7.27708000E-03
		-3.37323000E-04	 5.60507000E-02	 3.53049000E-03
		-6.91534000E-05	 7.11149000E-02	-4.79839000E-04
		 1.20464000E-03	 7.10403000E-02	-9.14462000E-03
		-1.34725000E-04	 7.23639000E-02	-5.33280000E-04
		 1.10549000E-03	 7.23309000E-02	-9.11905000E-03
		-9.96492000E-05	 6.28706000E-02	-4.66809000E-04
		 5.52700000E-04	 7.10604000E-02	-4.87102000E-03
		 8.62636000E-04	 6.28521000E-02	-8.89676000E-03
		-1.05469000E-04	 7.17678000E-02	-5.18554000E-04
		 1.16895000E-03	 7.16838000E-02	-9.10667000E-03
		-7.56339000E-05	 6.38218000E-02	-4.81297000E-04
		 4.74644000E-04	 7.23422000E-02	-4.85458000E-03
		 8.32269000E-04	 6.37799000E-02	-8.86631000E-03
		-1.27187000E-03	 7.12986000E-02	 8.03723000E-03
		-1.32104000E-03	 7.24645000E-02	 8.00529000E-03
		-1.03869000E-03	 6.30064000E-02	 7.93325000E-03
		-7.33526000E-04	 7.11981000E-02	 3.77906000E-03
		-1.29348000E-03	 7.18549000E-02	 7.99666000E-03
		-1.01766000E-03	 6.39379000E-02	 7.87583000E-03
		-6.99654000E-04	 7.23916000E-02	 3.75703000E-03
		-1.36151000E-04	 7.34674000E-02	-5.83675000E-04
		 1.05372000E-03	 7.35569000E-02	-9.20796000E-03
		-1.30740000E-04	 7.29062000E-02	-5.94309000E-04
		 1.05763000E-03	 7.28991000E-02	-9.17375000E-03
		-5.18324000E-05	 6.47167000E-02	-5.36740000E-04
		 4.08116000E-04	 7.34979000E-02	-4.86581000E-03
		 8.29721000E-04	 6.46972000E-02	-8.97754000E-03
		-1.37211000E-03	 7.37563000E-02	 7.95315000E-03
		-1.34835000E-03	 7.30480000E-02	 8.02072000E-03
		-9.76646000E-04	 6.48247000E-02	 7.85213000E-03
		-6.76724000E-04	 7.35974000E-02	 3.65823000E-03
		-1.43020000E-04	 8.88611000E-02	-7.50920000E-04
		 1.07896000E-03	 8.86459000E-02	-9.86131000E-03
		-1.25915000E-04	 8.98871000E-02	-8.12889000E-04
		 8.97532000E-04	 8.98352000E-02	-1.00027000E-02
		-1.13300000E-04	 7.98014000E-02	-6.37808000E-04
		 4.58208000E-04	 8.87469000E-02	-5.25297000E-03
		 1.13725000E-03	 7.97475000E-02	-9.45117000E-03
		-1.35725000E-04	 8.93839000E-02	-7.58947000E-04
		 9.84913000E-04	 8.93118000E-02	-9.97030000E-03
		-1.30049000E-04	 8.09612000E-02	-6.69732000E-04
		 3.95755000E-04	 8.98594000E-02	-5.40892000E-03
		 1.00837000E-03	 8.09173000E-02	-9.51622000E-03
		-1.45104000E-03	 8.89013000E-02	 8.40052000E-03
		-1.12515000E-03	 9.00078000E-02	 8.47596000E-03
		-1.30362000E-03	 7.99490000E-02	 8.22916000E-03
		-7.24699000E-04	 8.88915000E-02	 3.82873000E-03
		-1.28018000E-03	 8.95010000E-02	 8.49066000E-03
		-1.21095000E-03	 8.11023000E-02	 8.14730000E-03
		-6.61865000E-04	 8.99313000E-02	 3.81245000E-03
		-1.32491000E-04	 9.08491000E-02	-8.45553000E-04
		 7.39999000E-04	 9.07680000E-02	-9.95436000E-03
		-1.24403000E-04	 9.03989000E-02	-7.86741000E-04
		 8.13496000E-04	 9.03352000E-02	-9.95834000E-03
		-1.50312000E-04	 8.20359000E-02	-7.43504000E-04
		 3.35992000E-04	 9.07895000E-02	-5.43331000E-03
		 9.33633000E-04	 8.20547000E-02	-9.56270000E-03
		-8.90661000E-04	 9.10044000E-02	 8.35309000E-03
		-1.00882000E-03	 9.05519000E-02	 8.34972000E-03
		-1.20432000E-03	 8.21653000E-02	 8.16639000E-03
		-5.40210000E-04	 9.09295000E-02	 3.84521000E-03
		-9.74996000E-05	 1.08126000E-01	-8.85659000E-04
		 6.08705000E-04	 1.07894000E-01	-1.01843000E-02
		-2.08693000E-04	 1.09000000E-01	-9.19132000E-04
		 7.03796000E-04	 1.08966000E-01	-1.06390000E-02
		-1.46944000E-04	 9.83416000E-02	-7.96984000E-04
		 2.67999000E-04	 1.08014000E-01	-5.57357000E-03
		 8.56178000E-04	 9.82794000E-02	-1.01687000E-02
		-1.57010000E-04	 1.08585000E-01	-9.18768000E-04
		 6.54748000E-04	 1.08369000E-01	-1.03899000E-02
		-1.08824000E-04	 9.93147000E-02	-8.74699000E-04
		 2.03100000E-04	 1.08951000E-01	-5.70402000E-03
		 8.48542000E-04	 9.92709000E-02	-1.03695000E-02
		-8.91879000E-04	 1.08729000E-01	 9.16635000E-03
		-8.67497000E-04	 1.09119000E-01	 8.58897000E-03
		-1.02624000E-03	 9.84881000E-02	 8.70285000E-03
		-6.00644000E-04	 1.08381000E-01	 3.99191000E-03
		-8.88137000E-04	 1.08824000E-01	 8.80932000E-03
		-1.06105000E-03	 9.94734000E-02	 8.66029000E-03
		-4.94475000E-04	 1.09077000E-01	 3.84572000E-03
		-1.75039000E-04	 1.09927000E-01	-9.49161000E-04
		 6.94915000E-04	 1.10043000E-01	-1.08842000E-02
		-2.02220000E-04	 1.09446000E-01	-9.54761000E-04
		 7.31278000E-04	 1.09523000E-01	-1.07740000E-02
		-1.31531000E-04	 1.00242000E-01	-8.74921000E-04
		 2.60367000E-04	 1.09989000E-01	-5.84512000E-03
		 7.42195000E-04	 1.00111000E-01	-1.04197000E-02
		-4.49237000E-04	 1.10037000E-01	 9.23955000E-03
		-6.96681000E-04	 1.09655000E-01	 8.85173000E-03
		-9.26001000E-04	 1.00224000E-01	 8.73491000E-03
		-3.66453000E-04	 1.09947000E-01	 4.01112000E-03
		 0.00000000E+00	 0.00000000E+00	 0.00000000E+00
		 0.00000000E+00	 0.00000000E+00	 0.00000000E+00
		 1.65355000E-04	-2.17399000E-03	-2.65777000E-04
		-1.88793000E-03	-2.11366000E-03	 3.36299000E-03
		 0.00000000E+00	 0.00000000E+00	 0.00000000E+00
		 0.00000000E+00	 0.00000000E+00	 0.00000000E+00
		 1.52077000E-04	-3.90251000E-03	-1.08086000E-04
		-1.56969000E-03	-4.07854000E-03	 3.52313000E-03
		 0.00000000E+00	 0.00000000E+00	 0.00000000E+00
		 3.40598000E-05	-2.08816000E-05	-1.49541000E-04
		-8.43085000E-04	-2.07109000E-03	 1.67643000E-03
		-1.25189000E-03	-2.88384000E-04	 1.74027000E-03
		 0.00000000E+00	 0.00000000E+00	 0.00000000E+00
		 0.00000000E+00	 0.00000000E+00	 0.00000000E+00
		 1.54603000E-04	-3.06463000E-03	-1.85440000E-04
		-1.71112000E-03	-3.22758000E-03	 3.26765000E-03
		 0.00000000E+00	 0.00000000E+00	 0.00000000E+00
		 4.54460000E-06	-1.01676000E-03	-1.77860000E-05
		-7.09623000E-04	-3.90060000E-03	 1.63382000E-03
		-7.52535000E-04	-1.29334000E-03	 1.70894000E-03
		 0.00000000E+00	 0.00000000E+00	 0.00000000E+00
		 2.19174000E-03	-2.11301000E-03	-3.79093000E-03
		 0.00000000E+00	 0.00000000E+00	 0.00000000E+00
		 1.82823000E-03	-4.13096000E-03	-3.78982000E-03
		 0.00000000E+00	 0.00000000E+00	 0.00000000E+00
		 1.43160000E-03	-2.75974000E-04	-1.94574000E-03
		 1.12896000E-03	-2.06212000E-03	-2.11261000E-03
		 0.00000000E+00	 0.00000000E+00	 0.00000000E+00
		 1.98630000E-03	-3.30051000E-03	-3.62401000E-03
		 0.00000000E+00	 0.00000000E+00	 0.00000000E+00
		 8.16273000E-04	-1.30360000E-03	-1.84138000E-03
		 1.00294000E-03	-3.94364000E-03	-1.91442000E-03
		 0.00000000E+00	 0.00000000E+00	 0.00000000E+00
		 0.00000000E+00	 0.00000000E+00	 0.00000000E+00
		 6.76392000E-05	-5.31496000E-03	-8.81960000E-05
		-9.82848000E-04	-5.31551000E-03	 3.52423000E-03
		 0.00000000E+00	 0.00000000E+00	 0.00000000E+00
		 0.00000000E+00	 0.00000000E+00	 0.00000000E+00
		 1.16654000E-04	-4.70593000E-03	-1.00169000E-04
		-1.30276000E-03	-4.85386000E-03	 3.66112000E-03
		 0.00000000E+00	 0.00000000E+00	 0.00000000E+00
		-2.16951000E-05	-1.54769000E-03	-1.67699000E-05
		-4.83377000E-04	-5.24093000E-03	 1.49444000E-03
		-1.53181000E-04	-1.76516000E-03	 1.77008000E-03
		 0.00000000E+00	 0.00000000E+00	 0.00000000E+00
		 1.29198000E-03	-5.52672000E-03	-3.67586000E-03
		 0.00000000E+00	 0.00000000E+00	 0.00000000E+00
		 1.55433000E-03	-4.91172000E-03	-3.89544000E-03
		 0.00000000E+00	 0.00000000E+00	 0.00000000E+00
		 2.61530000E-04	-1.87102000E-03	-1.80823000E-03
		 6.83329000E-04	-5.33900000E-03	-1.67355000E-03
		 3.49870000E-04	-1.07873000E-02	-4.61401000E-04
		-3.60278000E-03	-1.08309000E-02	 5.52205000E-03
		 2.35249000E-04	-1.45351000E-02	-4.61426000E-04
		-3.42428000E-03	-1.47731000E-02	 5.58155000E-03
		 2.34165000E-04	-5.82929000E-03	-3.53432000E-04
		-1.63478000E-03	-1.07874000E-02	 2.64357000E-03
		-2.75958000E-03	-5.99440000E-03	 4.63917000E-03
		 3.08923000E-04	-1.26949000E-02	-4.43085000E-04
		-3.51681000E-03	-1.28150000E-02	 5.40278000E-03
		 2.07649000E-04	-8.65431000E-03	-2.92821000E-04
		-1.59580000E-03	-1.46366000E-02	 2.53530000E-03
		-2.37576000E-03	-8.79270000E-03	 4.74147000E-03
		 4.06241000E-03	-1.08295000E-02	-6.29639000E-03
		 3.95999000E-03	-1.45635000E-02	-6.35063000E-03
		 3.25743000E-03	-6.00645000E-03	-5.29274000E-03
		 2.24657000E-03	-1.07841000E-02	-3.44694000E-03
		 4.01969000E-03	-1.25975000E-02	-6.18968000E-03
		 2.85775000E-03	-8.85117000E-03	-5.24176000E-03
		 2.08112000E-03	-1.45071000E-02	-3.35057000E-03
		 1.49908000E-04	-1.81256000E-02	-4.29689000E-04
		-3.19418000E-03	-1.81096000E-02	 5.54589000E-03
		 1.81133000E-04	-1.63205000E-02	-4.11495000E-04
		-3.30558000E-03	-1.64660000E-02	 5.73553000E-03
		 1.90682000E-04	-1.11086000E-02	-2.53950000E-04
		-1.54353000E-03	-1.80854000E-02	 2.31480000E-03
		-2.02689000E-03	-1.12460000E-02	 4.82257000E-03
		 3.73669000E-03	-1.83554000E-02	-6.37043000E-03
		 3.85153000E-03	-1.64493000E-02	-6.54084000E-03
		 2.49309000E-03	-1.12902000E-02	-5.23732000E-03
		 1.94036000E-03	-1.82260000E-02	-3.14805000E-03
		 8.74906000E-05	-2.17163000E-02	-3.53174000E-04
		-5.98950000E-03	-2.17495000E-02	 6.45213000E-03
		 1.97183000E-04	-2.76670000E-02	-5.32459000E-04
		-5.74963000E-03	-2.79285000E-02	 6.36403000E-03
		 2.16517000E-04	-1.59313000E-02	-3.84645000E-04
		-2.91227000E-03	-2.17288000E-02	 3.13954000E-03
		-4.85274000E-03	-1.60968000E-02	 6.06725000E-03
		 1.40754000E-04	-2.47227000E-02	-4.62937000E-04
		-5.86437000E-03	-2.48762000E-02	 6.31050000E-03
		 2.36825000E-04	-2.09144000E-02	-5.11362000E-04
		-2.80644000E-03	-2.77924000E-02	 2.92544000E-03
		-4.60745000E-03	-2.10749000E-02	 5.95580000E-03
		 6.16242000E-03	-2.16562000E-02	-7.34824000E-03
		 6.11647000E-03	-2.77577000E-02	-7.49978000E-03
		 5.14568000E-03	-1.60740000E-02	-6.85996000E-03
		 3.15480000E-03	-2.16670000E-02	-3.99777000E-03
		 6.13663000E-03	-2.47031000E-02	-7.30008000E-03
		 5.12266000E-03	-2.09848000E-02	-6.96310000E-03
		 3.14014000E-03	-2.76975000E-02	-3.98701000E-03
		 2.23660000E-04	-3.35886000E-02	-4.95588000E-04
		-5.45344000E-03	-3.36598000E-02	 6.27277000E-03
		 2.08104000E-04	-3.06982000E-02	-5.45902000E-04
		-5.59873000E-03	-3.07021000E-02	 6.46618000E-03
		 2.63162000E-04	-2.56954000E-02	-4.89744000E-04
		-2.57786000E-03	-3.36116000E-02	 2.67606000E-03
		-4.52496000E-03	-2.59137000E-02	 6.01258000E-03
		 6.21891000E-03	-3.39410000E-02	-7.59440000E-03
		 6.16260000E-03	-3.07569000E-02	-7.73964000E-03
		 5.05083000E-03	-2.58035000E-02	-7.07699000E-03
		 3.12116000E-03	-3.37633000E-02	-3.89588000E-03
		-1.85176000E-06	-3.47933000E-02	-4.01648000E-04
		-7.67194000E-03	-3.48656000E-02	 7.01075000E-03
		 9.77690000E-05	-4.26445000E-02	-7.19378000E-04
		-7.82358000E-03	-4.30522000E-02	 6.77623000E-03
		 1.22382000E-04	-2.80959000E-02	-3.83619000E-04
		-3.88663000E-03	-3.48186000E-02	 3.37406000E-03
		-6.84600000E-03	-2.83216000E-02	 6.80260000E-03
		 4.61407000E-05	-3.87126000E-02	-5.57091000E-04
		-7.74020000E-03	-3.88450000E-02	 6.81259000E-03
		 1.36677000E-04	-3.50879000E-02	-6.40713000E-04
		-3.70323000E-03	-4.28193000E-02	 3.00267000E-03
		-6.78316000E-03	-3.51644000E-02	 6.69252000E-03
		 7.90269000E-03	-3.47200000E-02	-7.90922000E-03
		 7.71851000E-03	-4.25187000E-02	-8.23386000E-03
		 7.10317000E-03	-2.80008000E-02	-7.67647000E-03
		 3.88217000E-03	-3.47532000E-02	-4.27405000E-03
		 7.82034000E-03	-3.86917000E-02	-7.95568000E-03
		 7.10592000E-03	-3.50085000E-02	-7.92421000E-03
		 3.91215000E-03	-4.25685000E-02	-4.47060000E-03
		 4.54372000E-05	-5.05397000E-02	-1.05721000E-03
		-7.62651000E-03	-5.12819000E-02	 6.42602000E-03
		 8.67537000E-05	-4.65312000E-02	-8.83634000E-04
		-7.73724000E-03	-4.77338000E-02	 6.70001000E-03
		 1.43551000E-04	-4.20320000E-02	-9.32100000E-04
		-3.97432000E-03	-5.08849000E-02	 2.65939000E-03
		-6.52415000E-03	-4.18692000E-02	 6.45120000E-03
		 7.61603000E-03	-5.00513000E-02	-8.48691000E-03