# vtk DataFile Version 3.0

ASCII
DATASET UNSTRUCTURED_GRID

POINTS 522 double
	 1.00000000E+00	 1.00000000E+00	-5.96046000E-08
	 1.00000000E+00	 5.00000000E-01	-5.96046000E-08
	 1.00000000E+00	 5.00000000E-01	 1.00000000E+00
	 1.00000000E+00	 1.00000000E+00	 1.00000000E+00
	 5.00000000E-01	 1.00000000E+00	-5.96046000E-08
	 5.00000000E-01	 5.00000000E-01	-5.96046000E-08
	 5.00000000E-01	 5.00000000E-01	 1.00000000E+00
	 5.00000000E-01	 1.00000000E+00	 1.00000000E+00
	 1.00000000E+00	 7.50000000E-01	-5.96046000E-08
	 1.00000000E+00	 5.00000000E-01	 5.00000000E-01
	 1.00000000E+00	 7.50000000E-01	 1.00000000E+00
	 1.00000000E+00	 1.00000000E+00	 5.00000000E-01
	 7.50000000E-01	 1.00000000E+00	-5.96046000E-08
	 7.50000000E-01	 5.00000000E-01	-5.96046000E-08
	 7.50000000E-01	 5.00000000E-01	 1.00000000E+00
	 7.50000000E-01	 1.00000000E+00	 1.00000000E+00
	 5.00000000E-01	 7.50000000E-01	-5.96046000E-08
	 5.00000000E-01	 5.00000000E-01	 5.00000000E-01
	 5.00000000E-01	 7.50000000E-01	 1.00000000E+00
	 5.00000000E-01	 1.00000000E+00	 5.00000000E-01
	 1.00000000E+00	-1.49012000E-08	-5.96046000E-08
	 1.00000000E+00	-1.49012000E-08	 1.00000000E+00
	 5.00000000E-01	-1.49012000E-08	-5.96046000E-08
	 5.00000000E-01	-1.49012000E-08	 1.00000000E+00
	 1.00000000E+00	 2.50000000E-01	-5.96046000E-08
	 1.00000000E+00	-1.49012000E-08	 5.00000000E-01
	 1.00000000E+00	 2.50000000E-01	 1.00000000E+00
	 7.50000000E-01	-1.49012000E-08	-5.96046000E-08
	 7.50000000E-01	-1.49012000E-08	 1.00000000E+00
	 5.00000000E-01	 2.50000000E-01	-5.96046000E-08
	 5.00000000E-01	-1.49012000E-08	 5.00000000E-01
	 5.00000000E-01	 2.50000000E-01	 1.00000000E+00
	-7.45058000E-09	 1.00000000E+00	-5.96046000E-08
	-7.45058000E-09	 5.00000000E-01	-5.96046000E-08
	-7.45058000E-09	 5.00000000E-01	 1.00000000E+00
	-7.45058000E-09	 1.00000000E+00	 1.00000000E+00
	 2.50000000E-01	 1.00000000E+00	-5.96046000E-08
	 2.50000000E-01	 5.00000000E-01	-5.96046000E-08
	 2.50000000E-01	 5.00000000E-01	 1.00000000E+00
	 2.50000000E-01	 1.00000000E+00	 1.00000000E+00
	-7.45058000E-09	 7.50000000E-01	-5.96046000E-08
	-7.45058000E-09	 5.00000000E-01	 5.00000000E-01
	-7.45058000E-09	 7.50000000E-01	 1.00000000E+00
	-7.45058000E-09	 1.00000000E+00	 5.00000000E-01
	-7.45058000E-09	-1.49012000E-08	-5.96046000E-08
	-7.45058000E-09	-1.49012000E-08	 1.00000000E+00
	 2.50000000E-01	-1.49012000E-08	-5.96046000E-08
	 2.50000000E-01	-1.49012000E-08	 1.00000000E+00
	-7.45058000E-09	 2.50000000E-01	-5.96046000E-08
	-7.45058000E-09	-1.49012000E-08	 5.00000000E-01
	-7.45058000E-09	 2.50000000E-01	 1.00000000E+00
	 1.00000000E+00	 5.00000000E-01	 2.00000000E+00
	 1.00000000E+00	 1.00000000E+00	 2.00000000E+00
	 5.00000000E-01	 5.00000000E-01	 2.00000000E+00
	 5.00000000E-01	 1.00000000E+00	 2.00000000E+00
	 1.00000000E+00	 5.00000000E-01	 1.50000000E+00
	 1.00000000E+00	 7.50000000E-01	 2.00000000E+00
	 1.00000000E+00	 1.00000000E+00	 1.50000000E+00
	 7.50000000E-01	 5.00000000E-01	 2.00000000E+00
	 7.50000000E-01	 1.00000000E+00	 2.00000000E+00
	 5.00000000E-01	 5.00000000E-01	 1.50000000E+00
	 5.00000000E-01	 7.50000000E-01	 2.00000000E+00
	 5.00000000E-01	 1.00000000E+00	 1.50000000E+00
	 1.00000000E+00	-1.49012000E-08	 2.00000000E+00
	 5.00000000E-01	-1.49012000E-08	 2.00000000E+00
	 1.00000000E+00	-1.49012000E-08	 1.50000000E+00
	 1.00000000E+00	 2.50000000E-01	 2.00000000E+00
	 7.50000000E-01	-1.49012000E-08	 2.00000000E+00
	 5.00000000E-01	-1.49012000E-08	 1.50000000E+00
	 5.00000000E-01	 2.50000000E-01	 2.00000000E+00
	-7.45058000E-09	 5.00000000E-01	 2.00000000E+00
	-7.45058000E-09	 1.00000000E+00	 2.00000000E+00
	 2.50000000E-01	 5.00000000E-01	 2.00000000E+00
	 2.50000000E-01	 1.00000000E+00	 2.00000000E+00
	-7.45058000E-09	 5.00000000E-01	 1.50000000E+00
	-7.45058000E-09	 7.50000000E-01	 2.00000000E+00
	-7.45058000E-09	 1.00000000E+00	 1.50000000E+00
	-7.45058000E-09	-1.49012000E-08	 2.00000000E+00
	 2.50000000E-01	-1.49012000E-08	 2.00000000E+00
	-7.45058000E-09	-1.49012000E-08	 1.50000000E+00
	-7.45058000E-09	 2.50000000E-01	 2.00000000E+00
	 1.00000000E+00	 5.00000000E-01	 3.00000000E+00
	 1.00000000E+00	 1.00000000E+00	 3.00000000E+00
	 5.00000000E-01	 5.00000000E-01	 3.00000000E+00
	 5.00000000E-01	 1.00000000E+00	 3.00000000E+00
	 1.00000000E+00	 5.00000000E-01	 2.50000000E+00
	 1.00000000E+00	 7.50000000E-01	 3.00000000E+00
	 1.00000000E+00	 1.00000000E+00	 2.50000000E+00
	 7.50000000E-01	 5.00000000E-01	 3.00000000E+00
	 7.50000000E-01	 1.00000000E+00	 3.00000000E+00
	 5.00000000E-01	 5.00000000E-01	 2.50000000E+00
	 5.00000000E-01	 7.50000000E-01	 3.00000000E+00
	 5.00000000E-01	 1.00000000E+00	 2.50000000E+00
	 1.00000000E+00	-1.49012000E-08	 3.00000000E+00
	 5.00000000E-01	-1.49012000E-08	 3.00000000E+00
	 1.00000000E+00	-1.49012000E-08	 2.50000000E+00
	 1.00000000E+00	 2.50000000E-01	 3.00000000E+00
	 7.50000000E-01	-1.49012000E-08	 3.00000000E+00
	 5.00000000E-01	-1.49012000E-08	 2.50000000E+00
	 5.00000000E-01	 2.50000000E-01	 3.00000000E+00
	-7.45058000E-09	 5.00000000E-01	 3.00000000E+00
	-7.45058000E-09	 1.00000000E+00	 3.00000000E+00
	 2.50000000E-01	 5.00000000E-01	 3.00000000E+00
	 2.50000000E-01	 1.00000000E+00	 3.00000000E+00
	-7.45058000E-09	 5.00000000E-01	 2.50000000E+00
	-7.45058000E-09	 7.50000000E-01	 3.00000000E+00
	-7.45058000E-09	 1.00000000E+00	 2.50000000E+00
	-7.45058000E-09	-1.49012000E-08	 3.00000000E+00
	 2.50000000E-01	-1.49012000E-08	 3.00000000E+00
	-7.45058000E-09	-1.49012000E-08	 2.50000000E+00
	-7.45058000E-09	 2.50000000E-01	 3.00000000E+00
	 1.00000000E+00	 5.00000000E-01	 4.00000000E+00
	 1.00000000E+00	 1.00000000E+00	 4.00000000E+00
	 5.00000000E-01	 5.00000000E-01	 4.00000000E+00
	 5.00000000E-01	 1.00000000E+00	 4.00000000E+00
	 1.00000000E+00	 5.00000000E-01	 3.50000000E+00
	 1.00000000E+00	 7.50000000E-01	 4.00000000E+00
	 1.00000000E+00	 1.00000000E+00	 3.50000000E+00
	 7.50000000E-01	 5.00000000E-01	 4.00000000E+00
	 7.50000000E-01	 1.00000000E+00	 4.00000000E+00
	 5.00000000E-01	 5.00000000E-01	 3.50000000E+00
	 5.00000000E-01	 7.50000000E-01	 4.00000000E+00
	 5.00000000E-01	 1.00000000E+00	 3.50000000E+00
	 1.00000000E+00	-1.49012000E-08	 4.00000000E+00
	 5.00000000E-01	-1.49012000E-08	 4.00000000E+00
	 1.00000000E+00	-1.49012000E-08	 3.50000000E+00
	 1.00000000E+00	 2.50000000E-01	 4.00000000E+00
	 7.50000000E-01	-1.49012000E-08	 4.00000000E+00
	 5.00000000E-01	-1.49012000E-08	 3.50000000E+00
	 5.00000000E-01	 2.50000000E-01	 4.00000000E+00
	-7.45058000E-09	 5.00000000E-01	 4.00000000E+00
	-7.45058000E-09	 1.00000000E+00	 4.00000000E+00
	 2.50000000E-01	 5.00000000E-01	 4.00000000E+00
	 2.50000000E-01	 1.00000000E+00	 4.00000000E+00
	-7.45058000E-09	 5.00000000E-01	 3.50000000E+00
	-7.45058000E-09	 7.50000000E-01	 4.00000000E+00
	-7.45058000E-09	 1.00000000E+00	 3.50000000E+00
	-7.45058000E-09	-1.49012000E-08	 4.00000000E+00
	 2.50000000E-01	-1.49012000E-08	 4.00000000E+00
	-7.45058000E-09	-1.49012000E-08	 3.50000000E+00
	-7.45058000E-09	 2.50000000E-01	 4.00000000E+00
	 1.00000000E+00	 5.00000000E-01	 5.00000000E+00
	 1.00000000E+00	 1.00000000E+00	 5.00000000E+00
	 5.00000000E-01	 5.00000000E-01	 5.00000000E+00
	 5.00000000E-01	 1.00000000E+00	 5.00000000E+00
	 1.00000000E+00	 5.00000000E-01	 4.50000000E+00
	 1.00000000E+00	 7.50000000E-01	 5.00000000E+00
	 1.00000000E+00	 1.00000000E+00	 4.50000000E+00
	 7.50000000E-01	 5.00000000E-01	 5.00000000E+00
	 7.50000000E-01	 1.00000000E+00	 5.00000000E+00
	 5.00000000E-01	 5.00000000E-01	 4.50000000E+00
	 5.00000000E-01	 7.50000000E-01	 5.00000000E+00
	 5.00000000E-01	 1.00000000E+00	 4.50000000E+00
	 1.00000000E+00	-1.49012000E-08	 5.00000000E+00
	 5.00000000E-01	-1.49012000E-08	 5.00000000E+00
	 1.00000000E+00	-1.49012000E-08	 4.50000000E+00
	 1.00000000E+00	 2.50000000E-01	 5.00000000E+00
	 7.50000000E-01	-1.49012000E-08	 5.00000000E+00
	 5.00000000E-01	-1.49012000E-08	 4.50000000E+00
	 5.00000000E-01	 2.50000000E-01	 5.00000000E+00
	-7.45058000E-09	 5.00000000E-01	 5.00000000E+00
	-7.45058000E-09	 1.00000000E+00	 5.00000000E+00
	 2.50000000E-01	 5.00000000E-01	 5.00000000E+00
	 2.50000000E-01	 1.00000000E+00	 5.00000000E+00
	-7.45058000E-09	 5.00000000E-01	 4.50000000E+00
	-7.45058000E-09	 7.50000000E-01	 5.00000000E+00
	-7.45058000E-09	 1.00000000E+00	 4.50000000E+00
	-7.45058000E-09	-1.49012000E-08	 5.00000000E+00
	 2.50000000E-01	-1.49012000E-08	 5.00000000E+00
	-7.45058000E-09	-1.49012000E-08	 4.50000000E+00
	-7.45058000E-09	 2.50000000E-01	 5.00000000E+00
	 1.00000000E+00	 5.00000000E-01	 6.00000000E+00
	 1.00000000E+00	 1.00000000E+00	 6.00000000E+00
	 5.00000000E-01	 5.00000000E-01	 6.00000000E+00
	 5.00000000E-01	 1.00000000E+00	 6.00000000E+00
	 1.00000000E+00	 5.00000000E-01	 5.50000000E+00
	 1.00000000E+00	 7.50000000E-01	 6.00000000E+00
	 1.00000000E+00	 1.00000000E+00	 5.50000000E+00
	 7.50000000E-01	 5.00000000E-01	 6.00000000E+00
	 7.50000000E-01	 1.00000000E+00	 6.00000000E+00
	 5.00000000E-01	 5.00000000E-01	 5.50000000E+00
	 5.00000000E-01	 7.50000000E-01	 6.00000000E+00
	 5.00000000E-01	 1.00000000E+00	 5.50000000E+00
	 1.00000000E+00	-1.49012000E-08	 6.00000000E+00
	 5.00000000E-01	-1.49012000E-08	 6.00000000E+00
	 1.00000000E+00	-1.49012000E-08	 5.50000000E+00
	 1.00000000E+00	 2.50000000E-01	 6.00000000E+00
	 7.50000000E-01	-1.49012000E-08	 6.00000000E+00
	 5.00000000E-01	-1.49012000E-08	 5.50000000E+00
	 5.00000000E-01	 2.50000000E-01	 6.00000000E+00
	-7.45058000E-09	 5.00000000E-01	 6.00000000E+00
	-7.45058000E-09	 1.00000000E+00	 6.00000000E+00
	 2.50000000E-01	 5.00000000E-01	 6.00000000E+00
	 2.50000000E-01	 1.00000000E+00	 6.00000000E+00
	-7.45058000E-09	 5.00000000E-01	 5.50000000E+00
	-7.45058000E-09	 7.50000000E-01	 6.00000000E+00
	-7.45058000E-09	 1.00000000E+00	 5.50000000E+00
	-7.45058000E-09	-1.49012000E-08	 6.00000000E+00
	 2.50000000E-01	-1.49012000E-08	 6.00000000E+00
	-7.45058000E-09	-1.49012000E-08	 5.50000000E+00
	-7.45058000E-09	 2.50000000E-01	 6.00000000E+00
	 1.00000000E+00	 5.00000000E-01	 7.00000000E+00
[...]
POINT_DATA 522
FIELD U 1
	U 3 522 double
		 0.00000000E+00	 0.00000000E+00	 0.00000000E+00
		 0.00000000E+00	 0.00000000E+00	 0.00000000E+00
		-1.14266000E-05	 1.09218000E-03	-2.76501000E-05
		 7.64067000E-04	 1.09872000E-03	-9.88545000E-04
		 0.00000000E+00	 0.00000000E+00	 0.00000000E+00
		 0.00000000E+00	 0.00000000E+00	 0.00000000E+00
		-1.55528000E-05	 1.86758000E-03	-4.19583000E-05
		 7.48195000E-04	 1.87322000E-03	-1.03517000E-03
		 0.00000000E+00	 0.00000000E+00	 0.00000000E+00
		 3.02408000E-07	 2.31598000E-04	-1.25607000E-05
		 3.78001000E-04	 1.08498000E-03	-5.01034000E-04
		 5.20603000E-04	 3.21392000E-04	-6.41912000E-04
		 0.00000000E+00	 0.00000000E+00	 0.00000000E+00
		 0.00000000E+00	 0.00000000E+00	 0.00000000E+00
		-1.32717000E-05	 1.49065000E-03	-3.54998000E-05
		 7.55148000E-04	 1.49421000E-03	-9.59625000E-04
		 0.00000000E+00	 0.00000000E+00	 0.00000000E+00
		-4.55728000E-06	 6.74433000E-04	-1.84876000E-05
		 3.65292000E-04	 1.85866000E-03	-4.74450000E-04
		 3.80336000E-04	 7.57653000E-04	-6.46793000E-04
		 0.00000000E+00	 0.00000000E+00	 0.00000000E+00
		-7.86234000E-04	 1.09243000E-03	 9.32529000E-04
		 0.00000000E+00	 0.00000000E+00	 0.00000000E+00
		-7.79334000E-04	 1.86428000E-03	 9.51560000E-04
		 0.00000000E+00	 0.00000000E+00	 0.00000000E+00
		-5.18284000E-04	 3.14178000E-04	 6.14389000E-04
		-4.01028000E-04	 1.08171000E-03	 4.45970000E-04
		 0.00000000E+00	 0.00000000E+00	 0.00000000E+00
		-7.81171000E-04	 1.48634000E-03	 8.88096000E-04
		 0.00000000E+00	 0.00000000E+00	 0.00000000E+00
		-3.88412000E-04	 7.46412000E-04	 6.07245000E-04
		-3.96727000E-04	 1.85379000E-03	 3.90934000E-04
		 0.00000000E+00	 0.00000000E+00	 0.00000000E+00
		 0.00000000E+00	 0.00000000E+00	 0.00000000E+00
		-2.11814000E-05	 2.61956000E-03	-5.51745000E-05
		 7.20547000E-04	 2.61708000E-03	-1.01498000E-03
		 0.00000000E+00	 0.00000000E+00	 0.00000000E+00
		 0.00000000E+00	 0.00000000E+00	 0.00000000E+00
		-1.79369000E-05	 2.25255000E-03	-4.78985000E-05
		 7.34945000E-04	 2.25639000E-03	-1.10490000E-03
		 0.00000000E+00	 0.00000000E+00	 0.00000000E+00
		-1.14572000E-05	 1.00042000E-03	-2.60024000E-05
		 3.50924000E-04	 2.60705000E-03	-3.94532000E-04
		 2.09908000E-04	 1.06524000E-03	-6.55363000E-04
		 0.00000000E+00	 0.00000000E+00	 0.00000000E+00
		-7.62981000E-04	 2.60772000E-03	 9.05920000E-04
		 0.00000000E+00	 0.00000000E+00	 0.00000000E+00
		-7.71310000E-04	 2.24725000E-03	 1.01028000E-03
		 0.00000000E+00	 0.00000000E+00	 0.00000000E+00
		-2.32107000E-04	 1.05121000E-03	 6.00663000E-04
		-3.93266000E-04	 2.60195000E-03	 2.84672000E-04
		-4.74584000E-05	 2.37308000E-03	-6.74127000E-05
		 1.39132000E-03	 2.34467000E-03	-6.80319000E-04
		-5.03638000E-05	 3.85509000E-03	-8.03735000E-05
		 1.46152000E-03	 3.82067000E-03	-6.89409000E-04
		-2.97776000E-05	 1.93074000E-03	-4.56675000E-05
		 6.74831000E-04	 2.37345000E-03	-4.43869000E-04
		 1.04983000E-03	 1.93021000E-03	-9.13630000E-04
		-4.91410000E-05	 3.10152000E-03	-7.42977000E-05
		 1.42641000E-03	 3.06850000E-03	-6.27161000E-04
		-3.32592000E-05	 3.04559000E-03	-6.21308000E-05
		 7.06330000E-04	 3.85363000E-03	-3.98620000E-04
		 1.10368000E-03	 3.03854000E-03	-9.41194000E-04
		-1.49102000E-03	 2.33276000E-03	 5.47199000E-04
		-1.56677000E-03	 3.81559000E-03	 5.30336000E-04
		-1.11119000E-03	 1.91994000E-03	 8.21409000E-04
		-7.70976000E-04	 2.36676000E-03	 3.09733000E-04
		-1.52962000E-03	 3.06028000E-03	 4.79959000E-04
		-1.17277000E-03	 3.03082000E-03	 8.17408000E-04
		-8.08474000E-04	 3.85098000E-03	 2.38251000E-04
		-5.23513000E-05	 5.40152000E-03	-9.39095000E-05
		 1.53760000E-03	 5.37155000E-03	-7.07373000E-04
		-5.14598000E-05	 4.61659000E-03	-8.66895000E-05
		 1.49948000E-03	 4.58094000E-03	-7.46562000E-04
		-3.71397000E-05	 4.20696000E-03	-7.82289000E-05
		 7.39475000E-04	 5.40101000E-03	-3.64038000E-04
		 1.16183000E-03	 4.20809000E-03	-9.45082000E-04
		-1.64606000E-03	 5.37273000E-03	 5.21328000E-04
		-1.60663000E-03	 4.57893000E-03	 5.74895000E-04
		-1.23891000E-03	 4.20384000E-03	 7.90357000E-04
		-8.45110000E-04	 5.40188000E-03	 1.76699000E-04
		-6.55106000E-05	 2.37908000E-03	-1.03561000E-04
		 2.20218000E-03	 2.37705000E-03	-5.84046000E-04
		-6.66055000E-05	 4.61979000E-03	-1.10805000E-04
		 2.16478000E-03	 4.63037000E-03	-5.89916000E-04
		-5.82430000E-05	 2.37829000E-03	-8.82628000E-05
		 1.06471000E-03	 2.37020000E-03	-4.00804000E-04
		 1.81585000E-03	 2.36827000E-03	-5.57966000E-04
		-6.55185000E-05	 3.50385000E-03	-1.07072000E-04
		 2.18392000E-03	 3.51194000E-03	-5.37605000E-04
		-6.00793000E-05	 4.26250000E-03	-9.64022000E-05
		 1.04943000E-03	 4.61626000E-03	-3.58942000E-04
		 1.83244000E-03	 4.25151000E-03	-5.54788000E-04
		-2.33687000E-03	 2.38080000E-03	 3.78736000E-04
		-2.29824000E-03	 4.63707000E-03	 3.69617000E-04
		-1.93732000E-03	 2.36293000E-03	 3.85164000E-04
		-1.19695000E-03	 2.37272000E-03	 1.93946000E-04
		-2.31753000E-03	 3.51792000E-03	 3.25463000E-04
		-1.95546000E-03	 4.25211000E-03	 3.64537000E-04
		-1.18291000E-03	 4.62077000E-03	 1.37747000E-04
		-6.81292000E-05	 6.84314000E-03	-1.19417000E-04
		 2.14158000E-03	 6.85651000E-03	-6.00765000E-04
		-6.77587000E-05	 5.73763000E-03	-1.14971000E-04
		 2.15347000E-03	 5.74945000E-03	-6.37852000E-04
		-6.17575000E-05	 6.16694000E-03	-1.06080000E-04
		 1.03746000E-03	 6.84281000E-03	-3.25380000E-04
		 1.85302000E-03	 6.15722000E-03	-5.77691000E-04
		-2.27457000E-03	 6.85963000E-03	 3.62824000E-04
		-2.28691000E-03	 5.75515000E-03	 4.08476000E-04
		-1.97717000E-03	 6.15956000E-03	 3.66894000E-04
		-1.17293000E-03	 6.84472000E-03	 8.72393000E-05
		-7.75651000E-05	 3.64988000E-03	-1.33302000E-04
		 2.26201000E-03	 3.58931000E-03	-5.89870000E-04
		-7.87540000E-05	 6.02223000E-03	-1.41372000E-04
		 2.33896000E-03	 5.97295000E-03	-6.21698000E-04
		-7.21798000E-05	 2.81009000E-03	-1.16582000E-04
		 1.08868000E-03	 3.62864000E-03	-2.78063000E-04
		 2.37200000E-03	 2.77384000E-03	-6.78869000E-04
		-7.78984000E-05	 4.82434000E-03	-1.37571000E-04
		 2.30143000E-03	 4.77410000E-03	-6.39909000E-04
		-7.31875000E-05	 5.23515000E-03	-1.25331000E-04
		 1.13148000E-03	 6.00653000E-03	-3.28820000E-04
		 2.35500000E-03	 5.21868000E-03	-7.00725000E-04
		-2.42234000E-03	 3.58933000E-03	 3.21159000E-04
		-2.49878000E-03	 5.97919000E-03	 3.37597000E-04
		-2.51966000E-03	 2.77960000E-03	 4.44531000E-04
		-1.24531000E-03	 3.62839000E-03	 1.13500000E-05
		-2.46153000E-03	 4.77809000E-03	 3.62401000E-04
		-2.50162000E-03	 5.22726000E-03	 4.49268000E-04
		-1.28975000E-03	 6.01019000E-03	 4.57570000E-05
		-7.89674000E-05	 8.48799000E-03	-1.48841000E-04
		 2.43864000E-03	 8.44596000E-03	-6.04692000E-04
		-7.93379000E-05	 7.24608000E-03	-1.44925000E-04
		 2.38890000E-03	 7.19796000E-03	-6.10364000E-04
		-7.40434000E-05	 7.66768000E-03	-1.34239000E-04
		 1.17899000E-03	 8.47711000E-03	-3.29947000E-04
		 2.36635000E-03	 7.65999000E-03	-6.96116000E-04
		-2.59561000E-03	 8.45266000E-03	 3.06353000E-04
		-2.54782000E-03	 7.20503000E-03	 3.20214000E-04
		-2.51105000E-03	 7.66519000E-03	 4.27298000E-04
		-1.33670000E-03	 8.48065000E-03	 3.16236000E-05
		-8.13777000E-05	 4.62897000E-03	-1.80560000E-04
		 1.47684000E-03	 4.47218000E-03	 8.36380000E-04
		-8.51850000E-05	 6.36442000E-03	-1.76567000E-04
		 1.80695000E-03	 6.19821000E-03	 8.24770000E-04
		-8.09221000E-05	 4.48025000E-03	-1.55593000E-04
		 7.01230000E-04	 4.59607000E-03	 4.23765000E-04
		 1.92385000E-03	 4.37121000E-03	-6.19316000E-05
		-8.34975000E-05	 5.45303000E-03	-1.78943000E-04
		 1.64199000E-03	 5.28948000E-03	 7.63561000E-04
		-8.33996000E-05	 6.59350000E-03	-1.58793000E-04
		 8.61892000E-04	 6.32783000E-03	 3.55024000E-04
		 2.13538000E-03	 6.48539000E-03	-9.30987000E-05
		-1.64713000E-03	 4.46260000E-03	-1.19703000E-03
		-1.98349000E-03	 6.19954000E-03	-1.17742000E-03
		-2.09353000E-03	 4.36263000E-03	-2.50425000E-04
		-8.66065000E-04	 4.59119000E-03	-7.85471000E-04
		-1.81600000E-03	 5.28567000E-03	-1.12025000E-03
		-2.30733000E-03	 6.48725000E-03	-2.24618000E-04
		-1.03405000E-03	 6.32893000E-03	-7.08197000E-04
		-8.60091000E-05	 8.41950000E-03	-1.70795000E-04
		 2.14875000E-03	 8.26108000E-03	 8.44974000E-04
		-8.61698000E-05	 7.34896000E-03	-1.73570000E-04
		 1.97717000E-03	 7.18269000E-03	 8.81999000E-04
		-8.37098000E-05	 8.92279000E-03	-1.61214000E-04
		 1.02802000E-03	 8.38577000E-03	 3.18679000E-04
		 2.36656000E-03	 8.82324000E-03	-6.70661000E-05
		-2.32495000E-03	 8.27189000E-03	-1.18616000E-03
		-2.15487000E-03	 7.18898000E-03	-1.22907000E-03
		-2.53633000E-03	 8.83114000E-03	-2.54629000E-04
		-1.20095000E-03	 8.39178000E-03	-6.60141000E-04
		-7.39438000E-05	 9.07468000E-04	-2.26187000E-04
		 7.05887000E-04	 7.57039000E-04	 3.12953000E-03
		-7.53633000E-05	 1.84854000E-03	-2.14761000E-04
		 1.00857000E-03	 1.68940000E-03	 3.15987000E-03
		-7.82599000E-05	 3.49172000E-03	-2.04314000E-04
		 3.18227000E-04	 8.71816000E-04	 1.45382000E-03
		 1.05581000E-03	 3.33608000E-03	 2.00894000E-03
		-7.51579000E-05	 1.33940000E-03	-2.20866000E-04
		 8.56946000E-04	 1.18284000E-03	 3.09935000E-03
		-8.17686000E-05	 4.81541000E-03	-1.94974000E-04
		 4.66248000E-04	 1.80982000E-03	 1.42668000E-03
		 1.41158000E-03	 4.64790000E-03	 2.02080000E-03
		-8.55053000E-04	 7.75088000E-04	-3.58587000E-03
		-1.16189000E-03	 1.71000000E-03	-3.59340000E-03
		-1.21598000E-03	 3.33880000E-03	-2.41751000E-03
		-4.66692000E-04	 8.81568000E-04	-1.90759000E-03
		-1.00865000E-03	 1.20122000E-03	-3.54472000E-03
		-1.57918000E-03	 4.65663000E-03	-2.41164000E-03
		-6.17776000E-04	 1.81960000E-03	-1.85724000E-03
		-7.50723000E-05	 3.07998000E-03	-1.97673000E-04
		 1.30853000E-03	 2.92151000E-03	 3.15678000E-03
		-7.52390000E-05	 2.42595000E-03	-2.07291000E-04
		 1.15802000E-03	 2.26572000E-03	 3.22920000E-03
		-8.29320000E-05	 6.48313000E-03	-1.81383000E-04
		 6.15474000E-04	 3.04109000E-03	 1.36439000E-03
		 1.77019000E-03	 6.32137000E-03	 2.02933000E-03
		-1.46262000E-03	 2.94822000E-03	-3.55585000E-03
		-1.31239000E-03	 2.28974000E-03	-3.64780000E-03
		-1.93998000E-03	 6.33795000E-03	-2.39376000E-03
		-7.66430000E-04	 3.05321000E-03	-1.76060000E-03
		-5.40489000E-05	-7.34808000E-03	-2.76996000E-04
		 3.01691000E-04	-7.39662000E-03	 4.26956000E-03
		-5.08207000E-05	-6.95700000E-03	-2.64490000E-04
		 3.74479000E-04	-7.00704000E-03	 4.30238000E-03
		-6.61576000E-05	-2.90105000E-03	-2.50746000E-04
		 1.22699000E-04	-7.36478000E-03	 1.98599000E-03
		 4.72296000E-04	-3.00115000E-03	 3.87916000E-03
		-5.28327000E-05	-7.16056000E-03	-2.70055000E-04
		 3.37064000E-04	-7.20937000E-03	 4.25898000E-03
		-6.47589000E-05	-2.26733000E-03	-2.38023000E-04
		 1.60310000E-04	-6.97529000E-03	 1.98025000E-03
		 6.54833000E-04	-2.37213000E-03	 3.91917000E-03
		-4.09632000E-04	-7.36259000E-03	-4.82234000E-03
		-4.79765000E-04	-6.97299000E-03	-4.83045000E-03
		-6.04711000E-04	-2.97429000E-03	-4.38533000E-03
		-2.30839000E-04	-7.35005000E-03	-2.53918000E-03
		-4.44303000E-04	-7.17620000E-03	-4.79824000E-03
		-7.87591000E-04	-2.34395000E-03	-4.39941000E-03
		-2.63457000E-04	-6.96074000E-03	-2.50870000E-03
		-4.95457000E-05	-6.48960000E-03	-2.52093000E-04
		 4.33425000E-04	-6.55344000E-03	 4.29988000E-03
		-4.92392000E-05	-6.73040000E-03	-2.59133000E-04
		 4.04085000E-04	-6.78460000E-03	 4.34821000E-03
		-6.33442000E-05	-1.45434000E-03	-2.21410000E-04
		 1.94588000E-04	-6.51427000E-03	 1.94034000E-03
		 8.27852000E-04	-1.56764000E-03	 3.90918000E-03
		-5.38461000E-04	-6.51410000E-03	-4.80352000E-03
		-5.08093000E-04	-6.74786000E-03	-4.86591000E-03
		-9.60314000E-04	-1.53296000E-03	-4.35561000E-03
		-2.95545000E-04	-6.49663000E-03	-2.44386000E-03
		-3.68104000E-05	-1.65786000E-02	-3.20420000E-04
		 9.96220000E-05	-1.65911000E-02	 4.31649000E-03
		-4.07625000E-05	-1.64496000E-02	-3.12907000E-04
		 1.00617000E-04	-1.64749000E-02	 4.34133000E-03
		-4.39300000E-05	-1.19489000E-02	-2.99747000E-04
		 3.20589000E-05	-1.65880000E-02	 2.00639000E-03
		 1.55039000E-04	-1.19798000E-02	 4.34755000E-03
		-3.81043000E-05	-1.65101000E-02	-3.16360000E-04
		 9.97228000E-05	-1.65295000E-02	 4.32057000E-03
		-4.30361000E-05	-1.17409000E-02	-2.90124000E-04
		 3.20512000E-05	-1.64660000E-02	 2.01591000E-03
		 1.73109000E-04	-1.17754000E-02	 4.37299000E-03
		-1.79853000E-04	-1.65424000E-02	-4.94523000E-03
		-1.84405000E-04	-1.64207000E-02	-4.95660000E-03
		-2.46287000E-04	-1.19417000E-02	-4.93855000E-03
		-1.07724000E-04	-1.65630000E-02	-2.64333000E-03
		-1.80879000E-04	-1.64769000E-02	-4.94205000E-03
		-2.61831000E-04	-1.17345000E-02	-4.94559000E-03
		-1.14663000E-04	-1.64376000E-02	-2.63884000E-03
		-4.61310000E-05	-1.63157000E-02	-3.12773000E-04
		 7.97991000E-05	-1.63569000E-02	 4.34701000E-03
		-4.37230000E-05	-1.63842000E-02	-3.11414000E-04
		 9.05784000E-05	-1.64146000E-02	 4.35268000E-03
		-4.34317000E-05	-1.15118000E-02	-2.85632000E-04
		 2.05913000E-05	-1.63399000E-02	 2.01328000E-03
		 1.81455000E-04	-1.15586000E-02	 4.37752000E-03
		-1.69279000E-04	-1.63059000E-02	-4.96334000E-03
		-1.77512000E-04	-1.63609000E-02	-4.96624000E-03
		-2.69351000E-04	-1.15171000E-02	-4.94202000E-03
		-1.12410000E-04	-1.63133000E-02	-2.63618000E-03
		 0.00000000E+00	 0.00000000E+00	 0.00000000E+00
		 0.00000000E+00	 0.00000000E+00	 0.00000000E+00
		 7.23025000E-05	-2.46979000E-03	-4.05811000E-05
		-1.50358000E-03	-2.61516000E-03	 2.90844000E-03
		 0.00000000E+00	 0.00000000E+00	 0.00000000E+00
		 0.00000000E+00	 0.00000000E+00	 0.00000000E+00
		 7.60052000E-05	-3.90132000E-03	-6.74929000E-06
		-1.20801000E-03	-4.05501000E-03	 2.99324000E-03
		 0.00000000E+00	 0.00000000E+00	 0.00000000E+00
		 3.03201000E-05	-3.29638000E-04	-2.52350000E-05
		-7.18447000E-04	-2.48432000E-03	 1.46346000E-03
		-1.03323000E-03	-5.93413000E-04	 1.57486000E-03
		 0.00000000E+00	 0.00000000E+00	 0.00000000E+00
		 0.00000000E+00	 0.00000000E+00	 0.00000000E+00
		 7.39425000E-05	-3.24300000E-03	-2.22015000E-05
		-1.35293000E-03	-3.38809000E-03	 2.84924000E-03
		 0.00000000E+00	 0.00000000E+00	 0.00000000E+00
		 2.74570000E-05	-1.15807000E-03	-2.78891000E-06
		-5.65302000E-04	-3.91649000E-03	 1.41436000E-03
		-6.10360000E-04	-1.41099000E-03	 1.56610000E-03
		 0.00000000E+00	 0.00000000E+00	 0.00000000E+00
		 1.64417000E-03	-2.59169000E-03	-2.98956000E-03
		 0.00000000E+00	 0.00000000E+00	 0.00000000E+00
		 1.35757000E-03	-4.02569000E-03	-3.00842000E-03
		 0.00000000E+00	 0.00000000E+00	 0.00000000E+00
		 1.08771000E-03	-5.95115000E-04	-1.62684000E-03
		 8.62458000E-04	-2.47242000E-03	-1.54497000E-03
		 0.00000000E+00	 0.00000000E+00	 0.00000000E+00
		 1.49726000E-03	-3.36150000E-03	-2.89411000E-03
		 0.00000000E+00	 0.00000000E+00	 0.00000000E+00
		 6.60407000E-04	-1.40085000E-03	-1.57198000E-03
		 7.15825000E-04	-3.90249000E-03	-1.42905000E-03
		 0.00000000E+00	 0.00000000E+00	 0.00000000E+00
		 0.00000000E+00	 0.00000000E+00	 0.00000000E+00
		 7.96960000E-05	-5.03462000E-03	 3.15332000E-05
		-8.98252000E-04	-5.17235000E-03	 2.98007000E-03
		 0.00000000E+00	 0.00000000E+00	 0.00000000E+00
		 0.00000000E+00	 0.00000000E+00	 0.00000000E+00
		 7.74003000E-05	-4.52326000E-03	 9.41633000E-06
		-1.05564000E-03	-4.66574000E-03	 3.11070000E-03
		 0.00000000E+00	 0.00000000E+00	 0.00000000E+00
		 3.07554000E-05	-1.59989000E-03	 2.22485000E-05
		-4.08676000E-04	-5.04351000E-03	 1.30442000E-03
		-1.35442000E-04	-1.82965000E-03	 1.62311000E-03
		 0.00000000E+00	 0.00000000E+00	 0.00000000E+00
		 1.05198000E-03	-5.13629000E-03	-2.91958000E-03
		 0.00000000E+00	 0.00000000E+00	 0.00000000E+00
		 1.20573000E-03	-4.63796000E-03	-3.09428000E-03
		 0.00000000E+00	 0.00000000E+00	 0.00000000E+00
		 1.89647000E-04	-1.80536000E-03	-1.57863000E-03
		 5.67740000E-04	-5.02760000E-03	-1.24246000E-03
		 1.62518000E-04	-9.24411000E-03	-3.52262000E-05
		-2.59906000E-03	-9.34743000E-03	 4.32416000E-03
		 1.78097000E-04	-1.19335000E-02	-1.20892000E-05
		-2.43820000E-03	-1.20320000E-02	 4.35317000E-03
		 1.19069000E-04	-5.59602000E-03	-4.07572000E-05
		-1.22018000E-03	-9.28485000E-03	 2.22953000E-03
		-2.02848000E-03	-5.74383000E-03	 3.75324000E-03
		 1.70242000E-04	-1.06011000E-02	-2.52526000E-05
		-2.51807000E-03	-1.06983000E-02	 4.24470000E-03
		 1.27075000E-04	-7.64657000E-03	-1.08171000E-05
		-1.12461000E-03	-1.19714000E-02	 2.16584000E-03
		-1.81701000E-03	-7.78846000E-03	 3.80381000E-03
		 2.92414000E-03	-9.28173000E-03	-4.39367000E-03
		 2.78762000E-03	-1.19729000E-02	-4.37535000E-03
		 2.26486000E-03	-5.69896000E-03	-3.83664000E-03
		 1.54440000E-03	-9.25077000E-03	-2.30050000E-03
		 2.85704000E-03	-1.06417000E-02	-4.29138000E-03
		 2.06852000E-03	-7.74436000E-03	-3.82698000E-03
		 1.48319000E-03	-1.19418000E-02	-2.18698000E-03
		 1.86364000E-04	-1.44712000E-02	 1.41272000E-05
		-2.26223000E-03	-1.45572000E-02	 4.37212000E-03
		 1.82644000E-04	-1.32123000E-02	 2.22871000E-06
		-2.34925000E-03	-1.33356000E-02	 4.45741000E-03
		 1.34334000E-04	-9.48405000E-03	 2.34940000E-05
		-1.04304000E-03	-1.44994000E-02	 2.09462000E-03
		-1.60402000E-03	-9.62907000E-03	 3.81786000E-03
		 2.65805000E-03	-1.45155000E-02	-4.34343000E-03
		 2.72344000E-03	-1.32559000E-02	-4.45505000E-03
		 1.87966000E-03	-9.59082000E-03	-3.77075000E-03
		 1.42174000E-03	-1.44790000E-02	-2.06205000E-03
		 2.59592000E-04	-1.78250000E-02	-1.64347000E-05
		-3.84575000E-03	-1.78835000E-02	 5.31601000E-03
		 2.86525000E-04	-2.18079000E-02	 3.71824000E-06
		-3.65093000E-03	-2.19900000E-02	 5.34733000E-03
		 2.09711000E-04	-1.32312000E-02	-2.59810000E-05
		-1.78349000E-03	-1.78329000E-02	 2.70677000E-03
		-3.24260000E-03	-1.33368000E-02	 4.84366000E-03
		 2.75340000E-04	-1.98370000E-02	-2.54732000E-06
		-3.75073000E-03	-1.99758000E-02	 5.24070000E-03
		 2.29701000E-04	-1.65965000E-02	-7.37821000E-06
		-1.70713000E-03	-2.18822000E-02	 2.63043000E-03
		-3.06544000E-03	-1.67166000E-02	 4.86544000E-03
		 4.32508000E-03	-1.78165000E-02	-5.33027000E-03
		 4.22305000E-03	-2.18323000E-02	-5.35615000E-03
		 3.65292000E-03	-1.32545000E-02	-4.89050000E-03
		 2.28909000E-03	-1.78004000E-02	-2.72748000E-03
		 4.27327000E-03	-1.98429000E-02	-5.25571000E-03
		 3.52639000E-03	-1.66203000E-02	-4.87763000E-03
		 2.25626000E-03	-2.18038000E-02	-2.64221000E-03
		 3.02945000E-04	-2.56859000E-02	 2.27370000E-05
		-3.57653000E-03	-2.59829000E-02	 5.35237000E-03
		 2.95210000E-04	-2.37795000E-02	 1.02146000E-05
		-3.61632000E-03	-2.38902000E-02	 5.45915000E-03
		 2.52430000E-04	-1.98190000E-02	 1.24468000E-05
		-1.60759000E-03	-2.58235000E-02	 2.52656000E-03
		-2.92362000E-03	-1.99615000E-02	 4.88430000E-03
		 4.14417000E-03	-2.57430000E-02	-5.34996000E-03
		 4.18438000E-03	-2.38007000E-02	-5.45652000E-03
		 3.39196000E-03	-1.98399000E-02	-4.86067000E-03
		 2.21622000E-03	-2.57085000E-02	-2.52457000E-03
		 4.30071000E-04	-2.90421000E-02	-7.67256000E-06
		-4.09723000E-03	-2.88890000E-02	 5.25325000E-03
		 4.58348000E-04	-3.36954000E-02	 3.44754000E-05
		-4.35726000E-03	-3.40151000E-02	 5.32631000E-03
		 3.01593000E-04	-2.32165000E-02	-8.58060000E-06
		-1.82942000E-03	-2.89853000E-02	 2.53306000E-03
		-4.16391000E-03	-2.32624000E-02	 5.50806000E-03
		 4.45724000E-04	-3.13101000E-02	 1.43178000E-05
		-4.21830000E-03	-3.13455000E-02	 5.31896000E-03
		 3.25420000E-04	-2.77024000E-02	-2.60117000E-05
		-1.82761000E-03	-3.38621000E-02	 2.61417000E-03
		-4.17673000E-03	-2.77148000E-02	 5.60031000E-03
		 4.78743000E-03	-2.88881000E-02	-5.26762000E-03
		 4.97758000E-03	-3.34025000E-02	-5.25504000E-03
		 4.74040000E-03	-2.31229000E-02	-5.52124000E-03
		 2.60370000E-03	-2.89933000E-02	-2.54726000E-03
		 4.88700000E-03	-3.11209000E-02	-5.28980000E-03
		 4.76182000E-03	-2.75922000E-02	-5.54668000E-03
		 2.70697000E-03	-3.35492000E-02	-2.54523000E-03
		 3.45002000E-04	-3.85636000E-02	 7.45359000E-05
		-4.51030000E-03	-3.92501000E-02	 5.33711000E-03
		 4.03768000E-04	-3.60701000E-02	 5.38857000E-05
		-4.43225000E-03	-3.70923000E-02	 5.34129000E-03
		 3.21119000E-04	-3.22108000E-02	-6.91193000E-05
		-2.19935000E-03	-3.89003000E-02	 2.63241000E-03
		-4.06828000E-03	-3.21117000E-02	 5.58172000E-03
		 5.20482000E-03	-3.81258000E-02	-5.18385000E-03