<?xml version="1.0"?>
<VTKFile type="UnstructuredGrid" version="0.1" byte_order="LittleEndian">
	<UnstructuredGrid>
		<Piece NumberOfPoints="522" NumberOfCells="64">
			<Points>
				<DataArray type="Float64" NumberOfComponents="3" format="ascii">
					 1.00000000E+00	 1.00000000E+00	-5.96046000E-08
					 1.00000000E+00	 5.00000000E-01	-5.96046000E-08
					 1.00000000E+00	 5.00000000E-01	 1.00000000E+00
					 1.00000000E+00	 1.00000000E+00	 1.00000000E+00
					 5.00000000E-01	 1.00000000E+00	-5.96046000E-08
					 5.00000000E-01	 5.00000000E-01	-5.96046000E-08
					 5.00000000E-01	 5.00000000E-01	 1.00000000E+00
					 5.00000000E-01	 1.00000000E+00	 1.00000000E+00
					 1.00000000E+00	 7.50000000E-01	-5.96046000E-08
					 1.00000000E+00	 5.00000000E-01	 5.00000000E-01
					 1.00000000E+00	 7.50000000E-01	 1.00000000E+00
					 1.00000000E+00	 1.00000000E+00	 5.00000000E-01
					 7.50000000E-01	 1.00000000E+00	-5.96046000E-08
					 7.50000000E-01	 5.00000000E-01	-5.96046000E-08
					 7.50000000E-01	 5.00000000E-01	 1.00000000E+00
					 7.50000000E-01	 1.00000000E+00	 1.00000000E+00
					 5.00000000E-01	 7.50000000E-01	-5.96046000E-08
					 5.00000000E-01	 5.00000000E-01	 5.00000000E-01
					 5.00000000E-01	 7.50000000E-01	 1.00000000E+00
					 5.00000000E-01	 1.00000000E+00	 5.00000000E-01
					 1.00000000E+00	-1.49012000E-08	-5.96046000E-08
					 1.00000000E+00	-1.49012000E-08	 1.00000000E+00
					 5.00000000E-01	-1.49012000E-08	-5.96046000E-08
					 5.00000000E-01	-1.49012000E-08	 1.00000000E+00
					 1.00000000E+00	 2.50000000E-01	-5.96046000E-08
					 1.00000000E+00	-1.49012000E-08	 5.00000000E-01
					 1.00000000E+00	 2.50000000E-01	 1.00000000E+00
					 7.50000000E-01	-1.49012000E-08	-5.96046000E-08
					 7.50000000E-01	-1.49012000E-08	 1.00000000E+00
					 5.00000000E-01	 2.50000000E-01	-5.96046000E-08
					 5.00000000E-01	-1.49012000E-08	 5.00000000E-01
					 5.00000000E-01	 2.50000000E-01	 1.00000000E+00
					-7.45058000E-09	 1.00000000E+00	-5.96046000E-08
					-7.45058000E-09	 5.00000000E-01	-5.96046000E-08
					-7.45058000E-09	 5.00000000E-01	 1.00000000E+00
					-7.45058000E-09	 1.00000000E+00	 1.00000000E+00
					 2.50000000E-01	 1.00000000E+00	-5.96046000E-08
					 2.50000000E-01	 5.00000000E-01	-5.96046000E-08
					 2.50000000E-01	 5.00000000E-01	 1.00000000E+00
					 2.50000000E-01	 1.00000000E+00	 1.00000000E+00
					-7.45058000E-09	 7.50000000E-01	-5.96046000E-08
					-7.45058000E-09	 5.00000000E-01	 5.00000000E-01
					-7.45058000E-09	 7.50000000E-01	 1.00000000E+00
					-7.45058000E-09	 1.00000000E+00	 5.00000000E-01
					-7.45058000E-09	-1.49012000E-08	-5.96046000E-08
					-7.45058000E-09	-1.49012000E-08	 1.00000000E+00
					 2.50000000E-01	-1.49012000E-08	-5.96046000E-08
					 2.50000000E-01	-1.49012000E-08	 1.00000000E+00
					-7.45058000E-09	 2.50000000E-01	-5.96046000E-08
					-7.45058000E-09	-1.49012000E-08	 5.00000000E-01
					-7.45058000E-09	 2.50000000E-01	 1.00000000E+00
					 1.00000000E+00	 5.00000000E-01	 2.00000000E+00
					 1.00000000E+00	 1.00000000E+00	 2.00000000E+00
					 5.00000000E-01	 5.00000000E-01	 2.00000000E+00
					 5.00000000E-01	 1.00000000E+00	 2.00000000E+00
					 1.00000000E+00	 5.00000000E-01	 1.50000000E+00
					 1.00000000E+00	 7.50000000E-01	 2.00000000E+00
					 1.00000000E+00	 1.00000000E+00	 1.50000000E+00
					 7.50000000E-01	 5.00000000E-01	 2.00000000E+00
					 7.50000000E-01	 1.00000000E+00	 2.00000000E+00
					 5.00000000E-01	 5.00000000E-01	 1.50000000E+00
					 5.00000000E-01	 7.50000000E-01	 2.00000000E+00
					 5.00000000E-01	 1.00000000E+00	 1.50000000E+00
					 1.00000000E+00	-1.49012000E-08	 2.00000000E+00
					 5.00000000E-01	-1.49012000E-08	 2.00000000E+00
					 1.00000000E+00	-1.49012000E-08	 1.50000000E+00
					 1.00000000E+00	 2.50000000E-01	 2.00000000E+00
					 7.50000000E-01	-1.49012000E-08	 2.00000000E+00
					 5.00000000E-01	-1.49012000E-08	 1.50000000E+00
					 5.00000000E-01	 2.50000000E-01	 2.00000000E+00
					-7.45058000E-09	 5.00000000E-01	 2.00000000E+00
					-7.45058000E-09	 1.00000000E+00	 2.00000000E+00
					 2.50000000E-01	 5.00000000E-01	 2.00000000E+00
					 2.50000000E-01	 1.00000000E+00	 2.00000000E+00
					-7.45058000E-09	 5.00000000E-01	 1.50000000E+00
					-7.45058000E-09	 7.50000000E-01	 2.00000000E+00
					-7.45058000E-09	 1.00000000E+00	 1.50000000E+00
					-7.45058000E-09	-1.49012000E-08	 2.00000000E+00
					 2.50000000E-01	-1.49012000E-08	 2.00000000E+00
					-7.45058000E-09	-1.49012000E-08	 1.50000000E+00
					-7.45058000E-09	 2.50000000E-01	 2.00000000E+00
					 1.00000000E+00	 5.00000000E-01	 3.00000000E+00
					 1.00000000E+00	 1.00000000E+00	 3.00000000E+00
					 5.00000000E-01	 5.00000000E-01	 3.00000000E+00
					 5.00000000E-01	 1.00000000E+00	 3.00000000E+00
					 1.00000000E+00	 5.00000000E-01	 2.50000000E+00
					 1.00000000E+00	 7.50000000E-01	 3.00000000E+00
					 1.00000000E+00	 1.00000000E+00	 2.50000000E+00
					 7.50000000E-01	 5.00000000E-01	 3.00000000E+00
					 7.50000000E-01	 1.00000000E+00	 3.00000000E+00
					 5.00000000E-01	 5.00000000E-01	 2.50000000E+00
					 5.00000000E-01	 7.50000000E-01	 3.00000000E+00
					 5.00000000E-01	 1.00000000E+00	 2.50000000E+00
					 1.00000000E+00	-1.49012000E-08	 3.00000000E+00
					 5.00000000E-01	-1.49012000E-08	 3.00000000E+00
					 1.00000000E+00	-1.49012000E-08	 2.50000000E+00
					 1.00000000E+00	 2.50000000E-01	 3.00000000E+00
					 7.50000000E-01	-1.49012000E-08	 3.00000000E+00
					 5.00000000E-01	-1.49012000E-08	 2.50000000E+00
					 5.00000000E-01	 2.50000000E-01	 3.00000000E+00
					-7.45058000E-09	 5.00000000E-01	 3.00000000E+00
					-7.45058000E-09	 1.00000000E+00	 3.00000000E+00
					 2.50000000E-01	 5.00000000E-01	 3.00000000E+00
					 2.50000000E-01	 1.00000000E+00	 3.00000000E+00
					-7.45058000E-09	 5.00000000E-01	 2.50000000E+00
					-7.45058000E-09	 7.50000000E-01	 3.00000000E+00
					-7.45058000E-09	 1.00000000E+00	 2.50000000E+00
					-7.45058000E-09	-1.49012000E-08	 3.00000000E+00
					 2.50000000E-01	-1.49012000E-08	 3.00000000E+00
					-7.45058000E-09	-1.49012000E-08	 2.50000000E+00
					-7.45058000E-09	 2.50000000E-01	 3.00000000E+00
					 1.00000000E+00	 5.00000000E-01	 4.00000000E+00
					 1.00000000E+00	 1.00000000E+00	 4.00000000E+00
					 5.00000000E-01	 5.00000000E-01	 4.00000000E+00
					 5.00000000E-01	 1.00000000E+00	 4.00000000E+00
					 1.00000000E+00	 5.00000000E-01	 3.50000000E+00
					 1.00000000E+00	 7.50000000E-01	 4.00000000E+00
					 1.00000000E+00	 1.00000000E+00	 3.50000000E+00
					 7.50000000E-01	 5.00000000E-01	 4.00000000E+00
					 7.50000000E-01	 1.00000000E+00	 4.00000000E+00
					 5.00000000E-01	 5.00000000E-01	 3.50000000E+00
					 5.00000000E-01	 7.50000000E-01	 4.00000000E+00
					 5.00000000E-01	 1.00000000E+00	 3.50000000E+00
					 1.00000000E+00	-1.49012000E-08	 4.00000000E+00
					 5.00000000E-01	-1.49012000E-08	 4.00000000E+00
					 1.00000000E+00	-1.49012000E-08	 3.50000000E+00
					 1.00000000E+00	 2.50000000E-01	 4.00000000E+00
					 7.50000000E-01	-1.49012000E-08	 4.00000000E+00
					 5.00000000E-01	-1.49012000E-08	 3.50000000E+00
					 5.00000000E-01	 2.50000000E-01	 4.00000000E+00
					-7.45058000E-09	 5.00000000E-01	 4.00000000E+00
					-7.45058000E-09	 1.00000000E+00	 4.00000000E+00
					 2.50000000E-01	 5.00000000E-01	 4.00000000E+00
					 2.50000000E-01	 1.00000000E+00	 4.00000000E+00
					-7.45058000E-09	 5.00000000E-01	 3.50000000E+00
					-7.45058000E-09	 7.50000000E-01	 4.00000000E+00
					-7.45058000E-09	 1.00000000E+00	 3.50000000E+00
					-7.45058000E-09	-1.49012000E-08	 4.00000000E+00
					 2.50000000E-01	-1.49012000E-08	 4.00000000E+00
					-7.45058000E-09	-1.49012000E-08	 3.50000000E+00
					-7.45058000E-09	 2.50000000E-01	 4.00000000E+00
					 1.00000000E+00	 5.00000000E-01	 5.00000000E+00
					 1.00000000E+00	 1.00000000E+00	 5.00000000E+00
					 5.00000000E-01	 5.00000000E-01	 5.00000000E+00
					 5.00000000E-01	 1.00000000E+00	 5.00000000E+00
					 1.00000000E+00	 5.00000000E-01	 4.50000000E+00
					 1.00000000E+00	 7.50000000E-01	 5.00000000E+00
					 1.00000000E+00	 1.00000000E+00	 4.50000000E+00
					 7.50000000E-01	 5.00000000E-01	 5.00000000E+00
					 7.50000000E-01	 1.00000000E+00	 5.00000000E+00
					 5.00000000E-01	 5.00000000E-01	 4.50000000E+00
					 5.00000000E-01	 7.50000000E-01	 5.00000000E+00
					 5.00000000E-01	 1.00000000E+00	 4.50000000E+00
					 1.00000000E+00	-1.49012000E-08	 5.00000000E+00
					 5.00000000E-01	-1.49012000E-08	 5.00000000E+00
					 1.00000000E+00	-1.49012000E-08	 4.50000000E+00
					 1.00000000E+00	 2.50000000E-01	 5.00000000E+00
					 7.50000000E-01	-1.49012000E-08	 5.00000000E+00
					 5.00000000E-01	-1.49012000E-08	 4.50000000E+00
					 5.00000000E-01	 2.50000000E-01	 5.00000000E+00
					-7.45058000E-09	 5.00000000E-01	 5.00000000E+00
					-7.45058000E-09	 1.00000000E+00	 5.00000000E+00
					 2.50000000E-01	 5.00000000E-01	 5.00000000E+00
					 2.50000000E-01	 1.00000000E+00	 5.00000000E+00
					-7.45058000E-09	 5.00000000E-01	 4.50000000E+00
					-7.45058000E-09	 7.50000000E-01	 5.00000000E+00
					-7.45058000E-09	 1.00000000E+00	 4.50000000E+00
					-7.45058000E-09	-1.49012000E-08	 5.00000000E+00
					 2.50000000E-01	-1.49012000E-08	 5.00000000E+00
					-7.45058000E-09	-1.49012000E-08	 4.50000000E+00
					-7.45058000E-09	 2.50000000E-01	 5.00000000E+00
					 1.00000000E+00	 5.00000000E-01	 6.00000000E+00
					 1.00000000E+00	 1.00000000E+00	 6.00000000E+00
					 5.00000000E-01	 5.00000000E-01	 6.00000000E+00
					 5.00000000E-01	 1.00000000E+00	 6.00000000E+00
					 1.00000000E+00	 5.00000000E-01	 5.50000000E+00
					 1.00000000E+00	 7.50000000E-01	 6.00000000E+00
					 1.00000000E+00	 1.00000000E+00	 5.50000000E+00
					 7.50000000E-01	 5.00000000E-01	 6.00000000E+00
					 7.50000000E-01	 1.00000000E+00	 6.00000000E+00
					 5.00000000E-01	 5.00000000E-01	 5.50000000E+00
					 5.00000000E-01	 7.50000000E-01	 6.00000000E+00
					 5.00000000E-01	 1.00000000E+00	 5.50000000E+00
					 1.00000000E+00	-1.49012000E-08	 6.00000000E+00
[...]
			<PointData>
				<DataArray type="Float32" Name="U" NumberOfComponents="3" ComponentName0="D1" ComponentName1="D2" ComponentName2="D3" format="ascii">
					 0.00000000E+00	 0.00000000E+00	 0.00000000E+00
					 0.00000000E+00	 0.00000000E+00	 0.00000000E+00
					 8.48945000E-06	-1.43116000E-03	 2.55166000E-05
					-1.57534000E-03	-1.64437000E-03	 2.88390000E-03
					 0.00000000E+00	 0.00000000E+00	 0.00000000E+00
					 0.00000000E+00	 0.00000000E+00	 0.00000000E+00
					 1.37098000E-05	-2.80088000E-03	 2.24322000E-05
					-1.14828000E-03	-3.02158000E-03	 2.90357000E-03
					 0.00000000E+00	 0.00000000E+00	 0.00000000E+00
					 8.07721000E-07	 1.52585000E-04	 1.13249000E-05
					-7.85861000E-04	-1.46856000E-03	 1.54923000E-03
					-9.88558000E-04	-1.21569000E-04	 1.38680000E-03
					 0.00000000E+00	 0.00000000E+00	 0.00000000E+00
					 0.00000000E+00	 0.00000000E+00	 0.00000000E+00
					 1.15324000E-05	-2.18485000E-03	 2.45534000E-05
					-1.35852000E-03	-2.39849000E-03	 2.78609000E-03
					 0.00000000E+00	 0.00000000E+00	 0.00000000E+00
					 4.55459000E-06	-6.23543000E-04	 1.17312000E-05
					-5.66462000E-04	-2.83852000E-03	 1.44824000E-03
					-5.74600000E-04	-8.75934000E-04	 1.34080000E-03
					 0.00000000E+00	 0.00000000E+00	 0.00000000E+00
					 1.59209000E-03	-1.60972000E-03	-2.83744000E-03
					 0.00000000E+00	 0.00000000E+00	 0.00000000E+00
					 1.17812000E-03	-2.98967000E-03	-2.86253000E-03
					 0.00000000E+00	 0.00000000E+00	 0.00000000E+00
					 9.90825000E-04	-1.02639000E-04	-1.36297000E-03
					 8.02684000E-04	-1.44957000E-03	-1.50031000E-03
					 0.00000000E+00	 0.00000000E+00	 0.00000000E+00
					 1.38271000E-03	-2.36558000E-03	-2.74095000E-03
					 0.00000000E+00	 0.00000000E+00	 0.00000000E+00
					 5.86421000E-04	-8.58879000E-04	-1.31555000E-03
					 5.94557000E-04	-2.82191000E-03	-1.40489000E-03
					 0.00000000E+00	 0.00000000E+00	 0.00000000E+00
					 0.00000000E+00	 0.00000000E+00	 0.00000000E+00
					 1.71557000E-05	-3.75749000E-03	 2.15386000E-05
					-7.12626000E-04	-3.95547000E-03	 2.87951000E-03
					 0.00000000E+00	 0.00000000E+00	 0.00000000E+00
					 0.00000000E+00	 0.00000000E+00	 0.00000000E+00
					 1.53471000E-05	-3.34584000E-03	 2.06374000E-05
					-9.32141000E-04	-3.55886000E-03	 2.98834000E-03
					 0.00000000E+00	 0.00000000E+00	 0.00000000E+00
					 8.23253000E-06	-1.00919000E-03	 1.44628000E-05
					-3.49660000E-04	-3.78474000E-03	 1.33788000E-03
					-1.17468000E-04	-1.23664000E-03	 1.38917000E-03
					 0.00000000E+00	 0.00000000E+00	 0.00000000E+00
					 7.51789000E-04	-3.92997000E-03	-2.83862000E-03
					 0.00000000E+00	 0.00000000E+00	 0.00000000E+00
					 9.66549000E-04	-3.52850000E-03	-2.95030000E-03
					 0.00000000E+00	 0.00000000E+00	 0.00000000E+00
					 1.38315000E-04	-1.22318000E-03	-1.35882000E-03
					 3.85395000E-04	-3.77312000E-03	-1.29535000E-03
					 1.61226000E-05	-9.34001000E-03	 3.16245000E-05
					-2.48186000E-03	-9.53711000E-03	 5.59332000E-03
					 2.79740000E-05	-1.16457000E-02	 8.81499000E-06
					-2.10974000E-03	-1.18576000E-02	 5.58608000E-03
					 1.45121000E-05	-4.61355000E-03	 3.43444000E-05
					-1.22825000E-03	-9.39542000E-03	 2.82010000E-03
					-2.09892000E-03	-4.82877000E-03	 4.32127000E-03
					 2.27413000E-05	-1.05330000E-02	 1.93173000E-05
					-2.29646000E-03	-1.07428000E-02	 5.54669000E-03
					 2.23482000E-05	-6.51029000E-03	 2.13749000E-05
					-1.04225000E-03	-1.17095000E-02	 2.76159000E-03
					-1.67394000E-03	-6.73826000E-03	 4.31928000E-03
					 2.51067000E-03	-9.45542000E-03	-5.53554000E-03
					 2.16189000E-03	-1.17755000E-02	-5.57402000E-03
					 2.12481000E-03	-4.77364000E-03	-4.25897000E-03
					 1.25910000E-03	-9.35564000E-03	-2.75811000E-03
					 2.33800000E-03	-1.06615000E-02	-5.51354000E-03
					 1.71730000E-03	-6.68403000E-03	-4.28142000E-03
					 1.09626000E-03	-1.16691000E-02	-2.74517000E-03
					 3.46084000E-05	-1.36112000E-02	-9.15504000E-06
					-1.75709000E-03	-1.38235000E-02	 5.55067000E-03
					 3.21218000E-05	-1.26709000E-02	-5.10523000E-07
					-1.93307000E-03	-1.28823000E-02	 5.63033000E-03
					 2.67943000E-05	-8.00447000E-03	 1.30065000E-05
					-8.61145000E-04	-1.36757000E-02	 2.67307000E-03
					-1.27279000E-03	-8.23863000E-03	 4.29980000E-03
					 1.82409000E-03	-1.37412000E-02	-5.57431000E-03
					 1.99368000E-03	-1.27990000E-02	-5.63678000E-03
					 1.32779000E-03	-8.18706000E-03	-4.27677000E-03
					 9.29589000E-04	-1.36353000E-02	-2.69252000E-03
					 1.79699000E-05	-2.25641000E-02	-1.69299000E-05
					-2.82878000E-03	-2.26732000E-02	 7.12556000E-03
					 3.19033000E-05	-2.53606000E-02	-5.71633000E-05
					-2.71760000E-03	-2.54712000E-02	 7.11671000E-03
					 1.75241000E-05	-1.54521000E-02	 1.41364000E-05
					-1.40577000E-03	-2.26050000E-02	 3.50447000E-03
					-2.71564000E-03	-1.56118000E-02	 6.56190000E-03
					 2.51246000E-05	-2.39751000E-02	-3.75134000E-05
					-2.77311000E-03	-2.40851000E-02	 7.10825000E-03
					 3.06947000E-05	-1.80544000E-02	-1.74709000E-05
					-1.34361000E-03	-2.54020000E-02	 3.46324000E-03
					-2.45531000E-03	-1.82217000E-02	 6.55749000E-03
					 2.86592000E-03	-2.25456000E-02	-7.16125000E-03
					 2.78142000E-03	-2.53464000E-02	-7.23371000E-03
					 2.74897000E-03	-1.55039000E-02	-6.53745000E-03
					 1.44185000E-03	-2.25431000E-02	-3.53903000E-03
					 2.82403000E-03	-2.39592000E-02	-7.18483000E-03
					 2.51414000E-03	-1.81145000E-02	-6.59770000E-03
					 1.40703000E-03	-2.53419000E-02	-3.57820000E-03
					 4.30580000E-05	-2.80606000E-02	-9.55229000E-05
					-2.61630000E-03	-2.81743000E-02	 7.04556000E-03
					 3.79696000E-05	-2.67233000E-02	-7.64312000E-05
					-2.66683000E-03	-2.68348000E-02	 7.13132000E-03
					 3.93909000E-05	-2.04200000E-02	-4.56781000E-05
					-1.28578000E-03	-2.81032000E-02	 3.36192000E-03
					-2.20945000E-03	-2.05893000E-02	 6.49895000E-03
					 2.70152000E-03	-2.80516000E-02	-7.24010000E-03
					 2.74197000E-03	-2.67101000E-02	-7.28779000E-03
					 2.28594000E-03	-2.04828000E-02	-6.59672000E-03
					 1.37157000E-03	-2.80453000E-02	-3.55369000E-03
					 1.30731000E-05	-3.72603000E-02	-9.42772000E-05
					-2.91609000E-03	-3.72594000E-02	 6.76295000E-03
					 2.65008000E-05	-4.02700000E-02	-1.43299000E-04
					-3.04371000E-03	-4.02600000E-02	 6.72557000E-03
					 1.70953000E-05	-3.00504000E-02	-5.57450000E-05
					-1.45454000E-03	-3.72809000E-02	 3.32526000E-03
					-2.87134000E-03	-3.01029000E-02	 7.12597000E-03
					 1.92845000E-05	-3.87466000E-02	-1.17970000E-04
					-2.98089000E-03	-3.87381000E-02	 6.73420000E-03
					 3.15436000E-05	-3.29653000E-02	-1.01963000E-04
					-1.50846000E-03	-4.02868000E-02	 3.27033000E-03
					-2.90130000E-03	-3.30135000E-02	 7.10631000E-03
					 2.94426000E-03	-3.71396000E-02	-6.94791000E-03
					 3.09766000E-03	-4.01416000E-02	-7.00831000E-03
					 2.90843000E-03	-2.99740000E-02	-7.23674000E-03
					 1.48122000E-03	-3.72212000E-02	-3.51250000E-03
					 3.02140000E-03	-3.86198000E-02	-6.96662000E-03
					 2.96553000E-03	-3.28877000E-02	-7.30955000E-03
					 1.56193000E-03	-4.02287000E-02	-3.55590000E-03
					 4.05045000E-05	-4.34011000E-02	-1.97631000E-04
					-3.16930000E-03	-4.33980000E-02	 6.66024000E-03
					 3.38098000E-05	-4.18168000E-02	-1.70037000E-04
					-3.10550000E-03	-4.18086000E-02	 6.71550000E-03
					 4.49389000E-05	-3.59154000E-02	-1.49164000E-04
					-1.56197000E-03	-4.34198000E-02	 3.18933000E-03
					-2.93840000E-03	-3.59719000E-02	 7.03310000E-03
					 3.25033000E-03	-4.32795000E-02	-7.05180000E-03
					 3.17330000E-03	-4.16896000E-02	-7.05190000E-03
					 3.02809000E-03	-3.58473000E-02	-7.33111000E-03
					 1.64312000E-03	-4.33622000E-02	-3.58353000E-03
					-1.23433000E-05	-4.95325000E-02	-1.53353000E-04
					-3.35745000E-03	-4.95239000E-02	 5.71400000E-03
					-4.33724000E-06	-5.29397000E-02	-2.07761000E-04
					-3.47222000E-03	-5.29315000E-02	 5.65217000E-03
					 3.59714000E-06	-4.37551000E-02	-1.26858000E-04
					-1.68557000E-03	-4.95458000E-02	 2.84912000E-03
					-3.07434000E-03	-4.37518000E-02	 6.22549000E-03
					-7.44608000E-06	-5.12210000E-02	-1.80564000E-04
					-3.41442000E-03	-5.12111000E-02	 5.63487000E-03
					 1.36039000E-05	-4.69175000E-02	-1.78031000E-04
					-1.73796000E-03	-5.29532000E-02	 2.74431000E-03
					-3.21881000E-03	-4.69047000E-02	 6.17297000E-03
					 3.32563000E-03	-4.94267000E-02	-6.01711000E-03
					 3.46388000E-03	-5.28259000E-02	-6.06346000E-03
					 3.07925000E-03	-4.36452000E-02	-6.47463000E-03
					 1.65905000E-03	-4.94946000E-02	-3.15446000E-03
					 3.39484000E-03	-5.11092000E-02	-5.99284000E-03
					 3.24688000E-03	-4.67947000E-02	-6.52418000E-03
					 1.72961000E-03	-5.28979000E-02	-3.15879000E-03
					 5.86004000E-06	-5.64670000E-02	-2.66491000E-04
					-3.58233000E-03	-5.64563000E-02	 5.60078000E-03
					-6.91595000E-07	-5.46872000E-02	-2.36036000E-04
					-3.52771000E-03	-5.46797000E-02	 5.66341000E-03
					 2.55846000E-05	-5.02200000E-02	-2.36444000E-04
					-1.78922000E-03	-5.64774000E-02	 2.65200000E-03
					-3.35013000E-03	-5.02055000E-02	 6.11588000E-03
					 3.60160000E-03	-5.63566000E-02	-6.12906000E-03
					 3.53177000E-03	-5.45743000E-02	-6.13100000E-03
					 3.40510000E-03	-5.00980000E-02	-6.58395000E-03
					 1.80298000E-03	-5.64278000E-02	-3.18357000E-03
					-5.18444000E-05	-5.98438000E-02	-1.94981000E-04
					-4.02374000E-03	-5.98634000E-02	 5.17117000E-03
					-3.76441000E-05	-6.38157000E-02	-2.52579000E-04
					-4.03393000E-03	-6.38508000E-02	 5.10731000E-03
					-3.24630000E-05	-5.47824000E-02	-1.75068000E-04
					-2.03440000E-03	-5.98569000E-02	 2.53529000E-03
					-3.71436000E-03	-5.47874000E-02	 5.37269000E-03
					-4.37629000E-05	-6.18252000E-02	-2.24199000E-04
					-4.02868000E-03	-6.18561000E-02	 5.10473000E-03
					-2.22953000E-05	-5.84920000E-02	-2.32179000E-04
					-2.03654000E-03	-6.38372000E-02	 2.44088000E-03
					-3.77272000E-03	-5.85057000E-02	 5.30561000E-03
					 3.90743000E-03	-5.97747000E-02	-5.56608000E-03
					 3.95281000E-03	-6.37478000E-02	-5.61700000E-03
					 3.63925000E-03	-5.46939000E-02	-5.72335000E-03
					 1.92696000E-03	-5.98114000E-02	-2.92689000E-03
					 3.93045000E-03	-6.17592000E-02	-5.55799000E-03
					 3.72573000E-03	-5.84007000E-02	-5.76906000E-03
					 1.95922000E-03	-6.37831000E-02	-2.94740000E-03
					-2.34326000E-05	-6.78284000E-02	-3.06225000E-04
					-4.05647000E-03	-6.78671000E-02	 5.05927000E-03
					-3.15934000E-05	-6.58185000E-02	-2.79868000E-04
					-4.04661000E-03	-6.58545000E-02	 5.11101000E-03
					-1.12009000E-05	-6.22793000E-02	-2.88963000E-04
					-2.03936000E-03	-6.78521000E-02	 2.36106000E-03
					-3.83529000E-03	-6.22923000E-02	 5.25922000E-03
					 4.01119000E-03	-6.77635000E-02	-5.67567000E-03
					 3.98226000E-03	-6.57498000E-02	-5.67400000E-03
					 3.81879000E-03	-6.21913000E-02	-5.83474000E-03
					 1.99321000E-03	-6.77986000E-02	-2.97542000E-03
					-7.20946000E-05	-7.02751000E-02	-2.46113000E-04
					-4.14632000E-03	-7.03017000E-02	 4.99277000E-03
					-5.12040000E-05	-7.43486000E-02	-2.93992000E-04
					-4.13920000E-03	-7.43836000E-02	 4.94570000E-03
					-6.62034000E-05	-6.49907000E-02	-2.18265000E-04
					-2.10766000E-03	-7.02883000E-02	 2.35457000E-03
					-4.17675000E-03	-6.50083000E-02	 5.07002000E-03
					-6.19253000E-05	-7.23095000E-02	-2.69309000E-04
					-4.14375000E-03	-7.23424000E-02	 4.98691000E-03
					-4.74098000E-05	-6.90910000E-02	-2.72668000E-04
					-2.09598000E-03	-7.43672000E-02	 2.32432000E-03
					-4.16534000E-03	-6.91269000E-02	 5.01372000E-03
					 3.99403000E-03	-7.02226000E-02	-5.48129000E-03
					 4.03490000E-03	-7.42960000E-02	-5.53127000E-03
					 4.03437000E-03	-6.49248000E-02	-5.51174000E-03
					 1.96140000E-03	-7.02525000E-02	-2.84454000E-03
					 4.01296000E-03	-7.22570000E-02	-5.52238000E-03
					 4.06502000E-03	-6.90322000E-02	-5.56551000E-03
					 1.99288000E-03	-7.43247000E-02	-2.91070000E-03
					-3.07184000E-05	-7.84465000E-02	-3.44026000E-04
					-4.13830000E-03	-7.84814000E-02	 4.89725000E-03
					-4.05715000E-05	-7.63950000E-02	-3.19940000E-04
					-4.13842000E-03	-7.64297000E-02	 4.90389000E-03
					-2.89531000E-05	-7.32173000E-02	-3.22192000E-04
					-2.08479000E-03	-7.84647000E-02	 2.29237000E-03
					-4.17568000E-03	-7.32631000E-02	 4.96491000E-03
					 4.08187000E-03	-7.83985000E-02	-5.58407000E-03
					 4.06048000E-03	-7.63433000E-02	-5.54356000E-03
					 4.11686000E-03	-7.31656000E-02	-5.61690000E-03
					 2.02465000E-03	-7.84257000E-02	-2.97793000E-03
					-5.86449000E-05	-8.07941000E-02	-3.02029000E-04
					-3.96719000E-03	-8.08524000E-02	 4.86564000E-03
					-6.40999000E-05	-8.47058000E-02	-3.38708000E-04
					-3.97666000E-03	-8.47681000E-02	 4.83067000E-03
					-6.90401000E-05	-7.55840000E-02	-2.75425000E-04
					-2.01040000E-03	-8.08253000E-02	 2.27318000E-03
					-4.03557000E-03	-7.56197000E-02	 4.91638000E-03
					-5.87959000E-05	-8.27475000E-02	-3.16926000E-04
					-3.97003000E-03	-8.28104000E-02	 4.85811000E-03
					-5.51514000E-05	-7.95504000E-02	-3.15648000E-04
					-2.01895000E-03	-8.47406000E-02	 2.24555000E-03
					-4.03129000E-03	-7.95942000E-02	 4.87836000E-03
					 3.82489000E-03	-8.07462000E-02	-5.43946000E-03
					 3.84970000E-03	-8.46385000E-02	-5.47807000E-03
					 3.88043000E-03	-7.55410000E-02	-5.44554000E-03
					 1.88629000E-03	-8.07695000E-02	-2.86779000E-03
					 3.83710000E-03	-8.26862000E-02	-5.46282000E-03
					 3.92166000E-03	-7.94992000E-02	-5.48874000E-03
					 1.89103000E-03	-8.46695000E-02	-2.91455000E-03
					-6.92400000E-05	-8.86328000E-02	-4.04583000E-04
					-3.96623000E-03	-8.86735000E-02	 4.77604000E-03
					-6.91577000E-05	-8.66698000E-02	-3.68432000E-04
					-3.97315000E-03	-8.67231000E-02	 4.79554000E-03
					-4.13363000E-05	-8.35364000E-02	-3.74825000E-04
					-2.01880000E-03	-8.86552000E-02	 2.19673000E-03
					-4.02409000E-03	-8.35710000E-02	 4.82547000E-03
					 3.85507000E-03	-8.85705000E-02	-5.55444000E-03
					 3.85275000E-03	-8.66002000E-02	-5.50248000E-03
					 3.96067000E-03	-8.34951000E-02	-5.55472000E-03
					 1.88709000E-03	-8.86013000E-02	-2.99680000E-03
					 0.00000000E+00	 0.00000000E+00	 0.00000000E+00
					 0.00000000E+00	 0.00000000E+00	 0.00000000E+00
					 1.28870000E-05	-8.32434000E-03	-2.10533000E-04
					-9.97416000E-04	-8.63808000E-03	 6.52887000E-03
					 0.00000000E+00	 0.00000000E+00	 0.00000000E+00
					 0.00000000E+00	 0.00000000E+00	 0.00000000E+00
					-1.64788000E-05	-8.97580000E-03	-2.27411000E-04
					-3.21932000E-04	-9.32302000E-03	 6.62813000E-03
					 0.00000000E+00	 0.00000000E+00	 0.00000000E+00
					 2.39398000E-05	-2.17979000E-03	-8.44345000E-05
					-4.92456000E-04	-8.34041000E-03	 3.01720000E-03
					-1.13000000E-03	-2.73642000E-03	 3.57500000E-03
					 0.00000000E+00	 0.00000000E+00	 0.00000000E+00
					 0.00000000E+00	 0.00000000E+00	 0.00000000E+00
					-1.24992000E-06	-8.78211000E-03	-2.20663000E-04
					-6.52900000E-04	-9.11326000E-03	 6.56660000E-03
					 0.00000000E+00	 0.00000000E+00	 0.00000000E+00
					-6.81625000E-06	-2.75461000E-03	-8.99431000E-05
					-1.70031000E-04	-9.00227000E-03	 3.03865000E-03
					-1.38901000E-04	-3.31877000E-03	 3.49620000E-03
					 0.00000000E+00	 0.00000000E+00	 0.00000000E+00
					 1.01371000E-03	-8.59083000E-03	-6.96860000E-03
					 0.00000000E+00	 0.00000000E+00	 0.00000000E+00
					 2.88979000E-04	-9.26957000E-03	-7.10148000E-03
					 0.00000000E+00	 0.00000000E+00	 0.00000000E+00
					 1.17619000E-03	-2.74360000E-03	-3.76245000E-03
					 5.14485000E-04	-8.31885000E-03	-3.44141000E-03
					 0.00000000E+00	 0.00000000E+00	 0.00000000E+00
					 6.45826000E-04	-9.06049000E-03	-7.02807000E-03
					 0.00000000E+00	 0.00000000E+00	 0.00000000E+00
					 1.28505000E-04	-3.33081000E-03	-3.69339000E-03
					 1.35537000E-04	-8.97712000E-03	-3.49823000E-03
					 0.00000000E+00	 0.00000000E+00	 0.00000000E+00
					 0.00000000E+00	 0.00000000E+00	 0.00000000E+00
					-4.51425000E-05	-8.93382000E-03	-2.32312000E-04
					 3.60922000E-04	-9.24472000E-03	 6.51221000E-03
					 0.00000000E+00	 0.00000000E+00	 0.00000000E+00
					 0.00000000E+00	 0.00000000E+00	 0.00000000E+00
					-3.09506000E-05	-9.08644000E-03	-2.30914000E-04
					 1.32096000E-05	-9.41253000E-03	 6.62498000E-03
					 0.00000000E+00	 0.00000000E+00	 0.00000000E+00
					-3.84131000E-05	-2.44550000E-03	-9.68920000E-05
					 1.57377000E-04	-8.94767000E-03	 2.93169000E-03
					 8.63042000E-04	-2.98663000E-03	 3.56360000E-03
					 0.00000000E+00	 0.00000000E+00	 0.00000000E+00
					-4.45420000E-04	-9.19159000E-03	-6.99020000E-03
					 0.00000000E+00	 0.00000000E+00	 0.00000000E+00
					-7.32833000E-05	-9.36203000E-03	-7.10185000E-03
					 0.00000000E+00	 0.00000000E+00	 0.00000000E+00
					-9.34201000E-04	-3.00130000E-03	-3.77601000E-03
					-2.45031000E-04	-8.92522000E-03	-3.39947000E-03
					 6.42388000E-06	-2.67856000E-02	-5.99955000E-04
					-1.10054000E-03	-2.69645000E-02	 9.36986000E-03
					-2.44251000E-05	-2.77841000E-02	-6.04249000E-04
					-9.14168000E-04	-2.79602000E-02	 9.41179000E-03
					 6.01816000E-06	-1.68130000E-02	-3.82806000E-04
					-5.51350000E-04	-2.68596000E-02	 4.32937000E-03
					-1.01693000E-03	-1.71328000E-02	 8.38619000E-03
					-9.81109000E-06	-2.73024000E-02	-6.05301000E-04
					-1.00775000E-03	-2.74724000E-02	 9.36144000E-03
					-2.60223000E-05	-1.76053000E-02	-3.97139000E-04
					-4.61484000E-04	-2.78576000E-02	 4.32077000E-03
					-5.81078000E-04	-1.79183000E-02	 8.43435000E-03
					 1.10379000E-03	-2.68427000E-02	-1.05815000E-02
					 8.47114000E-04	-2.78260000E-02	-1.06294000E-02
					 1.01734000E-03	-1.70451000E-02	-9.17549000E-03
					 5.61455000E-04	-2.68031000E-02	-5.53312000E-03
					 9.75627000E-04	-2.73493000E-02	-1.05802000E-02
					 5.20996000E-04	-1.78178000E-02	-9.24863000E-03
					 4.11838000E-04	-2.77948000E-02	-5.52926000E-03
					-5.69729000E-05	-2.85482000E-02	-6.03636000E-04
					-6.90701000E-04	-2.87126000E-02	 9.36708000E-03
					-4.12504000E-05	-2.81796000E-02	-6.01517000E-04
					-8.01421000E-04	-2.83825000E-02	 9.46797000E-03
					-5.66896000E-05	-1.79174000E-02	-4.03112000E-04
					-3.77049000E-04	-2.86106000E-02	 4.22645000E-03
					-1.25484000E-04	-1.82272000E-02	 8.37092000E-03
					 5.87547000E-04	-2.85777000E-02	-1.05829000E-02
					 7.15778000E-04	-2.82181000E-02	-1.06819000E-02
					 1.79913000E-05	-1.81283000E-02	-9.19210000E-03
					 2.66038000E-04	-2.85481000E-02	-5.43253000E-03
					 8.88356000E-05	-4.75608000E-02	-1.09061000E-03
					-1.70406000E-03	-4.75692000E-02	 9.33341000E-03
					 5.84477000E-05	-4.93385000E-02	-1.04025000E-03
					-1.75464000E-03	-4.94601000E-02	 9.39882000E-03
					 3.13719000E-05	-3.72169000E-02	-8.41598000E-04
					-8.02721000E-04	-4.75681000E-02	 4.16142000E-03
					-1.33426000E-03	-3.73342000E-02	 9.57304000E-03
					 7.38657000E-05	-4.84498000E-02	-1.06215000E-03
					-1.73293000E-03	-4.85253000E-02	 9.28466000E-03
					-1.04797000E-06	-3.85508000E-02	-8.24592000E-04
					-8.70085000E-04	-4.94063000E-02	 4.12753000E-03
					-1.30598000E-03	-3.86757000E-02	 9.62318000E-03
					 1.83299000E-03	-4.74804000E-02	-1.14949000E-02
					 1.85659000E-03	-4.92566000E-02	-1.14941000E-02
					 1.37815000E-03	-3.72069000E-02	-1.12574000E-02
					 9.64869000E-04	-4.75252000E-02	-6.33042000E-03
					 1.84187000E-03	-4.83609000E-02	-1.14174000E-02
					 1.29171000E-03	-3.85120000E-02	-1.12746000E-02
					 9.59556000E-04	-4.93082000E-02	-6.22690000E-03
					 3.00834000E-05	-5.11610000E-02	-9.90445000E-04
					-1.88904000E-03	-5.14109000E-02	 9.42985000E-03
					 4.36409000E-05	-5.02594000E-02	-1.01769000E-03
					-1.82514000E-03	-5.03167000E-02	 9.51713000E-03
					-2.17871000E-05	-3.98112000E-02	-8.05797000E-04
					-8.96511000E-04	-5.12965000E-02	 4.05971000E-03
					-1.28838000E-03	-3.99741000E-02	 9.61171000E-03
					 1.89130000E-03	-5.10935000E-02	-1.14528000E-02
					 1.87244000E-03	-5.01652000E-02	-1.15692000E-02
					 1.19072000E-03	-3.97589000E-02	-1.12291000E-02
					 9.54339000E-04	-5.11466000E-02	-6.08387000E-03
					 3.77460000E-04	-6.71431000E-02	-1.55791000E-03
					-2.45404000E-03	-6.69905000E-02	 8.01581000E-03