# vtk DataFile Version 3.0

ASCII
DATASET UNSTRUCTURED_GRID

POINTS 522 double
	 1.00000000E+00	 1.00000000E+00	-5.96046000E-08
	 1.00000000E+00	 5.00000000E-01	-5.96046000E-08
	 1.00000000E+00	 5.00000000E-01	 1.00000000E+00
	 1.00000000E+00	 1.00000000E+00	 1.00000000E+00
	 5.00000000E-01	 1.00000000E+00	-5.96046000E-08
	 5.00000000E-01	 5.00000000E-01	-5.96046000E-08
	 5.00000000E-01	 5.00000000E-01	 1.00000000E+00
	 5.00000000E-01	 1.00000000E+00	 1.00000000E+00
	 1.00000000E+00	 7.50000000E-01	-5.96046000E-08
	 1.00000000E+00	 5.00000000E-01	 5.00000000E-01
	 1.00000000E+00	 7.50000000E-01	 1.00000000E+00
	 1.00000000E+00	 1.00000000E+00	 5.00000000E-01
	 7.50000000E-01	 1.00000000E+00	-5.96046000E-08
	 7.50000000E-01	 5.00000000E-01	-5.96046000E-08
	 7.50000000E-01	 5.00000000E-01	 1.00000000E+00
	 7.50000000E-01	 1.00000000E+00	 1.00000000E+00
	 5.00000000E-01	 7.50000000E-01	-5.96046000E-08
	 5.00000000E-01	 5.00000000E-01	 5.00000000E-01
	 5.00000000E-01	 7.50000000E-01	 1.00000000E+00
	 5.00000000E-01	 1.00000000E+00	 5.00000000E-01
	 1.00000000E+00	-1.49012000E-08	-5.96046000E-08
	 1.00000000E+00	-1.49012000E-08	 1.00000000E+00
	 5.00000000E-01	-1.49012000E-08	-5.96046000E-08
	 5.00000000E-01	-1.49012000E-08	 1.00000000E+00
	 1.00000000E+00	 2.50000000E-01	-5.96046000E-08
	 1.00000000E+00	-1.49012000E-08	 5.00000000E-01
	 1.00000000E+00	 2.50000000E-01	 1.00000000E+00
	 7.50000000E-01	-1.49012000E-08	-5.96046000E-08
	 7.50000000E-01	-1.49012000E-08	 1.00000000E+00
	 5.00000000E-01	 2.50000000E-01	-5.96046000E-08
	 5.00000000E-01	-1.49012000E-08	 5.00000000E-01
	 5.00000000E-01	 2.50000000E-01	 1.00000000E+00
	-7.45058000E-09	 1.00000000E+00	-5.96046000E-08
	-7.45058000E-09	 5.00000000E-01	-5.96046000E-08
	-7.45058000E-09	 5.00000000E-01	 1.00000000E+00
	-7.45058000E-09	 1.00000000E+00	 1.00000000E+00
	 2.50000000E-01	 1.00000000E+00	-5.96046000E-08
	 2.50000000E-01	 5.00000000E-01	-5.96046000E-08
	 2.50000000E-01	 5.00000000E-01	 1.00000000E+00
	 2.50000000E-01	 1.00000000E+00	 1.00000000E+00
	-7.45058000E-09	 7.50000000E-01	-5.96046000E-08
	-7.45058000E-09	 5.00000000E-01	 5.00000000E-01
	-7.45058000E-09	 7.50000000E-01	 1.00000000E+00
	-7.45058000E-09	 1.00000000E+00	 5.00000000E-01
	-7.45058000E-09	-1.49012000E-08	-5.96046000E-08
	-7.45058000E-09	-1.49012000E-08	 1.00000000E+00
	 2.50000000E-01	-1.49012000E-08	-5.96046000E-08
	 2.50000000E-01	-1.49012000E-08	 1.00000000E+00
	-7.45058000E-09	 2.50000000E-01	-5.96046000E-08
	-7.45058000E-09	-1.49012000E-08	 5.00000000E-01
	-7.45058000E-09	 2.50000000E-01	 1.00000000E+00
	 1.00000000E+00	 5.00000000E-01	 2.00000000E+00
	 1.00000000E+00	 1.00000000E+00	 2.00000000E+00
	 5.00000000E-01	 5.00000000E-01	 2.00000000E+00
	 5.00000000E-01	 1.00000000E+00	 2.00000000E+00
	 1.00000000E+00	 5.00000000E-01	 1.50000000E+00
	 1.00000000E+00	 7.50000000E-01	 2.00000000E+00
	 1.00000000E+00	 1.00000000E+00	 1.50000000E+00
	 7.50000000E-01	 5.00000000E-01	 2.00000000E+00
	 7.50000000E-01	 1.00000000E+00	 2.00000000E+00
	 5.00000000E-01	 5.00000000E-01	 1.50000000E+00
	 5.00000000E-01	 7.50000000E-01	 2.00000000E+00
	 5.00000000E-01	 1.00000000E+00	 1.50000000E+00
	 1.00000000E+00	-1.49012000E-08	 2.00000000E+00
	 5.00000000E-01	-1.49012000E-08	 2.00000000E+00
	 1.00000000E+00	-1.49012000E-08	 1.50000000E+00
	 1.00000000E+00	 2.50000000E-01	 2.00000000E+00
	 7.50000000E-01	-1.49012000E-08	 2.00000000E+00
	 5.00000000E-01	-1.49012000E-08	 1.50000000E+00
	 5.00000000E-01	 2.50000000E-01	 2.00000000E+00
	-7.45058000E-09	 5.00000000E-01	 2.00000000E+00
	-7.45058000E-09	 1.00000000E+00	 2.00000000E+00
	 2.50000000E-01	 5.00000000E-01	 2.00000000E+00
	 2.50000000E-01	 1.00000000E+00	 2.00000000E+00
	-7.45058000E-09	 5.00000000E-01	 1.50000000E+00
	-7.45058000E-09	 7.50000000E-01	 2.00000000E+00
	-7.45058000E-09	 1.00000000E+00	 1.50000000E+00
	-7.45058000E-09	-1.49012000E-08	 2.00000000E+00
	 2.50000000E-01	-1.49012000E-08	 2.00000000E+00
	-7.45058000E-09	-1.49012000E-08	 1.50000000E+00
	-7.45058000E-09	 2.50000000E-01	 2.00000000E+00
	 1.00000000E+00	 5.00000000E-01	 3.00000000E+00
	 1.00000000E+00	 1.00000000E+00	 3.00000000E+00
	 5.00000000E-01	 5.00000000E-01	 3.00000000E+00
	 5.00000000E-01	 1.00000000E+00	 3.00000000E+00
	 1.00000000E+00	 5.00000000E-01	 2.50000000E+00
	 1.00000000E+00	 7.50000000E-01	 3.00000000E+00
	 1.00000000E+00	 1.00000000E+00	 2.50000000E+00
	 7.50000000E-01	 5.00000000E-01	 3.00000000E+00
	 7.50000000E-01	 1.00000000E+00	 3.00000000E+00
	 5.00000000E-01	 5.00000000E-01	 2.50000000E+00
	 5.00000000E-01	 7.50000000E-01	 3.00000000E+00
	 5.00000000E-01	 1.00000000E+00	 2.50000000E+00
	 1.00000000E+00	-1.49012000E-08	 3.00000000E+00
	 5.00000000E-01	-1.49012000E-08	 3.00000000E+00
	 1.00000000E+00	-1.49012000E-08	 2.50000000E+00
	 1.00000000E+00	 2.50000000E-01	 3.00000000E+00
	 7.50000000E-01	-1.49012000E-08	 3.00000000E+00
	 5.00000000E-01	-1.49012000E-08	 2.50000000E+00
	 5.00000000E-01	 2.50000000E-01	 3.00000000E+00
	-7.45058000E-09	 5.00000000E-01	 3.00000000E+00
	-7.45058000E-09	 1.00000000E+00	 3.00000000E+00
	 2.50000000E-01	 5.00000000E-01	 3.00000000E+00
	 2.50000000E-01	 1.00000000E+00	 3.00000000E+00
	-7.45058000E-09	 5.00000000E-01	 2.50000000E+00
	-7.45058000E-09	 7.50000000E-01	 3.00000000E+00
	-7.45058000E-09	 1.00000000E+00	 2.50000000E+00
	-7.45058000E-09	-1.49012000E-08	 3.00000000E+00
	 2.50000000E-01	-1.49012000E-08	 3.00000000E+00
	-7.45058000E-09	-1.49012000E-08	 2.50000000E+00
	-7.45058000E-09	 2.50000000E-01	 3.00000000E+00
	 1.00000000E+00	 5.00000000E-01	 4.00000000E+00
	 1.00000000E+00	 1.00000000E+00	 4.00000000E+00
	 5.00000000E-01	 5.00000000E-01	 4.00000000E+00
	 5.00000000E-01	 1.00000000E+00	 4.00000000E+00
	 1.00000000E+00	 5.00000000E-01	 3.50000000E+00
	 1.00000000E+00	 7.50000000E-01	 4.00000000E+00
	 1.00000000E+00	 1.00000000E+00	 3.50000000E+00
	 7.50000000E-01	 5.00000000E-01	 4.00000000E+00
	 7.50000000E-01	 1.00000000E+00	 4.00000000E+00
	 5.00000000E-01	 5.00000000E-01	 3.50000000E+00
	 5.00000000E-01	 7.50000000E-01	 4.00000000E+00
	 5.00000000E-01	 1.00000000E+00	 3.50000000E+00
	 1.00000000E+00	-1.49012000E-08	 4.00000000E+00
	 5.00000000E-01	-1.49012000E-08	 4.00000000E+00
	 1.00000000E+00	-1.49012000E-08	 3.50000000E+00
	 1.00000000E+00	 2.50000000E-01	 4.00000000E+00
	 7.50000000E-01	-1.49012000E-08	 4.00000000E+00
	 5.00000000E-01	-1.49012000E-08	 3.50000000E+00
	 5.00000000E-01	 2.50000000E-01	 4.00000000E+00
	-7.45058000E-09	 5.00000000E-01	 4.00000000E+00
	-7.45058000E-09	 1.00000000E+00	 4.00000000E+00
	 2.50000000E-01	 5.00000000E-01	 4.00000000E+00
	 2.50000000E-01	 1.00000000E+00	 4.00000000E+00
	-7.45058000E-09	 5.00000000E-01	 3.50000000E+00
	-7.45058000E-09	 7.50000000E-01	 4.00000000E+00
	-7.45058000E-09	 1.00000000E+00	 3.50000000E+00
	-7.45058000E-09	-1.49012000E-08	 4.00000000E+00
	 2.50000000E-01	-1.49012000E-08	 4.00000000E+00
	-7.45058000E-09	-1.49012000E-08	 3.50000000E+00
	-7.45058000E-09	 2.50000000E-01	 4.00000000E+00
	 1.00000000E+00	 5.00000000E-01	 5.00000000E+00
	 1.00000000E+00	 1.00000000E+00	 5.00000000E+00
	 5.00000000E-01	 5.00000000E-01	 5.00000000E+00
	 5.00000000E-01	 1.00000000E+00	 5.00000000E+00
	 1.00000000E+00	 5.00000000E-01	 4.50000000E+00
	 1.00000000E+00	 7.50000000E-01	 5.00000000E+00
	 1.00000000E+00	 1.00000000E+00	 4.50000000E+00
	 7.50000000E-01	 5.00000000E-01	 5.00000000E+00
	 7.50000000E-01	 1.00000000E+00	 5.00000000E+00
	 5.00000000E-01	 5.00000000E-01	 4.50000000E+00
	 5.00000000E-01	 7.50000000E-01	 5.00000000E+00
	 5.00000000E-01	 1.00000000E+00	 4.50000000E+00
	 1.00000000E+00	-1.49012000E-08	 5.00000000E+00
	 5.00000000E-01	-1.49012000E-08	 5.00000000E+00
	 1.00000000E+00	-1.49012000E-08	 4.50000000E+00
	 1.00000000E+00	 2.50000000E-01	 5.00000000E+00
	 7.50000000E-01	-1.49012000E-08	 5.00000000E+00
	 5.00000000E-01	-1.49012000E-08	 4.50000000E+00
	 5.00000000E-01	 2.50000000E-01	 5.00000000E+00
	-7.45058000E-09	 5.00000000E-01	 5.00000000E+00
	-7.45058000E-09	 1.00000000E+00	 5.00000000E+00
	 2.50000000E-01	 5.00000000E-01	 5.00000000E+00
	 2.50000000E-01	 1.00000000E+00	 5.00000000E+00
	-7.45058000E-09	 5.00000000E-01	 4.50000000E+00
	-7.45058000E-09	 7.50000000E-01	 5.00000000E+00
	-7.45058000E-09	 1.00000000E+00	 4.50000000E+00
	-7.45058000E-09	-1.49012000E-08	 5.00000000E+00
	 2.50000000E-01	-1.49012000E-08	 5.00000000E+00
	-7.45058000E-09	-1.49012000E-08	 4.50000000E+00
	-7.45058000E-09	 2.50000000E-01	 5.00000000E+00
	 1.00000000E+00	 5.00000000E-01	 6.00000000E+00
	 1.00000000E+00	 1.00000000E+00	 6.00000000E+00
	 5.00000000E-01	 5.00000000E-01	 6.00000000E+00
	 5.00000000E-01	 1.00000000E+00	 6.00000000E+00
	 1.00000000E+00	 5.00000000E-01	 5.50000000E+00
	 1.00000000E+00	 7.50000000E-01	 6.00000000E+00
	 1.00000000E+00	 1.00000000E+00	 5.50000000E+00
	 7.50000000E-01	 5.00000000E-01	 6.00000000E+00
	 7.50000000E-01	 1.00000000E+00	 6.00000000E+00
	 5.00000000E-01	 5.00000000E-01	 5.50000000E+00
	 5.00000000E-01	 7.50000000E-01	 6.00000000E+00
	 5.00000000E-01	 1.00000000E+00	 5.50000000E+00
	 1.00000000E+00	-1.49012000E-08	 6.00000000E+00
	 5.00000000E-01	-1.49012000E-08	 6.00000000E+00
	 1.00000000E+00	-1.49012000E-08	 5.50000000E+00
	 1.00000000E+00	 2.50000000E-01	 6.00000000E+00
	 7.50000000E-01	-1.49012000E-08	 6.00000000E+00
	 5.00000000E-01	-1.49012000E-08	 5.50000000E+00
	 5.00000000E-01	 2.50000000E-01	 6.00000000E+00
	-7.45058000E-09	 5.00000000E-01	 6.00000000E+00
	-7.45058000E-09	 1.00000000E+00	 6.00000000E+00
	 2.50000000E-01	 5.00000000E-01	 6.00000000E+00
	 2.50000000E-01	 1.00000000E+00	 6.00000000E+00
	-7.45058000E-09	 5.00000000E-01	 5.50000000E+00
	-7.45058000E-09	 7.50000000E-01	 6.00000000E+00
	-7.45058000E-09	 1.00000000E+00	 5.50000000E+00
	-7.45058000E-09	-1.49012000E-08	 6.00000000E+00
	 2.50000000E-01	-1.49012000E-08	 6.00000000E+00
	-7.45058000E-09	-1.49012000E-08	 5.50000000E+00
	-7.45058000E-09	 2.50000000E-01	 6.00000000E+00
	 1.00000000E+00	 5.00000000E-01	 7.00000000E+00
[...]
POINT_DATA 522
FIELD U 1
	U 3 522 double
		 0.00000000E+00	 0.00000000E+00	 0.00000000E+00
		 0.00000000E+00	 0.00000000E+00	 0.00000000E+00
		 7.47235000E-06	-3.55885000E-03	 1.05417000E-06
		 6.62006000E-04	-3.68750000E-03	 2.36364000E-03
		 0.00000000E+00	 0.00000000E+00	 0.00000000E+00
		 0.00000000E+00	 0.00000000E+00	 0.00000000E+00
		 6.22117000E-06	-2.74427000E-03	 9.53021000E-06
		 9.66284000E-04	-2.89157000E-03	 2.40018000E-03
		 0.00000000E+00	 0.00000000E+00	 0.00000000E+00
		-1.21839000E-06	-1.07023000E-03	 6.24485000E-06
		 3.36756000E-04	-3.56791000E-03	 1.06452000E-03
		 9.27617000E-05	-1.25373000E-03	 1.21953000E-03
		 0.00000000E+00	 0.00000000E+00	 0.00000000E+00
		 0.00000000E+00	 0.00000000E+00	 0.00000000E+00
		 7.07591000E-06	-3.20227000E-03	 5.15090000E-06
		 8.15227000E-04	-3.34341000E-03	 2.46981000E-03
		 0.00000000E+00	 0.00000000E+00	 0.00000000E+00
		-2.38668000E-07	-7.58578000E-04	 9.23987000E-06
		 4.85633000E-04	-2.76214000E-03	 1.17366000E-03
		 4.70715000E-04	-9.64691000E-04	 1.19072000E-03
		 0.00000000E+00	 0.00000000E+00	 0.00000000E+00
		-6.51696000E-04	-3.67957000E-03	-2.36406000E-03
		 0.00000000E+00	 0.00000000E+00	 0.00000000E+00
		-9.58545000E-04	-2.87614000E-03	-2.38452000E-03
		 0.00000000E+00	 0.00000000E+00	 0.00000000E+00
		-9.60981000E-05	-1.24619000E-03	-1.20993000E-03
		-3.22860000E-04	-3.56627000E-03	-1.06290000E-03
		 0.00000000E+00	 0.00000000E+00	 0.00000000E+00
		-8.05791000E-04	-3.33064000E-03	-2.46296000E-03
		 0.00000000E+00	 0.00000000E+00	 0.00000000E+00
		-4.73159000E-04	-9.54098000E-04	-1.17365000E-03
		-4.74516000E-04	-2.75495000E-03	-1.15579000E-03
		 0.00000000E+00	 0.00000000E+00	 0.00000000E+00
		 0.00000000E+00	 0.00000000E+00	 0.00000000E+00
		 6.58962000E-06	-1.63118000E-03	 2.13216000E-05
		 1.26414000E-03	-1.77608000E-03	 2.38426000E-03
		 0.00000000E+00	 0.00000000E+00	 0.00000000E+00
		 0.00000000E+00	 0.00000000E+00	 0.00000000E+00
		 5.74066000E-06	-2.23983000E-03	 1.46505000E-05
		 1.11261000E-03	-2.38338000E-03	 2.30578000E-03
		 0.00000000E+00	 0.00000000E+00	 0.00000000E+00
		 1.66268000E-06	-1.27159000E-04	 1.14134000E-05
		 6.37308000E-04	-1.65105000E-03	 1.25924000E-03
		 8.13618000E-04	-3.50409000E-04	 1.22584000E-03
		 0.00000000E+00	 0.00000000E+00	 0.00000000E+00
		-1.25487000E-03	-1.75259000E-03	-2.34475000E-03
		 0.00000000E+00	 0.00000000E+00	 0.00000000E+00
		-1.10559000E-03	-2.36438000E-03	-2.27974000E-03
		 0.00000000E+00	 0.00000000E+00	 0.00000000E+00
		-8.11565000E-04	-3.36982000E-04	-1.20327000E-03
		-6.25290000E-04	-1.63826000E-03	-1.21753000E-03
		 1.42540000E-05	-1.13410000E-02	-2.53781000E-05
		 1.58619000E-03	-1.14813000E-02	 4.13135000E-03
		 2.01202000E-05	-9.67009000E-03	-1.70233000E-06
		 1.80002000E-03	-9.80349000E-03	 4.16479000E-03
		 1.00426000E-05	-7.02485000E-03	-1.27718000E-05
		 7.97489000E-04	-1.13886000E-02	 1.98351000E-03
		 1.15955000E-03	-7.18563000E-03	 3.32730000E-03
		 1.63788000E-05	-1.05300000E-02	-1.30073000E-05
		 1.69388000E-03	-1.06638000E-02	 4.19735000E-03
		 1.39145000E-05	-5.74949000E-03	 2.91563000E-06
		 9.11360000E-04	-9.71340000E-03	 2.06003000E-03
		 1.42201000E-03	-5.90379000E-03	 3.35394000E-03
		-1.55325000E-03	-1.14266000E-02	-4.18265000E-03
		-1.75405000E-03	-9.75396000E-03	-4.16896000E-03
		-1.14454000E-03	-7.16123000E-03	-3.34906000E-03
		-7.67469000E-04	-1.13602000E-02	-2.03417000E-03
		-1.65574000E-03	-1.06109000E-02	-4.22420000E-03
		-1.39627000E-03	-5.87309000E-03	-3.34852000E-03
		-8.68822000E-04	-9.68847000E-03	-2.06354000E-03
		 2.91127000E-05	-7.79167000E-03	 2.07883000E-05
		 2.03291000E-03	-7.91154000E-03	 4.17509000E-03
		 2.46732000E-05	-8.75382000E-03	 9.02216000E-06
		 1.91634000E-03	-8.88311000E-03	 4.13319000E-03
		 1.96564000E-05	-4.20840000E-03	 2.46400000E-05
		 1.02943000E-03	-7.82672000E-03	 2.11245000E-03
		 1.70331000E-03	-4.35442000E-03	 3.36080000E-03
		-1.96812000E-03	-7.86916000E-03	-4.13381000E-03
		-1.86073000E-03	-8.83758000E-03	-4.11471000E-03
		-1.66424000E-03	-4.32177000E-03	-3.31564000E-03
		-9.68588000E-04	-7.80646000E-03	-2.07169000E-03
		 3.80849000E-05	-2.17087000E-02	-7.23834000E-05
		 2.10943000E-03	-2.17907000E-02	 5.20681000E-03
		 4.34156000E-05	-1.95744000E-02	-3.73185000E-05
		 2.22837000E-03	-1.96640000E-02	 5.25929000E-03
		 2.73680000E-05	-1.62877000E-02	-4.05611000E-05
		 1.07535000E-03	-2.17312000E-02	 2.51481000E-03
		 1.90604000E-03	-1.64053000E-02	 4.75402000E-03
		 4.12089000E-05	-2.06581000E-02	-5.61104000E-05
		 2.16912000E-03	-2.07441000E-02	 5.25334000E-03
		 3.12277000E-05	-1.43278000E-02	-1.32049000E-05
		 1.13707000E-03	-1.96018000E-02	 2.58093000E-03
		 2.06786000E-03	-1.44422000E-02	 4.79625000E-03
		-2.04720000E-03	-2.17450000E-02	-5.35499000E-03
		-2.15744000E-03	-1.95972000E-02	-5.33782000E-03
		-1.85193000E-03	-1.63475000E-02	-4.84665000E-03
		-1.00401000E-03	-2.17126000E-02	-2.66052000E-03
		-2.10192000E-03	-2.06873000E-02	-5.36911000E-03
		-2.00902000E-03	-1.43813000E-02	-4.82675000E-03
		-1.05594000E-03	-1.95694000E-02	-2.65653000E-03
		 4.84933000E-05	-1.73239000E-02	 2.37621000E-06
		 2.35834000E-03	-1.74152000E-02	 5.28696000E-03
		 4.56002000E-05	-1.84643000E-02	-1.71813000E-05
		 2.29312000E-03	-1.85569000E-02	 5.26401000E-03
		 3.73637000E-05	-1.22052000E-02	 1.22075000E-05
		 1.20228000E-03	-1.73540000E-02	 2.62760000E-03
		 2.24716000E-03	-1.23184000E-02	 4.81701000E-03
		-2.27741000E-03	-1.73254000E-02	-5.28713000E-03
		-2.21857000E-03	-1.84791000E-02	-5.30371000E-03
		-2.17755000E-03	-1.22487000E-02	-4.78965000E-03
		-1.11080000E-03	-1.73069000E-02	-2.62321000E-03
		 5.36165000E-05	-3.33968000E-02	-1.33109000E-04
		 2.36883000E-03	-3.34078000E-02	 5.33676000E-03
		 6.26076000E-05	-3.11323000E-02	-9.23642000E-05
		 2.29171000E-03	-3.11269000E-02	 5.40092000E-03
		 4.45079000E-05	-2.75147000E-02	-1.09041000E-04
		 1.20932000E-03	-3.34133000E-02	 2.54573000E-03
		 2.27261000E-03	-2.75637000E-02	 5.42487000E-03
		 5.75986000E-05	-3.22562000E-02	-1.12691000E-04
		 2.32868000E-03	-3.22577000E-02	 5.37283000E-03
		 5.21905000E-05	-2.52747000E-02	-6.57827000E-05
		 1.17626000E-03	-3.11396000E-02	 2.59774000E-03
		 2.31148000E-03	-2.53197000E-02	 5.48592000E-03
		-2.25182000E-03	-3.33205000E-02	-5.59944000E-03
		-2.15592000E-03	-3.10549000E-02	-5.58155000E-03
		-2.18615000E-03	-2.74924000E-02	-5.63314000E-03
		-1.09795000E-03	-3.33690000E-02	-2.81083000E-03
		-2.20371000E-03	-3.21770000E-02	-5.59425000E-03
		-2.20603000E-03	-2.52456000E-02	-5.61693000E-03
		-1.04752000E-03	-3.11047000E-02	-2.78140000E-03
		 7.12777000E-05	-2.89446000E-02	-5.58401000E-05
		 2.22559000E-03	-2.89249000E-02	 5.41133000E-03
		 6.70007000E-05	-3.00275000E-02	-7.28735000E-05
		 2.26101000E-03	-3.00180000E-02	 5.43580000E-03
		 6.05898000E-05	-2.30007000E-02	-1.87109000E-05
		 1.14522000E-03	-2.89422000E-02	 2.59462000E-03
		 2.36101000E-03	-2.30326000E-02	 5.50671000E-03
		-2.07284000E-03	-2.88688000E-02	-5.51805000E-03
		-2.11528000E-03	-2.99524000E-02	-5.57737000E-03
		-2.23488000E-03	-2.29650000E-02	-5.55252000E-03
		-1.00016000E-03	-2.89194000E-02	-2.70501000E-03
		 1.02820000E-04	-4.34039000E-02	-1.68167000E-04
		 2.19386000E-03	-4.33080000E-02	 3.97078000E-03
		 1.04845000E-04	-4.14699000E-02	-1.39392000E-04
		 1.90091000E-03	-4.13581000E-02	 4.00296000E-03
		 7.55843000E-05	-3.88705000E-02	-1.53872000E-04
		 1.14080000E-03	-4.33979000E-02	 1.93878000E-03
		 2.35543000E-03	-3.88256000E-02	 4.79921000E-03
		 1.04969000E-04	-4.24000000E-02	-1.51267000E-04
		 2.05089000E-03	-4.22890000E-02	 3.94583000E-03
		 7.98514000E-05	-3.67032000E-02	-1.18903000E-04
		 1.00282000E-03	-4.14561000E-02	 1.92549000E-03
		 2.15104000E-03	-3.66445000E-02	 4.86172000E-03
		-1.99346000E-03	-4.32587000E-02	-4.30328000E-03
		-1.69332000E-03	-4.13072000E-02	-4.27974000E-03
		-2.20446000E-03	-3.87598000E-02	-5.10852000E-03
		-9.39955000E-04	-4.33708000E-02	-2.27572000E-03
		-1.84295000E-03	-4.22405000E-02	-4.24421000E-03
		-1.98863000E-03	-3.65801000E-02	-5.09426000E-03
		-7.94816000E-04	-4.14297000E-02	-2.20346000E-03
		 1.03787000E-04	-3.98084000E-02	-1.09659000E-04
		 1.61353000E-03	-3.97014000E-02	 4.02815000E-03
		 1.04711000E-04	-4.05998000E-02	-1.27465000E-04
		 1.75555000E-03	-4.04878000E-02	 4.06345000E-03
		 8.12612000E-05	-3.47279000E-02	-8.91466000E-05
		 8.62776000E-04	-3.97959000E-02	 1.90197000E-03
		 1.95713000E-03	-3.46657000E-02	 4.86752000E-03
		-1.40866000E-03	-3.96516000E-02	-4.24688000E-03
		-1.55070000E-03	-4.04388000E-02	-4.31544000E-03
		-1.79283000E-03	-3.46031000E-02	-5.03436000E-03
		-6.54987000E-04	-3.97683000E-02	-2.12179000E-03
		 9.40235000E-05	-4.86056000E-02	-1.44842000E-04
		 1.20628000E-03	-4.85724000E-02	 2.53383000E-03
		 1.02373000E-04	-4.75449000E-02	-1.46163000E-04
		 1.13307000E-03	-4.75098000E-02	 2.49773000E-03
		 1.09637000E-04	-4.65554000E-02	-1.57754000E-04
		 6.54242000E-04	-4.85956000E-02	 1.35099000E-03
		 1.79454000E-03	-4.64959000E-02	 3.09860000E-03
		 9.76907000E-05	-4.80631000E-02	-1.49273000E-04
		 1.16696000E-03	-4.80307000E-02	 2.42331000E-03
		 1.15576000E-04	-4.50066000E-02	-1.47043000E-04
		 6.19898000E-04	-4.75359000E-02	 1.24424000E-03
		 1.55953000E-03	-4.49229000E-02	 3.08348000E-03
		-1.00238000E-03	-4.85460000E-02	-2.81833000E-03
		-9.20618000E-04	-4.74958000E-02	-2.79030000E-03
		-1.55876000E-03	-4.64464000E-02	-3.41209000E-03
		-4.55232000E-04	-4.85878000E-02	-1.63272000E-03
		-9.61687000E-04	-4.80115000E-02	-2.72104000E-03
		-1.32085000E-03	-4.48952000E-02	-3.37922000E-03
		-4.10779000E-04	-4.75314000E-02	-1.53686000E-03
		 1.10030000E-04	-4.65618000E-02	-1.47324000E-04
		 1.05684000E-03	-4.65270000E-02	 2.52476000E-03
		 1.06341000E-04	-4.70470000E-02	-1.41902000E-04
		 1.09783000E-03	-4.70141000E-02	 2.55745000E-03
		 1.20085000E-04	-4.36778000E-02	-1.31430000E-04
		 5.81819000E-04	-4.65533000E-02	 1.21066000E-03
		 1.33639000E-03	-4.35959000E-02	 3.12347000E-03
		-8.30028000E-04	-4.65215000E-02	-2.82395000E-03
		-8.74589000E-04	-4.69977000E-02	-2.84954000E-03
		-1.09218000E-03	-4.35761000E-02	-3.39155000E-03
		-3.63777000E-04	-4.65541000E-02	-1.50426000E-03
		 9.80289000E-05	-5.29898000E-02	-1.37177000E-04
		 6.18510000E-04	-5.30357000E-02	 2.66757000E-03
		 9.78252000E-05	-5.24726000E-02	-1.52662000E-04
		 6.60859000E-04	-5.24977000E-02	 2.63526000E-03
		 9.47877000E-05	-5.04927000E-02	-1.56046000E-04
		 3.56447000E-04	-5.30180000E-02	 1.25232000E-03
		 7.07482000E-04	-5.04696000E-02	 2.50831000E-03
		 9.62686000E-05	-5.27343000E-02	-1.40660000E-04
		 6.43180000E-04	-5.27811000E-02	 2.67766000E-03
		 9.19170000E-05	-4.98444000E-02	-1.50068000E-04
		 3.75856000E-04	-5.24807000E-02	 1.24168000E-03
		 7.74104000E-04	-4.98484000E-02	 2.48017000E-03
		-3.63335000E-04	-5.29514000E-02	-2.98210000E-03
		-4.34614000E-04	-5.24804000E-02	-2.97799000E-03
		-5.33665000E-04	-5.04627000E-02	-2.79549000E-03
		-1.47523000E-04	-5.29445000E-02	-1.56425000E-03
		-3.93682000E-04	-5.27273000E-02	-2.98571000E-03
		-5.82000000E-04	-4.98338000E-02	-2.77310000E-03
		-1.74368000E-04	-5.24633000E-02	-1.56433000E-03
		 1.01425000E-04	-5.19125000E-02	-1.54324000E-04
		 6.62185000E-04	-5.19562000E-02	 2.62029000E-03
		 1.00237000E-04	-5.22038000E-02	-1.60111000E-04
		 6.59335000E-04	-5.22166000E-02	 2.62850000E-03
		 9.22616000E-05	-4.91651000E-02	-1.44966000E-04
		 3.97666000E-04	-5.19283000E-02	 1.21460000E-03
		 7.90114000E-04	-4.91746000E-02	 2.48323000E-03
		-4.91580000E-04	-5.19287000E-02	-2.93565000E-03
		-4.69680000E-04	-5.22211000E-02	-2.95631000E-03
		-6.04519000E-04	-4.91659000E-02	-2.78509000E-03
		-1.95235000E-04	-5.19104000E-02	-1.53747000E-03
		-1.33972000E-04	-5.86598000E-02	-5.40005000E-05
		 5.18270000E-04	-5.82093000E-02	 2.47911000E-03
		 1.25800000E-04	-5.80817000E-02	-1.87206000E-04
		 5.79396000E-04	-5.78367000E-02	 2.46765000E-03
		 3.08855000E-05	-5.58703000E-02	-4.36119000E-05
		 1.50316000E-04	-5.84055000E-02	 1.34883000E-03
		 7.26032000E-04	-5.59129000E-02	 2.65223000E-03
		-1.23539000E-05	-5.83674000E-02	-1.40657000E-04
		 5.47304000E-04	-5.79140000E-02	 2.41913000E-03
		 1.13512000E-04	-5.52954000E-02	-1.52798000E-04
		 3.86131000E-04	-5.79275000E-02	 1.19644000E-03
		 6.30994000E-04	-5.52549000E-02	 2.58378000E-03
		-6.18127000E-04	-5.89312000E-02	-3.12614000E-03
		-5.40770000E-04	-5.82977000E-02	-3.13400000E-03
		-4.63152000E-04	-5.58724000E-02	-3.08415000E-03
		-3.79275000E-04	-5.88461000E-02	-1.57615000E-03
		-5.91751000E-04	-5.86489000E-02	-3.17157000E-03
		-5.02714000E-04	-5.53568000E-02	-3.10208000E-03
		-1.90013000E-04	-5.82317000E-02	-1.65079000E-03
		 2.74932000E-04	-5.75135000E-02	-1.00706000E-04
		 7.24475000E-04	-5.73458000E-02	 2.53196000E-03
		 2.26879000E-04	-5.77936000E-02	-1.72926000E-04
		 6.46642000E-04	-5.76215000E-02	 2.49058000E-03
		 1.52996000E-04	-5.47471000E-02	-1.30249000E-04
		 4.89487000E-04	-5.74502000E-02	 1.26747000E-03
		 6.23777000E-04	-5.47902000E-02	 2.61738000E-03
		-4.92847000E-04	-5.74947000E-02	-2.98957000E-03
		-5.03591000E-04	-5.79160000E-02	-3.05470000E-03
		-5.24364000E-04	-5.46915000E-02	-2.99586000E-03
		-6.57557000E-05	-5.75055000E-02	-1.55312000E-03
		 0.00000000E+00	 0.00000000E+00	 0.00000000E+00
		 0.00000000E+00	 0.00000000E+00	 0.00000000E+00
		 6.06957000E-05	-1.51757000E-02	-4.11629000E-04
		-3.62616000E-03	-1.63536000E-02	 1.54181000E-02
		 0.00000000E+00	 0.00000000E+00	 0.00000000E+00
		 0.00000000E+00	 0.00000000E+00	 0.00000000E+00
		 1.63690000E-05	-1.77877000E-02	-5.05788000E-04
		-1.57802000E-03	-1.90356000E-02	 1.54997000E-02
		 0.00000000E+00	 0.00000000E+00	 0.00000000E+00
		 7.00023000E-05	-2.89127000E-03	-1.45937000E-04
		-1.78571000E-03	-1.54014000E-02	 7.47141000E-03
		-3.09426000E-03	-4.32463000E-03	 7.86814000E-03
		 0.00000000E+00	 0.00000000E+00	 0.00000000E+00
		 0.00000000E+00	 0.00000000E+00	 0.00000000E+00
		 4.20154000E-05	-1.68318000E-02	-4.67154000E-04
		-2.58117000E-03	-1.80421000E-02	 1.53120000E-02
		 0.00000000E+00	 0.00000000E+00	 0.00000000E+00
		 8.75054000E-06	-4.74011000E-03	-1.78113000E-04
		-7.81324000E-04	-1.80321000E-02	 7.31423000E-03
		-7.74025000E-04	-6.15171000E-03	 7.62023000E-03
		 0.00000000E+00	 0.00000000E+00	 0.00000000E+00
		 3.70802000E-03	-1.58301000E-02	-1.63262000E-02
		 0.00000000E+00	 0.00000000E+00	 0.00000000E+00
		 1.61757000E-03	-1.85110000E-02	-1.66036000E-02
		 0.00000000E+00	 0.00000000E+00	 0.00000000E+00
		 3.21284000E-03	-4.18557000E-03	-8.20372000E-03
		 1.89254000E-03	-1.51348000E-02	-8.32186000E-03
		 0.00000000E+00	 0.00000000E+00	 0.00000000E+00
		 2.65479000E-03	-1.75138000E-02	-1.63314000E-02
		 0.00000000E+00	 0.00000000E+00	 0.00000000E+00
		 7.98675000E-04	-6.03293000E-03	-8.00507000E-03
		 8.14429000E-04	-1.77683000E-02	-8.35499000E-03
		 0.00000000E+00	 0.00000000E+00	 0.00000000E+00
		 0.00000000E+00	 0.00000000E+00	 0.00000000E+00
		-3.90543000E-05	-1.83725000E-02	-5.18068000E-04
		 4.69711000E-04	-1.95270000E-02	 1.53170000E-02
		 0.00000000E+00	 0.00000000E+00	 0.00000000E+00
		 0.00000000E+00	 0.00000000E+00	 0.00000000E+00
		-1.09270000E-05	-1.84283000E-02	-5.24730000E-04
		-5.70281000E-04	-1.96341000E-02	 1.55404000E-02
		 0.00000000E+00	 0.00000000E+00	 0.00000000E+00
		-6.21055000E-05	-4.46150000E-03	-1.83541000E-04
		 2.13970000E-04	-1.85790000E-02	 7.08103000E-03
		 1.59502000E-03	-5.82247000E-03	 7.83667000E-03
		 0.00000000E+00	 0.00000000E+00	 0.00000000E+00
		-4.98896000E-04	-1.90281000E-02	-1.64282000E-02
		 0.00000000E+00	 0.00000000E+00	 0.00000000E+00
		 5.68984000E-04	-1.91110000E-02	-1.66792000E-02
		 0.00000000E+00	 0.00000000E+00	 0.00000000E+00
		-1.68621000E-03	-5.70999000E-03	-8.23708000E-03
		-2.73518000E-04	-1.83385000E-02	-8.13472000E-03
		 6.11775000E-05	-6.08984000E-02	-1.68141000E-03
		-4.45114000E-03	-6.24294000E-02	 2.64824000E-02
		 4.35521000E-05	-6.46337000E-02	-1.87181000E-03
		-2.94132000E-03	-6.61679000E-02	 2.63625000E-02
		 6.38474000E-05	-3.48323000E-02	-9.08265000E-04
		-2.19433000E-03	-6.14963000E-02	 1.23070000E-02
		-4.14934000E-03	-3.62842000E-02	 2.16395000E-02
		 5.31984000E-05	-6.29325000E-02	-1.78978000E-03
		-3.69772000E-03	-6.44665000E-02	 2.63765000E-02
		 2.61282000E-05	-3.80986000E-02	-1.05285000E-03
		-1.44745000E-03	-6.52336000E-02	 1.21169000E-02
		-2.31856000E-03	-3.95571000E-02	 2.15705000E-02
		 4.57981000E-03	-6.07916000E-02	-2.99437000E-02
		 3.04536000E-03	-6.45646000E-02	-3.02070000E-02
		 4.24543000E-03	-3.52557000E-02	-2.35627000E-02
		 2.31558000E-03	-6.06846000E-02	-1.56924000E-02
		 3.81914000E-03	-6.28536000E-02	-3.00521000E-02
		 2.38007000E-03	-3.85322000E-02	-2.37887000E-02
		 1.54417000E-03	-6.44458000E-02	-1.58808000E-02
		 1.11834000E-05	-6.68722000E-02	-1.97128000E-03
		-1.44072000E-03	-6.83624000E-02	 2.61975000E-02
		 2.86193000E-05	-6.59183000E-02	-1.93225000E-03
		-2.18686000E-03	-6.74688000E-02	 2.63882000E-02
		-2.34473000E-05	-3.95265000E-02	-1.10070000E-03
		-7.23577000E-04	-6.74365000E-02	 1.18707000E-02
		-5.17891000E-04	-4.09728000E-02	 2.14436000E-02
		 1.52460000E-03	-6.68226000E-02	-3.02396000E-02
		 2.28346000E-03	-6.58528000E-02	-3.03549000E-02
		 5.29213000E-04	-3.99977000E-02	-2.37587000E-02
		 7.65436000E-04	-6.66970000E-02	-1.58326000E-02
		 1.64289000E-04	-1.27180000E-01	-4.07044000E-03
		-4.60206000E-03	-1.28833000E-01	 3.18407000E-02
		 1.58607000E-04	-1.31479000E-01	-4.28935000E-03
		-3.74666000E-03	-1.33255000E-01	 3.16796000E-02
		 1.02149000E-04	-9.20602000E-02	-2.73451000E-03
		-2.21458000E-03	-1.27888000E-01	 1.37837000E-02
		-4.58780000E-03	-9.37036000E-02	 2.98125000E-02
		 1.63696000E-04	-1.29441000E-01	-4.18709000E-03
		-4.17547000E-03	-1.31166000E-01	 3.17289000E-02
		 8.52335000E-05	-9.61513000E-02	-2.95694000E-03
		-1.81732000E-03	-1.32253000E-01	 1.35565000E-02
		-3.41755000E-03	-9.78028000E-02	 2.96749000E-02
		 4.87519000E-03	-1.26318000E-01	-4.00365000E-02
		 4.04844000E-03	-1.30619000E-01	-4.03485000E-02
		 4.78546000E-03	-9.15711000E-02	-3.53848000E-02
		 2.52413000E-03	-1.26652000E-01	-2.19320000E-02
		 4.46101000E-03	-1.28571000E-01	-4.01875000E-02
		 3.59686000E-03	-9.56626000E-02	-3.56813000E-02
		 2.10599000E-03	-1.30957000E-01	-2.21732000E-02
		 1.41724000E-04	-1.34955000E-01	-4.44181000E-03
		-3.00835000E-03	-1.36862000E-01	 3.14519000E-02
		 1.50849000E-04	-1.33339000E-01	-4.37425000E-03
		-3.38142000E-03	-1.35054000E-01	 3.16586000E-02
		 6.76453000E-05	-9.90679000E-02	-3.09962000E-03
		-1.39883000E-03	-1.35794000E-01	 1.32674000E-02
		-2.30006000E-03	-1.00744000E-01	 2.94588000E-02
		 3.23892000E-03	-1.34128000E-01	-4.04545000E-02
		 3.64430000E-03	-1.32466000E-01	-4.05014000E-02
		 2.41099000E-03	-9.85972000E-02	-3.57429000E-02
		 1.67899000E-03	-1.34462000E-01	-2.22114000E-02
		 4.67167000E-04	-2.04414000E-01	-7.27669000E-03
		-4.26337000E-03	-2.06049000E-01	 3.23190000E-02
		 4.58776000E-04	-2.09032000E-01	-7.42510000E-03
		-4.04184000E-03	-2.11125000E-01	 3.22004000E-02
		 2.49561000E-04	-1.64942000E-01	-5.60893000E-03
		-1.89864000E-03	-2.05189000E-01	 1.24728000E-02
		-4.52058000E-03	-1.66699000E-01	 3.25064000E-02
		 4.63060000E-04	-2.06726000E-01	-7.35169000E-03
		-4.14354000E-03	-2.08538000E-01	 3.22746000E-02
		 2.39605000E-04	-1.69469000E-01	-5.83962000E-03
		-1.66871000E-03	-2.10023000E-01	 1.23470000E-02
		-4.03530000E-03	-1.71184000E-01	 3.24062000E-02
		 5.03621000E-03	-2.03032000E-01	-4.68975000E-02
		 4.67142000E-03	-2.07502000E-01	-4.70652000E-02
		 4.98528000E-03	-1.63791000E-01	-4.37603000E-02
		 2.75167000E-03	-2.03694000E-01	-2.70279000E-02
		 4.85485000E-03	-2.05298000E-01	-4.70027000E-02
		 4.44344000E-03	-1.68274000E-01	-4.40263000E-02
		 2.55223000E-03	-2.08211000E-01	-2.72054000E-02
		 3.14742000E-04	-2.13324000E-01	-7.55645000E-03
		-3.69706000E-03	-2.15786000E-01	 3.20566000E-02
		 3.88288000E-04	-2.11181000E-01	-7.49579000E-03
		-3.86922000E-03	-2.13976000E-01	 3.21276000E-02
		 2.05037000E-04	-1.73455000E-01	-6.05252000E-03
		-1.80460000E-03	-2.14482000E-01	 1.22023000E-02
		-3.38730000E-03	-1.75064000E-01	 3.22035000E-02
		 4.33678000E-03	-2.11659000E-01	-4.71697000E-02