# vtk DataFile Version 3.0

ASCII
DATASET UNSTRUCTURED_GRID

POINTS 522 double
	 1.00000000E+00	 1.00000000E+00	-5.96046000E-08
	 1.00000000E+00	 5.00000000E-01	-5.96046000E-08
	 1.00000000E+00	 5.00000000E-01	 1.00000000E+00
	 1.00000000E+00	 1.00000000E+00	 1.00000000E+00
	 5.00000000E-01	 1.00000000E+00	-5.96046000E-08
	 5.00000000E-01	 5.00000000E-01	-5.96046000E-08
	 5.00000000E-01	 5.00000000E-01	 1.00000000E+00
	 5.00000000E-01	 1.00000000E+00	 1.00000000E+00
	 1.00000000E+00	 7.50000000E-01	-5.96046000E-08
	 1.00000000E+00	 5.00000000E-01	 5.00000000E-01
	 1.00000000E+00	 7.50000000E-01	 1.00000000E+00
	 1.00000000E+00	 1.00000000E+00	 5.00000000E-01
	 7.50000000E-01	 1.00000000E+00	-5.96046000E-08
	 7.50000000E-01	 5.00000000E-01	-5.96046000E-08
	 7.50000000E-01	 5.00000000E-01	 1.00000000E+00
	 7.50000000E-01	 1.00000000E+00	 1.00000000E+00
	 5.00000000E-01	 7.50000000E-01	-5.96046000E-08
	 5.00000000E-01	 5.00000000E-01	 5.00000000E-01
	 5.00000000E-01	 7.50000000E-01	 1.00000000E+00
	 5.00000000E-01	 1.00000000E+00	 5.00000000E-01
	 1.00000000E+00	-1.49012000E-08	-5.96046000E-08
	 1.00000000E+00	-1.49012000E-08	 1.00000000E+00
	 5.00000000E-01	-1.49012000E-08	-5.96046000E-08
	 5.00000000E-01	-1.49012000E-08	 1.00000000E+00
	 1.00000000E+00	 2.50000000E-01	-5.96046000E-08
	 1.00000000E+00	-1.49012000E-08	 5.00000000E-01
	 1.00000000E+00	 2.50000000E-01	 1.00000000E+00
	 7.50000000E-01	-1.49012000E-08	-5.96046000E-08
	 7.50000000E-01	-1.49012000E-08	 1.00000000E+00
	 5.00000000E-01	 2.50000000E-01	-5.96046000E-08
	 5.00000000E-01	-1.49012000E-08	 5.00000000E-01
	 5.00000000E-01	 2.50000000E-01	 1.00000000E+00
	-7.45058000E-09	 1.00000000E+00	-5.96046000E-08
	-7.45058000E-09	 5.00000000E-01	-5.96046000E-08
	-7.45058000E-09	 5.00000000E-01	 1.00000000E+00
	-7.45058000E-09	 1.00000000E+00	 1.00000000E+00
	 2.50000000E-01	 1.00000000E+00	-5.96046000E-08
	 2.50000000E-01	 5.00000000E-01	-5.96046000E-08
	 2.50000000E-01	 5.00000000E-01	 1.00000000E+00
	 2.50000000E-01	 1.00000000E+00	 1.00000000E+00
	-7.45058000E-09	 7.50000000E-01	-5.96046000E-08
	-7.45058000E-09	 5.00000000E-01	 5.00000000E-01
	-7.45058000E-09	 7.50000000E-01	 1.00000000E+00
	-7.45058000E-09	 1.00000000E+00	 5.00000000E-01
	-7.45058000E-09	-1.49012000E-08	-5.96046000E-08
	-7.45058000E-09	-1.49012000E-08	 1.00000000E+00
	 2.50000000E-01	-1.49012000E-08	-5.96046000E-08
	 2.50000000E-01	-1.49012000E-08	 1.00000000E+00
	-7.45058000E-09	 2.50000000E-01	-5.96046000E-08
	-7.45058000E-09	-1.49012000E-08	 5.00000000E-01
	-7.45058000E-09	 2.50000000E-01	 1.00000000E+00
	 1.00000000E+00	 5.00000000E-01	 2.00000000E+00
	 1.00000000E+00	 1.00000000E+00	 2.00000000E+00
	 5.00000000E-01	 5.00000000E-01	 2.00000000E+00
	 5.00000000E-01	 1.00000000E+00	 2.00000000E+00
	 1.00000000E+00	 5.00000000E-01	 1.50000000E+00
	 1.00000000E+00	 7.50000000E-01	 2.00000000E+00
	 1.00000000E+00	 1.00000000E+00	 1.50000000E+00
	 7.50000000E-01	 5.00000000E-01	 2.00000000E+00
	 7.50000000E-01	 1.00000000E+00	 2.00000000E+00
	 5.00000000E-01	 5.00000000E-01	 1.50000000E+00
	 5.00000000E-01	 7.50000000E-01	 2.00000000E+00
	 5.00000000E-01	 1.00000000E+00	 1.50000000E+00
	 1.00000000E+00	-1.49012000E-08	 2.00000000E+00
	 5.00000000E-01	-1.49012000E-08	 2.00000000E+00
	 1.00000000E+00	-1.49012000E-08	 1.50000000E+00
	 1.00000000E+00	 2.50000000E-01	 2.00000000E+00
	 7.50000000E-01	-1.49012000E-08	 2.00000000E+00
	 5.00000000E-01	-1.49012000E-08	 1.50000000E+00
	 5.00000000E-01	 2.50000000E-01	 2.00000000E+00
	-7.45058000E-09	 5.00000000E-01	 2.00000000E+00
	-7.45058000E-09	 1.00000000E+00	 2.00000000E+00
	 2.50000000E-01	 5.00000000E-01	 2.00000000E+00
	 2.50000000E-01	 1.00000000E+00	 2.00000000E+00
	-7.45058000E-09	 5.00000000E-01	 1.50000000E+00
	-7.45058000E-09	 7.50000000E-01	 2.00000000E+00
	-7.45058000E-09	 1.00000000E+00	 1.50000000E+00
	-7.45058000E-09	-1.49012000E-08	 2.00000000E+00
	 2.50000000E-01	-1.49012000E-08	 2.00000000E+00
	-7.45058000E-09	-1.49012000E-08	 1.50000000E+00
	-7.45058000E-09	 2.50000000E-01	 2.00000000E+00
	 1.00000000E+00	 5.00000000E-01	 3.00000000E+00
	 1.00000000E+00	 1.00000000E+00	 3.00000000E+00
	 5.00000000E-01	 5.00000000E-01	 3.00000000E+00
	 5.00000000E-01	 1.00000000E+00	 3.00000000E+00
	 1.00000000E+00	 5.00000000E-01	 2.50000000E+00
	 1.00000000E+00	 7.50000000E-01	 3.00000000E+00
	 1.00000000E+00	 1.00000000E+00	 2.50000000E+00
	 7.50000000E-01	 5.00000000E-01	 3.00000000E+00
	 7.50000000E-01	 1.00000000E+00	 3.00000000E+00
	 5.00000000E-01	 5.00000000E-01	 2.50000000E+00
	 5.00000000E-01	 7.50000000E-01	 3.00000000E+00
	 5.00000000E-01	 1.00000000E+00	 2.50000000E+00
	 1.00000000E+00	-1.49012000E-08	 3.00000000E+00
	 5.00000000E-01	-1.49012000E-08	 3.00000000E+00
	 1.00000000E+00	-1.49012000E-08	 2.50000000E+00
	 1.00000000E+00	 2.50000000E-01	 3.00000000E+00
	 7.50000000E-01	-1.49012000E-08	 3.00000000E+00
	 5.00000000E-01	-1.49012000E-08	 2.50000000E+00
	 5.00000000E-01	 2.50000000E-01	 3.00000000E+00
	-7.45058000E-09	 5.00000000E-01	 3.00000000E+00
	-7.45058000E-09	 1.00000000E+00	 3.00000000E+00
	 2.50000000E-01	 5.00000000E-01	 3.00000000E+00
	 2.50000000E-01	 1.00000000E+00	 3.00000000E+00
	-7.45058000E-09	 5.00000000E-01	 2.50000000E+00
	-7.45058000E-09	 7.50000000E-01	 3.00000000E+00
	-7.45058000E-09	 1.00000000E+00	 2.50000000E+00
	-7.45058000E-09	-1.49012000E-08	 3.00000000E+00
	 2.50000000E-01	-1.49012000E-08	 3.00000000E+00
	-7.45058000E-09	-1.49012000E-08	 2.50000000E+00
	-7.45058000E-09	 2.50000000E-01	 3.00000000E+00
	 1.00000000E+00	 5.00000000E-01	 4.00000000E+00
	 1.00000000E+00	 1.00000000E+00	 4.00000000E+00
	 5.00000000E-01	 5.00000000E-01	 4.00000000E+00
	 5.00000000E-01	 1.00000000E+00	 4.00000000E+00
	 1.00000000E+00	 5.00000000E-01	 3.50000000E+00
	 1.00000000E+00	 7.50000000E-01	 4.00000000E+00
	 1.00000000E+00	 1.00000000E+00	 3.50000000E+00
	 7.50000000E-01	 5.00000000E-01	 4.00000000E+00
	 7.50000000E-01	 1.00000000E+00	 4.00000000E+00
	 5.00000000E-01	 5.00000000E-01	 3.50000000E+00
	 5.00000000E-01	 7.50000000E-01	 4.00000000E+00
	 5.00000000E-01	 1.00000000E+00	 3.50000000E+00
	 1.00000000E+00	-1.49012000E-08	 4.00000000E+00
	 5.00000000E-01	-1.49012000E-08	 4.00000000E+00
	 1.00000000E+00	-1.49012000E-08	 3.50000000E+00
	 1.00000000E+00	 2.50000000E-01	 4.00000000E+00
	 7.50000000E-01	-1.49012000E-08	 4.00000000E+00
	 5.00000000E-01	-1.49012000E-08	 3.50000000E+00
	 5.00000000E-01	 2.50000000E-01	 4.00000000E+00
	-7.45058000E-09	 5.00000000E-01	 4.00000000E+00
	-7.45058000E-09	 1.00000000E+00	 4.00000000E+00
	 2.50000000E-01	 5.00000000E-01	 4.00000000E+00
	 2.50000000E-01	 1.00000000E+00	 4.00000000E+00
	-7.45058000E-09	 5.00000000E-01	 3.50000000E+00
	-7.45058000E-09	 7.50000000E-01	 4.00000000E+00
	-7.45058000E-09	 1.00000000E+00	 3.50000000E+00
	-7.45058000E-09	-1.49012000E-08	 4.00000000E+00
	 2.50000000E-01	-1.49012000E-08	 4.00000000E+00
	-7.45058000E-09	-1.49012000E-08	 3.50000000E+00
	-7.45058000E-09	 2.50000000E-01	 4.00000000E+00
	 1.00000000E+00	 5.00000000E-01	 5.00000000E+00
	 1.00000000E+00	 1.00000000E+00	 5.00000000E+00
	 5.00000000E-01	 5.00000000E-01	 5.00000000E+00
	 5.00000000E-01	 1.00000000E+00	 5.00000000E+00
	 1.00000000E+00	 5.00000000E-01	 4.50000000E+00
	 1.00000000E+00	 7.50000000E-01	 5.00000000E+00
	 1.00000000E+00	 1.00000000E+00	 4.50000000E+00
	 7.50000000E-01	 5.00000000E-01	 5.00000000E+00
	 7.50000000E-01	 1.00000000E+00	 5.00000000E+00
	 5.00000000E-01	 5.00000000E-01	 4.50000000E+00
	 5.00000000E-01	 7.50000000E-01	 5.00000000E+00
	 5.00000000E-01	 1.00000000E+00	 4.50000000E+00
	 1.00000000E+00	-1.49012000E-08	 5.00000000E+00
	 5.00000000E-01	-1.49012000E-08	 5.00000000E+00
	 1.00000000E+00	-1.49012000E-08	 4.50000000E+00
	 1.00000000E+00	 2.50000000E-01	 5.00000000E+00
	 7.50000000E-01	-1.49012000E-08	 5.00000000E+00
	 5.00000000E-01	-1.49012000E-08	 4.50000000E+00
	 5.00000000E-01	 2.50000000E-01	 5.00000000E+00
	-7.45058000E-09	 5.00000000E-01	 5.00000000E+00
	-7.45058000E-09	 1.00000000E+00	 5.00000000E+00
	 2.50000000E-01	 5.00000000E-01	 5.00000000E+00
	 2.50000000E-01	 1.00000000E+00	 5.00000000E+00
	-7.45058000E-09	 5.00000000E-01	 4.50000000E+00
	-7.45058000E-09	 7.50000000E-01	 5.00000000E+00
	-7.45058000E-09	 1.00000000E+00	 4.50000000E+00
	-7.45058000E-09	-1.49012000E-08	 5.00000000E+00
	 2.50000000E-01	-1.49012000E-08	 5.00000000E+00
	-7.45058000E-09	-1.49012000E-08	 4.50000000E+00
	-7.45058000E-09	 2.50000000E-01	 5.00000000E+00
	 1.00000000E+00	 5.00000000E-01	 6.00000000E+00
	 1.00000000E+00	 1.00000000E+00	 6.00000000E+00
	 5.00000000E-01	 5.00000000E-01	 6.00000000E+00
	 5.00000000E-01	 1.00000000E+00	 6.00000000E+00
	 1.00000000E+00	 5.00000000E-01	 5.50000000E+00
	 1.00000000E+00	 7.50000000E-01	 6.00000000E+00
	 1.00000000E+00	 1.00000000E+00	 5.50000000E+00
	 7.50000000E-01	 5.00000000E-01	 6.00000000E+00
	 7.50000000E-01	 1.00000000E+00	 6.00000000E+00
	 5.00000000E-01	 5.00000000E-01	 5.50000000E+00
	 5.00000000E-01	 7.50000000E-01	 6.00000000E+00
	 5.00000000E-01	 1.00000000E+00	 5.50000000E+00
	 1.00000000E+00	-1.49012000E-08	 6.00000000E+00
	 5.00000000E-01	-1.49012000E-08	 6.00000000E+00
	 1.00000000E+00	-1.49012000E-08	 5.50000000E+00
	 1.00000000E+00	 2.50000000E-01	 6.00000000E+00
	 7.50000000E-01	-1.49012000E-08	 6.00000000E+00
	 5.00000000E-01	-1.49012000E-08	 5.50000000E+00
	 5.00000000E-01	 2.50000000E-01	 6.00000000E+00
	-7.45058000E-09	 5.00000000E-01	 6.00000000E+00
	-7.45058000E-09	 1.00000000E+00	 6.00000000E+00
	 2.50000000E-01	 5.00000000E-01	 6.00000000E+00
	 2.50000000E-01	 1.00000000E+00	 6.00000000E+00
	-7.45058000E-09	 5.00000000E-01	 5.50000000E+00
	-7.45058000E-09	 7.50000000E-01	 6.00000000E+00
	-7.45058000E-09	 1.00000000E+00	 5.50000000E+00
	-7.45058000E-09	-1.49012000E-08	 6.00000000E+00
	 2.50000000E-01	-1.49012000E-08	 6.00000000E+00
	-7.45058000E-09	-1.49012000E-08	 5.50000000E+00
	-7.45058000E-09	 2.50000000E-01	 6.00000000E+00
	 1.00000000E+00	 5.00000000E-01	 7.00000000E+00
[...]
POINT_DATA 522
FIELD U 1
	U 3 522 double
		 0.00000000E+00	 0.00000000E+00	 0.00000000E+00
		 0.00000000E+00	 0.00000000E+00	 0.00000000E+00
		-1.46865000E-05	 2.49009000E-03	 4.17361000E-05
		-3.28156000E-04	 2.50302000E-03	-1.25338000E-03
		 0.00000000E+00	 0.00000000E+00	 0.00000000E+00
		 0.00000000E+00	 0.00000000E+00	 0.00000000E+00
		-7.75259000E-06	 2.12996000E-03	 4.05303000E-05
		-4.11145000E-04	 2.15474000E-03	-1.28717000E-03
		 0.00000000E+00	 0.00000000E+00	 0.00000000E+00
		-1.16076000E-05	 8.47755000E-04	 2.11438000E-05
		-1.73575000E-04	 2.47400000E-03	-5.02114000E-04
		 4.69818000E-06	 9.33210000E-04	-7.51978000E-04
		 0.00000000E+00	 0.00000000E+00	 0.00000000E+00
		 0.00000000E+00	 0.00000000E+00	 0.00000000E+00
		-1.12409000E-05	 2.32961000E-03	 4.09014000E-05
		-3.70403000E-04	 2.35102000E-03	-1.31998000E-03
		 0.00000000E+00	 0.00000000E+00	 0.00000000E+00
		-4.68775000E-06	 7.38855000E-04	 1.83983000E-05
		-2.09083000E-04	 2.11874000E-03	-5.65924000E-04
		-1.94903000E-04	 8.38583000E-04	-7.46607000E-04
		 0.00000000E+00	 0.00000000E+00	 0.00000000E+00
		 3.00644000E-04	 2.52041000E-03	 1.33589000E-03
		 0.00000000E+00	 0.00000000E+00	 0.00000000E+00
		 3.96731000E-04	 2.17101000E-03	 1.36680000E-03
		 0.00000000E+00	 0.00000000E+00	 0.00000000E+00
		-2.72703000E-05	 9.48825000E-04	 7.95831000E-04
		 1.44726000E-04	 2.48228000E-03	 5.84879000E-04
		 0.00000000E+00	 0.00000000E+00	 0.00000000E+00
		 3.49530000E-04	 2.36785000E-03	 1.40077000E-03
		 0.00000000E+00	 0.00000000E+00	 0.00000000E+00
		 1.85953000E-04	 8.53319000E-04	 7.84835000E-04
		 1.93900000E-04	 2.12645000E-03	 6.46296000E-04
		 0.00000000E+00	 0.00000000E+00	 0.00000000E+00
		 0.00000000E+00	 0.00000000E+00	 0.00000000E+00
		-5.96735000E-07	 1.68294000E-03	 3.93343000E-05
		-4.85100000E-04	 1.70628000E-03	-1.25688000E-03
		 0.00000000E+00	 0.00000000E+00	 0.00000000E+00
		 0.00000000E+00	 0.00000000E+00	 0.00000000E+00
		-4.10155000E-06	 1.92755000E-03	 3.98168000E-05
		-4.46619000E-04	 1.95066000E-03	-1.24325000E-03
		 0.00000000E+00	 0.00000000E+00	 0.00000000E+00
		 2.03556000E-06	 4.66875000E-04	 1.85461000E-05
		-2.43428000E-04	 1.67265000E-03	-5.83668000E-04
		-3.78351000E-04	 5.69793000E-04	-7.55448000E-04
		 0.00000000E+00	 0.00000000E+00	 0.00000000E+00
		 4.84111000E-04	 1.72120000E-03	 1.33389000E-03
		 0.00000000E+00	 0.00000000E+00	 0.00000000E+00
		 4.39048000E-04	 1.96613000E-03	 1.32118000E-03
		 0.00000000E+00	 0.00000000E+00	 0.00000000E+00
		 3.82401000E-04	 5.84331000E-04	 7.93634000E-04
		 2.42101000E-04	 1.67984000E-03	 6.61719000E-04
		-2.68921000E-05	 6.37303000E-03	 8.25418000E-05
		-1.03416000E-03	 6.33661000E-03	-1.27735000E-03
		-1.85886000E-05	 5.39911000E-03	 7.76470000E-05
		-9.68870000E-04	 5.36152000E-03	-1.28950000E-03
		-1.84024000E-05	 4.43146000E-03	 6.19783000E-05
		-5.27968000E-04	 6.36802000E-03	-5.31801000E-04
		-6.65380000E-04	 4.43752000E-03	-1.38630000E-03
		-2.28550000E-05	 5.87549000E-03	 7.96424000E-05
		-1.00076000E-03	 5.83624000E-03	-1.33186000E-03
		-1.07737000E-05	 3.78264000E-03	 5.90026000E-05
		-4.93922000E-04	 5.39486000E-03	-5.87707000E-04
		-6.66577000E-04	 3.78762000E-03	-1.40676000E-03
		 9.83003000E-04	 6.35656000E-03	 1.44166000E-03
		 9.32859000E-04	 5.37841000E-03	 1.44477000E-03
		 6.31337000E-04	 4.45814000E-03	 1.50989000E-03
		 4.74900000E-04	 6.37761000E-03	 6.96924000E-04
		 9.57251000E-04	 5.85459000E-03	 1.49043000E-03
		 6.46889000E-04	 3.80443000E-03	 1.52427000E-03
		 4.57108000E-04	 5.40284000E-03	 7.43011000E-04
		-1.05886000E-05	 4.47181000E-03	 7.29110000E-05
		-8.98427000E-04	 4.44285000E-03	-1.28621000E-03
		-1.43773000E-05	 4.92523000E-03	 7.57546000E-05
		-9.34286000E-04	 4.88951000E-03	-1.24981000E-03
		-3.54373000E-06	 3.11897000E-03	 5.63139000E-05
		-4.57700000E-04	 4.47048000E-03	-6.26764000E-04
		-6.66317000E-04	 3.12992000E-03	-1.39244000E-03
		 8.76858000E-04	 4.45930000E-03	 1.43250000E-03
		 9.05681000E-04	 4.90569000E-03	 1.40198000E-03
		 6.60333000E-04	 3.14472000E-03	 1.50447000E-03
		 4.36404000E-04	 4.47855000E-03	 7.72377000E-04
		-4.24979000E-05	 9.22949000E-03	 1.13741000E-04
		-1.73829000E-03	 9.21793000E-03	-8.61437000E-04
		-3.32898000E-05	 7.53492000E-03	 1.17622000E-04
		-1.73197000E-03	 7.52399000E-03	-8.38899000E-04
		-3.75160000E-05	 7.97296000E-03	 9.96868000E-05
		-8.90355000E-04	 9.22521000E-03	-3.58191000E-04
		-1.38235000E-03	 7.94760000E-03	-1.02542000E-03
		-3.83322000E-05	 8.38078000E-03	 1.15624000E-04
		-1.73481000E-03	 8.37065000E-03	-9.04621000E-04
		-2.89356000E-05	 6.66090000E-03	 9.72781000E-05
		-8.81455000E-04	 7.53206000E-03	-4.01768000E-04
		-1.31744000E-03	 6.63258000E-03	-1.02143000E-03
		 1.65265000E-03	 9.23448000E-03	 1.08977000E-03
		 1.66366000E-03	 7.54292000E-03	 1.07479000E-03
		 1.30770000E-03	 7.96389000E-03	 1.22413000E-03
		 8.05253000E-04	 9.23319000E-03	 5.85838000E-04
		 1.65725000E-03	 8.38828000E-03	 1.13675000E-03
		 1.25871000E-03	 6.64935000E-03	 1.21610000E-03
		 8.14493000E-04	 7.54129000E-03	 6.37212000E-04
		-2.22843000E-05	 5.83365000E-03	 1.20957000E-04
		-1.71133000E-03	 5.83078000E-03	-8.53852000E-04
		-2.78158000E-05	 6.68439000E-03	 1.19466000E-04
		-1.72150000E-03	 6.67401000E-03	-7.67539000E-04
		-1.95349000E-05	 5.39701000E-03	 9.48016000E-05
		-8.69374000E-04	 5.83426000E-03	-4.83726000E-04
		-1.24142000E-03	 5.38014000E-03	-1.02907000E-03
		 1.66367000E-03	 5.85465000E-03	 1.09607000E-03
		 1.66324000E-03	 6.69489000E-03	 1.00668000E-03
		 1.19975000E-03	 5.40036000E-03	 1.21950000E-03
		 8.24097000E-04	 5.84658000E-03	 7.25907000E-04
		-3.89743000E-05	 1.21811000E-02	 1.45254000E-04
		-2.69774000E-03	 1.22639000E-02	-1.56334000E-03
		-2.61181000E-05	 9.40649000E-03	 1.55610000E-04
		-2.90101000E-03	 9.49545000E-03	-1.53952000E-03
		-4.00080000E-05	 1.04471000E-02	 1.28824000E-04
		-1.37071000E-03	 1.21927000E-02	-6.45177000E-04
		-2.15094000E-03	 1.04797000E-02	-1.04613000E-03
		-3.26556000E-05	 1.08219000E-02	 1.50190000E-04
		-2.79950000E-03	 1.09096000E-02	-1.64496000E-03
		-2.93702000E-05	 8.27114000E-03	 1.37604000E-04
		-1.46329000E-03	 9.41998000E-03	-7.23260000E-04
		-2.26003000E-03	 8.31237000E-03	-1.01256000E-03
		 2.61915000E-03	 1.22981000E-02	 1.85440000E-03
		 2.84903000E-03	 9.53058000E-03	 1.85092000E-03
		 2.07067000E-03	 1.05031000E-02	 1.30580000E-03
		 1.29254000E-03	 1.22099000E-02	 9.36162000E-04
		 2.73409000E-03	 1.09450000E-02	 1.94542000E-03
		 2.20073000E-03	 8.33693000E-03	 1.28876000E-03
		 1.41129000E-03	 9.43804000E-03	 1.03464000E-03
		-1.19893000E-05	 6.43024000E-03	 1.65100000E-04
		-3.10289000E-03	 6.51224000E-03	-1.54388000E-03
		-1.92816000E-05	 7.94618000E-03	 1.60749000E-04
		-3.00203000E-03	 8.03401000E-03	-1.42979000E-03
		-1.72732000E-05	 5.98551000E-03	 1.45393000E-04
		-1.55498000E-03	 6.44117000E-03	-8.30071000E-04
		-2.35144000E-03	 6.03237000E-03	-1.03018000E-03
		 3.07999000E-03	 6.54761000E-03	 1.87391000E-03
		 2.96413000E-03	 8.06883000E-03	 1.75139000E-03
		 2.31599000E-03	 6.05903000E-03	 1.32075000E-03
		 1.53150000E-03	 6.45951000E-03	 1.16031000E-03
		-5.97760000E-05	 1.84113000E-02	 1.60906000E-04
		-3.93652000E-03	 1.84781000E-02	-3.09481000E-03
		-4.06064000E-05	 1.44429000E-02	 1.76493000E-04
		-4.10145000E-03	 1.45036000E-02	-3.09451000E-03
		-4.61400000E-05	 1.48458000E-02	 1.57035000E-04
		-1.99759000E-03	 1.84198000E-02	-1.35806000E-03
		-3.34101000E-03	 1.49284000E-02	-2.34256000E-03
		-5.01418000E-05	 1.64528000E-02	 1.68589000E-04
		-4.01988000E-03	 1.65144000E-02	-3.17224000E-03
		-3.04680000E-05	 1.14338000E-02	 1.68972000E-04
		-2.07185000E-03	 1.44464000E-02	-1.42515000E-03
		-3.55491000E-03	 1.15143000E-02	-2.33360000E-03
		 3.81241000E-03	 1.85403000E-02	 3.41568000E-03
		 4.01885000E-03	 1.45718000E-02	 3.44660000E-03
		 3.24623000E-03	 1.49753000E-02	 2.65569000E-03
		 1.87677000E-03	 1.84496000E-02	 1.67999000E-03
		 3.91627000E-03	 1.65813000E-02	 3.50803000E-03
		 3.49362000E-03	 1.15648000E-02	 2.67095000E-03
		 1.99040000E-03	 1.44809000E-02	 1.77794000E-03
		-1.96870000E-05	 1.02913000E-02	 1.92175000E-04
		-4.28012000E-03	 1.03394000E-02	-3.06361000E-03
		-3.06880000E-05	 1.23909000E-02	 1.84321000E-04
		-4.19143000E-03	 1.24497000E-02	-3.02263000E-03
		-1.30516000E-05	 7.79695000E-03	 1.80779000E-04
		-2.14640000E-03	 1.02884000E-02	-1.46057000E-03
		-3.78289000E-03	 7.86138000E-03	-2.31869000E-03
		 4.24255000E-03	 1.04082000E-02	 3.44740000E-03
		 4.13063000E-03	 1.25182000E-02	 3.39076000E-03
		 3.75859000E-03	 7.91267000E-03	 2.68033000E-03
		 2.10773000E-03	 1.03235000E-02	 1.84473000E-03
		-9.54323000E-05	 2.69703000E-02	 1.53967000E-04
		-4.79399000E-03	 2.69455000E-02	-3.77413000E-03
		-7.17180000E-05	 2.22737000E-02	 1.75715000E-04
		-4.78007000E-03	 2.22393000E-02	-3.76584000E-03
		-7.66069000E-05	 2.25949000E-02	 1.59274000E-04
		-2.44240000E-03	 2.69580000E-02	-1.74666000E-03
		-4.43274000E-03	 2.26169000E-02	-3.56594000E-03
		-8.32519000E-05	 2.46235000E-02	 1.64888000E-04
		-4.78701000E-03	 2.45912000E-02	-3.80674000E-03
		-5.48411000E-05	 1.82005000E-02	 1.78536000E-04
		-2.42641000E-03	 2.22564000E-02	-1.76684000E-03
		-4.50022000E-03	 1.82113000E-02	-3.56631000E-03
		 4.60022000E-03	 2.70286000E-02	 4.07822000E-03
		 4.63649000E-03	 2.23257000E-02	 4.11351000E-03
		 4.27531000E-03	 2.26932000E-02	 3.88275000E-03
		 2.25063000E-03	 2.69990000E-02	 2.05329000E-03
		 4.61860000E-03	 2.46770000E-02	 4.13302000E-03
		 4.38953000E-03	 1.82926000E-02	 3.92161000E-03
		 2.28296000E-03	 2.23001000E-02	 2.11722000E-03
		-4.74926000E-05	 1.75545000E-02	 1.97818000E-04
		-4.77558000E-03	 1.75196000E-02	-3.72935000E-03
		-6.00671000E-05	 1.99152000E-02	 1.86735000E-04
		-4.77838000E-03	 1.98803000E-02	-3.72702000E-03
		-3.20708000E-05	 1.37060000E-02	 1.97563000E-04
		-2.41258000E-03	 1.75364000E-02	-1.75945000E-03
		-4.58391000E-03	 1.37090000E-02	-3.52747000E-03
		 4.68291000E-03	 1.76040000E-02	 4.12129000E-03
		 4.65978000E-03	 1.99658000E-02	 4.09682000E-03
		 4.52171000E-03	 1.37895000E-02	 3.92089000E-03
		 2.31838000E-03	 1.75790000E-02	 2.15399000E-03
		-1.25878000E-04	 3.52794000E-02	 1.31086000E-04
		-5.23367000E-03	 3.52218000E-02	-3.60792000E-03
		-9.83576000E-05	 3.02024000E-02	 1.57655000E-04
		-5.15127000E-03	 3.01394000E-02	-3.58157000E-03
		-1.12794000E-04	 3.12392000E-02	 1.44280000E-04
		-2.67847000E-03	 3.52584000E-02	-1.71808000E-03
		-5.04384000E-03	 3.11941000E-02	-3.74228000E-03
		-1.12149000E-04	 3.27347000E-02	 1.44858000E-04
		-5.19307000E-03	 3.26726000E-02	-3.61510000E-03
		-8.68501000E-05	 2.63288000E-02	 1.68484000E-04
		-2.62505000E-03	 3.01783000E-02	-1.71271000E-03
		-4.98394000E-03	 2.62784000E-02	-3.72516000E-03
		 4.98086000E-03	 3.53005000E-02	 3.87128000E-03
		 4.95589000E-03	 3.02179000E-02	 3.89796000E-03
		 4.81704000E-03	 3.12754000E-02	 4.02700000E-03
		 2.42643000E-03	 3.52962000E-02	 1.98115000E-03
		 4.96838000E-03	 3.27521000E-02	 3.90577000E-03
		 4.81082000E-03	 2.63606000E-02	 4.05815000E-03
		 2.42870000E-03	 3.02169000E-02	 2.02870000E-03
		-7.16728000E-05	 2.51716000E-02	 1.81912000E-04
		-5.07655000E-03	 2.51099000E-02	-3.55681000E-03
		-8.47838000E-05	 2.76802000E-02	 1.69557000E-04
		-5.11324000E-03	 2.76176000E-02	-3.54743000E-03
		-6.10349000E-05	 2.14446000E-02	 1.93157000E-04
		-2.57482000E-03	 2.51480000E-02	-1.70974000E-03
		-4.92742000E-03	 2.13974000E-02	-3.69234000E-03
		 4.93675000E-03	 2.51839000E-02	 3.92154000E-03
		 4.94672000E-03	 2.76941000E-02	 3.88718000E-03
		 4.80742000E-03	 2.14770000E-02	 4.07443000E-03
		 2.43235000E-03	 2.51839000E-02	 2.07456000E-03
		-1.42131000E-04	 4.26251000E-02	 1.06049000E-04
		-5.40098000E-03	 4.25805000E-02	-3.44858000E-03
		-1.23258000E-04	 3.73783000E-02	 1.34491000E-04
		-5.36053000E-03	 3.73222000E-02	-3.41372000E-03
		-1.35348000E-04	 3.90360000E-02	 1.17945000E-04
		-2.76897000E-03	 4.26025000E-02	-1.67602000E-03
		-5.35522000E-03	 3.89887000E-02	-3.49269000E-03
		-1.31474000E-04	 4.00010000E-02	 1.21422000E-04
		-5.38141000E-03	 3.99482000E-02	-3.43285000E-03
		-1.09637000E-04	 3.38370000E-02	 1.46125000E-04
		-2.74225000E-03	 3.73488000E-02	-1.64825000E-03
		-5.29186000E-03	 3.37839000E-02	-3.45961000E-03
		 5.10686000E-03	 4.26703000E-02	 3.67191000E-03
		 5.11498000E-03	 3.74209000E-02	 3.69423000E-03
		 5.07861000E-03	 3.90682000E-02	 3.73705000E-03
		 2.48208000E-03	 4.26487000E-02	 1.89155000E-03
		 5.11262000E-03	 4.00450000E-02	 3.68663000E-03
		 5.07372000E-03	 3.38680000E-02	 3.76043000E-03
		 2.49608000E-03	 3.74009000E-02	 1.92035000E-03
		-1.04866000E-04	 3.21511000E-02	 1.51782000E-04
		-5.33786000E-03	 3.20911000E-02	-3.40433000E-03
		-1.15152000E-04	 3.47641000E-02	 1.44524000E-04
		-5.34838000E-03	 3.47040000E-02	-3.39794000E-03
		-8.45041000E-05	 2.86699000E-02	 1.66198000E-04
		-2.72423000E-03	 3.21207000E-02	-1.64383000E-03
		-5.23434000E-03	 2.86203000E-02	-3.44538000E-03
		 5.14001000E-03	 3.21787000E-02	 3.72005000E-03
		 5.12596000E-03	 3.47997000E-02	 3.69856000E-03
		 5.07354000E-03	 2.86953000E-02	 3.78652000E-03
		 2.51765000E-03	 3.21658000E-02	 1.95101000E-03
		 0.00000000E+00	 0.00000000E+00	 0.00000000E+00
		 0.00000000E+00	 0.00000000E+00	 0.00000000E+00
		-2.37624000E-05	-5.43963000E-03	-8.03761000E-06
		-1.66773000E-03	-5.63771000E-03	 4.76734000E-03
		 0.00000000E+00	 0.00000000E+00	 0.00000000E+00
		 0.00000000E+00	 0.00000000E+00	 0.00000000E+00
		-2.19248000E-05	-6.86925000E-03	-4.60178000E-05
		-1.23572000E-03	-7.08525000E-03	 4.82753000E-03
		 0.00000000E+00	 0.00000000E+00	 0.00000000E+00
		-3.59474000E-06	-1.28982000E-03	 2.31365000E-06
		-8.46665000E-04	-5.44510000E-03	 2.32167000E-03
		-1.30096000E-03	-1.71130000E-03	 2.68394000E-03
		 0.00000000E+00	 0.00000000E+00	 0.00000000E+00
		 0.00000000E+00	 0.00000000E+00	 0.00000000E+00
		-2.19285000E-05	-6.24251000E-03	-2.77494000E-05
		-1.44595000E-03	-6.44801000E-03	 4.71001000E-03
		 0.00000000E+00	 0.00000000E+00	 0.00000000E+00
		-4.17467000E-06	-2.19122000E-03	-1.51242000E-05
		-6.29366000E-04	-6.87774000E-03	 2.23695000E-03
		-5.95293000E-04	-2.59977000E-03	 2.62185000E-03
		 0.00000000E+00	 0.00000000E+00	 0.00000000E+00
		 1.62195000E-03	-5.58166000E-03	-4.79334000E-03
		 0.00000000E+00	 0.00000000E+00	 0.00000000E+00
		 1.19600000E-03	-7.03453000E-03	-4.92949000E-03
		 0.00000000E+00	 0.00000000E+00	 0.00000000E+00
		 1.29635000E-03	-1.68433000E-03	-2.68619000E-03
		 7.99060000E-04	-5.41783000E-03	-2.34059000E-03
		 0.00000000E+00	 0.00000000E+00	 0.00000000E+00
		 1.40503000E-03	-6.39464000E-03	-4.77507000E-03
		 0.00000000E+00	 0.00000000E+00	 0.00000000E+00
		 5.90900000E-04	-2.58289000E-03	-2.65831000E-03
		 5.84891000E-04	-6.85442000E-03	-2.33214000E-03
		 0.00000000E+00	 0.00000000E+00	 0.00000000E+00
		 0.00000000E+00	 0.00000000E+00	 0.00000000E+00
		-2.46609000E-05	-7.87031000E-03	-7.92748000E-05
		-7.97265000E-04	-8.05242000E-03	 4.69938000E-03
		 0.00000000E+00	 0.00000000E+00	 0.00000000E+00
		 0.00000000E+00	 0.00000000E+00	 0.00000000E+00
		-2.21579000E-05	-7.45638000E-03	-6.37697000E-05
		-1.01939000E-03	-7.65475000E-03	 4.89790000E-03
		 0.00000000E+00	 0.00000000E+00	 0.00000000E+00
		-1.02096000E-05	-2.47493000E-03	-2.82834000E-05
		-4.13821000E-04	-7.86550000E-03	 2.02875000E-03
		 1.49608000E-04	-2.84330000E-03	 2.65423000E-03
		 0.00000000E+00	 0.00000000E+00	 0.00000000E+00
		 7.50537000E-04	-8.00819000E-03	-4.86516000E-03
		 0.00000000E+00	 0.00000000E+00	 0.00000000E+00
		 9.77400000E-04	-7.61077000E-03	-5.03466000E-03
		 0.00000000E+00	 0.00000000E+00	 0.00000000E+00
		-1.67959000E-04	-2.83231000E-03	-2.71791000E-03
		 3.65738000E-04	-7.84783000E-03	-2.18888000E-03
		-9.50695000E-05	-1.74956000E-02	-9.17032000E-05
		-2.46432000E-03	-1.75121000E-02	 6.08584000E-03
		-9.38215000E-05	-1.98883000E-02	-1.61942000E-04
		-2.50203000E-03	-1.98993000E-02	 6.06101000E-03
		-5.36297000E-05	-1.11139000E-02	-3.95045000E-05
		-1.28313000E-03	-1.75202000E-02	 2.95988000E-03
		-2.09508000E-03	-1.12727000E-02	 5.83841000E-03
		-9.50573000E-05	-1.86776000E-02	-1.28920000E-04
		-2.48409000E-03	-1.86870000E-02	 6.02138000E-03
		-5.30418000E-05	-1.30552000E-02	-9.61194000E-05
		-1.29269000E-03	-1.99102000E-02	 2.86053000E-03
		-1.88524000E-03	-1.32092000E-02	 5.83948000E-03
		 2.27894000E-03	-1.74332000E-02	-6.27355000E-03
		 2.30986000E-03	-1.98300000E-02	-6.38675000E-03
		 1.99115000E-03	-1.11975000E-02	-5.92681000E-03
		 1.09395000E-03	-1.74812000E-02	-3.14474000E-03
		 2.29654000E-03	-1.86191000E-02	-6.28079000E-03
		 1.78184000E-03	-1.31424000E-02	-6.04044000E-03
		 1.10861000E-03	-1.98783000E-02	-3.18246000E-03
		-9.78640000E-05	-2.23074000E-02	-2.34550000E-04
		-2.52852000E-03	-2.23105000E-02	 5.94198000E-03
		-9.57614000E-05	-2.10821000E-02	-1.94940000E-04
		-2.51381000E-03	-2.11181000E-02	 6.10522000E-03
		-5.57504000E-05	-1.47832000E-02	-1.51924000E-04
		-1.31540000E-03	-2.23205000E-02	 2.66853000E-03
		-1.68335000E-03	-1.49376000E-02	 5.72700000E-03
		 2.35498000E-03	-2.22586000E-02	-6.41310000E-03
		 2.33173000E-03	-2.10275000E-02	-6.49890000E-03
		 1.58370000E-03	-1.48853000E-02	-6.03743000E-03
		 1.12561000E-03	-2.22993000E-02	-3.13491000E-03
		-1.72690000E-04	-2.87925000E-02	-2.40346000E-04
		-3.28911000E-03	-2.86121000E-02	 4.58792000E-03
		-1.73202000E-04	-3.20169000E-02	-2.85402000E-04
		-3.55889000E-03	-3.19529000E-02	 4.55145000E-03
		-1.38051000E-04	-2.35812000E-02	-1.60694000E-04
		-1.72569000E-03	-2.87398000E-02	 2.20618000E-03
		-2.87488000E-03	-2.35189000E-02	 5.55303000E-03
		-1.72573000E-04	-3.03699000E-02	-2.59251000E-04
		-3.42828000E-03	-3.02615000E-02	 4.50849000E-03
		-1.39282000E-04	-2.64152000E-02	-2.28785000E-04
		-1.88995000E-03	-3.20292000E-02	 2.09331000E-03
		-3.07316000E-03	-2.63620000E-02	 5.51801000E-03
		 2.89811000E-03	-2.86270000E-02	-5.04941000E-03
		 3.20143000E-03	-3.18604000E-02	-5.13637000E-03
		 2.58924000E-03	-2.34681000E-02	-5.87358000E-03
		 1.36560000E-03	-2.87495000E-02	-2.67412000E-03
		 3.04802000E-03	-3.02025000E-02	-5.03656000E-03
		 2.79203000E-03	-2.62897000E-02	-5.97437000E-03
		 1.51740000E-03	-3.19846000E-02	-2.68310000E-03
		-1.73696000E-04	-3.55363000E-02	-3.37131000E-04
		-3.93692000E-03	-3.56142000E-02	 4.48830000E-03
		-1.73759000E-04	-3.37533000E-02	-3.12438000E-04
		-3.75139000E-03	-3.36256000E-02	 4.59774000E-03
		-1.31113000E-04	-2.94396000E-02	-3.01513000E-04
		-2.01899000E-03	-3.56244000E-02	 1.95266000E-03
		-3.30683000E-03	-2.94312000E-02	 5.41546000E-03
		 3.53721000E-03	-3.54135000E-02	-5.20275000E-03
		 3.36845000E-03	-3.35905000E-02	-5.23669000E-03
		 3.00000000E-03	-2.93198000E-02	-6.01872000E-03
		 1.67123000E-03	-3.55280000E-02	-2.67084000E-03
		-1.29702000E-04	-3.59753000E-02	-3.90885000E-04
		-3.64578000E-03	-3.57047000E-02	 2.23694000E-03
		-1.33708000E-04	-3.96940000E-02	-3.55585000E-04
		-4.09128000E-03	-3.98941000E-02	 2.26460000E-03
		-2.03036000E-04	-3.28791000E-02	-3.17707000E-04
		-1.88520000E-03	-3.58792000E-02	 9.27837000E-04
		-3.59362000E-03	-3.27378000E-02	 3.40994000E-03
		-1.31515000E-04	-3.77593000E-02	-3.73416000E-04
		-3.86002000E-03	-3.76723000E-02	 2.26467000E-03
		-2.09797000E-04	-3.64619000E-02	-3.70958000E-04
		-1.98895000E-03	-3.98191000E-02	 9.74547000E-04
		-3.97049000E-03	-3.62807000E-02	 3.43236000E-03
		 3.21100000E-03	-3.58186000E-02	-3.01490000E-03
		 3.52114000E-03	-3.93817000E-02	-2.97120000E-03
		 3.15442000E-03	-3.27082000E-02	-4.03820000E-03
		 1.53893000E-03	-3.59426000E-02	-1.70824000E-03
		 3.36869000E-03	-3.75563000E-02	-3.00762000E-03
		 3.47598000E-03	-3.62514000E-02	-4.06594000E-03
		 1.68306000E-03	-3.95552000E-02	-1.68469000E-03
		-2.69087000E-04	-4.37724000E-02	-3.21446000E-04
		-4.40147000E-03	-4.43391000E-02	 2.30774000E-03
		-2.00659000E-04	-4.16545000E-02	-3.38368000E-04
		-4.24633000E-03	-4.25596000E-02	 2.25923000E-03
		-2.33894000E-04	-4.03793000E-02	-4.53374000E-04
		-2.45301000E-03	-4.40669000E-02	 1.03837000E-03
		-4.20766000E-03	-4.01039000E-02	 3.40604000E-03
		 3.85990000E-03	-4.32959000E-02	-2.94478000E-03