# vtk DataFile Version 3.0

ASCII
DATASET UNSTRUCTURED_GRID

POINTS 522 double
	 1.00000000E+00	 1.00000000E+00	-5.96046000E-08
	 1.00000000E+00	 5.00000000E-01	-5.96046000E-08
	 1.00000000E+00	 5.00000000E-01	 1.00000000E+00
	 1.00000000E+00	 1.00000000E+00	 1.00000000E+00
	 5.00000000E-01	 1.00000000E+00	-5.96046000E-08
	 5.00000000E-01	 5.00000000E-01	-5.96046000E-08
	 5.00000000E-01	 5.00000000E-01	 1.00000000E+00
	 5.00000000E-01	 1.00000000E+00	 1.00000000E+00
	 1.00000000E+00	 7.50000000E-01	-5.96046000E-08
	 1.00000000E+00	 5.00000000E-01	 5.00000000E-01
	 1.00000000E+00	 7.50000000E-01	 1.00000000E+00
	 1.00000000E+00	 1.00000000E+00	 5.00000000E-01
	 7.50000000E-01	 1.00000000E+00	-5.96046000E-08
	 7.50000000E-01	 5.00000000E-01	-5.96046000E-08
	 7.50000000E-01	 5.00000000E-01	 1.00000000E+00
	 7.50000000E-01	 1.00000000E+00	 1.00000000E+00
	 5.00000000E-01	 7.50000000E-01	-5.96046000E-08
	 5.00000000E-01	 5.00000000E-01	 5.00000000E-01
	 5.00000000E-01	 7.50000000E-01	 1.00000000E+00
	 5.00000000E-01	 1.00000000E+00	 5.00000000E-01
	 1.00000000E+00	-1.49012000E-08	-5.96046000E-08
	 1.00000000E+00	-1.49012000E-08	 1.00000000E+00
	 5.00000000E-01	-1.49012000E-08	-5.96046000E-08
	 5.00000000E-01	-1.49012000E-08	 1.00000000E+00
	 1.00000000E+00	 2.50000000E-01	-5.96046000E-08
	 1.00000000E+00	-1.49012000E-08	 5.00000000E-01
	 1.00000000E+00	 2.50000000E-01	 1.00000000E+00
	 7.50000000E-01	-1.49012000E-08	-5.96046000E-08
	 7.50000000E-01	-1.49012000E-08	 1.00000000E+00
	 5.00000000E-01	 2.50000000E-01	-5.96046000E-08
	 5.00000000E-01	-1.49012000E-08	 5.00000000E-01
	 5.00000000E-01	 2.50000000E-01	 1.00000000E+00
	-7.45058000E-09	 1.00000000E+00	-5.96046000E-08
	-7.45058000E-09	 5.00000000E-01	-5.96046000E-08
	-7.45058000E-09	 5.00000000E-01	 1.00000000E+00
	-7.45058000E-09	 1.00000000E+00	 1.00000000E+00
	 2.50000000E-01	 1.00000000E+00	-5.96046000E-08
	 2.50000000E-01	 5.00000000E-01	-5.96046000E-08
	 2.50000000E-01	 5.00000000E-01	 1.00000000E+00
	 2.50000000E-01	 1.00000000E+00	 1.00000000E+00
	-7.45058000E-09	 7.50000000E-01	-5.96046000E-08
	-7.45058000E-09	 5.00000000E-01	 5.00000000E-01
	-7.45058000E-09	 7.50000000E-01	 1.00000000E+00
	-7.45058000E-09	 1.00000000E+00	 5.00000000E-01
	-7.45058000E-09	-1.49012000E-08	-5.96046000E-08
	-7.45058000E-09	-1.49012000E-08	 1.00000000E+00
	 2.50000000E-01	-1.49012000E-08	-5.96046000E-08
	 2.50000000E-01	-1.49012000E-08	 1.00000000E+00
	-7.45058000E-09	 2.50000000E-01	-5.96046000E-08
	-7.45058000E-09	-1.49012000E-08	 5.00000000E-01
	-7.45058000E-09	 2.50000000E-01	 1.00000000E+00
	 1.00000000E+00	 5.00000000E-01	 2.00000000E+00
	 1.00000000E+00	 1.00000000E+00	 2.00000000E+00
	 5.00000000E-01	 5.00000000E-01	 2.00000000E+00
	 5.00000000E-01	 1.00000000E+00	 2.00000000E+00
	 1.00000000E+00	 5.00000000E-01	 1.50000000E+00
	 1.00000000E+00	 7.50000000E-01	 2.00000000E+00
	 1.00000000E+00	 1.00000000E+00	 1.50000000E+00
	 7.50000000E-01	 5.00000000E-01	 2.00000000E+00
	 7.50000000E-01	 1.00000000E+00	 2.00000000E+00
	 5.00000000E-01	 5.00000000E-01	 1.50000000E+00
	 5.00000000E-01	 7.50000000E-01	 2.00000000E+00
	 5.00000000E-01	 1.00000000E+00	 1.50000000E+00
	 1.00000000E+00	-1.49012000E-08	 2.00000000E+00
	 5.00000000E-01	-1.49012000E-08	 2.00000000E+00
	 1.00000000E+00	-1.49012000E-08	 1.50000000E+00
	 1.00000000E+00	 2.50000000E-01	 2.00000000E+00
	 7.50000000E-01	-1.49012000E-08	 2.00000000E+00
	 5.00000000E-01	-1.49012000E-08	 1.50000000E+00
	 5.00000000E-01	 2.50000000E-01	 2.00000000E+00
	-7.45058000E-09	 5.00000000E-01	 2.00000000E+00
	-7.45058000E-09	 1.00000000E+00	 2.00000000E+00
	 2.50000000E-01	 5.00000000E-01	 2.00000000E+00
	 2.50000000E-01	 1.00000000E+00	 2.00000000E+00
	-7.45058000E-09	 5.00000000E-01	 1.50000000E+00
	-7.45058000E-09	 7.50000000E-01	 2.00000000E+00
	-7.45058000E-09	 1.00000000E+00	 1.50000000E+00
	-7.45058000E-09	-1.49012000E-08	 2.00000000E+00
	 2.50000000E-01	-1.49012000E-08	 2.00000000E+00
	-7.45058000E-09	-1.49012000E-08	 1.50000000E+00
	-7.45058000E-09	 2.50000000E-01	 2.00000000E+00
	 1.00000000E+00	 5.00000000E-01	 3.00000000E+00
	 1.00000000E+00	 1.00000000E+00	 3.00000000E+00
	 5.00000000E-01	 5.00000000E-01	 3.00000000E+00
	 5.00000000E-01	 1.00000000E+00	 3.00000000E+00
	 1.00000000E+00	 5.00000000E-01	 2.50000000E+00
	 1.00000000E+00	 7.50000000E-01	 3.00000000E+00
	 1.00000000E+00	 1.00000000E+00	 2.50000000E+00
	 7.50000000E-01	 5.00000000E-01	 3.00000000E+00
	 7.50000000E-01	 1.00000000E+00	 3.00000000E+00
	 5.00000000E-01	 5.00000000E-01	 2.50000000E+00
	 5.00000000E-01	 7.50000000E-01	 3.00000000E+00
	 5.00000000E-01	 1.00000000E+00	 2.50000000E+00
	 1.00000000E+00	-1.49012000E-08	 3.00000000E+00
	 5.00000000E-01	-1.49012000E-08	 3.00000000E+00
	 1.00000000E+00	-1.49012000E-08	 2.50000000E+00
	 1.00000000E+00	 2.50000000E-01	 3.00000000E+00
	 7.50000000E-01	-1.49012000E-08	 3.00000000E+00
	 5.00000000E-01	-1.49012000E-08	 2.50000000E+00
	 5.00000000E-01	 2.50000000E-01	 3.00000000E+00
	-7.45058000E-09	 5.00000000E-01	 3.00000000E+00
	-7.45058000E-09	 1.00000000E+00	 3.00000000E+00
	 2.50000000E-01	 5.00000000E-01	 3.00000000E+00
	 2.50000000E-01	 1.00000000E+00	 3.00000000E+00
	-7.45058000E-09	 5.00000000E-01	 2.50000000E+00
	-7.45058000E-09	 7.50000000E-01	 3.00000000E+00
	-7.45058000E-09	 1.00000000E+00	 2.50000000E+00
	-7.45058000E-09	-1.49012000E-08	 3.00000000E+00
	 2.50000000E-01	-1.49012000E-08	 3.00000000E+00
	-7.45058000E-09	-1.49012000E-08	 2.50000000E+00
	-7.45058000E-09	 2.50000000E-01	 3.00000000E+00
	 1.00000000E+00	 5.00000000E-01	 4.00000000E+00
	 1.00000000E+00	 1.00000000E+00	 4.00000000E+00
	 5.00000000E-01	 5.00000000E-01	 4.00000000E+00
	 5.00000000E-01	 1.00000000E+00	 4.00000000E+00
	 1.00000000E+00	 5.00000000E-01	 3.50000000E+00
	 1.00000000E+00	 7.50000000E-01	 4.00000000E+00
	 1.00000000E+00	 1.00000000E+00	 3.50000000E+00
	 7.50000000E-01	 5.00000000E-01	 4.00000000E+00
	 7.50000000E-01	 1.00000000E+00	 4.00000000E+00
	 5.00000000E-01	 5.00000000E-01	 3.50000000E+00
	 5.00000000E-01	 7.50000000E-01	 4.00000000E+00
	 5.00000000E-01	 1.00000000E+00	 3.50000000E+00
	 1.00000000E+00	-1.49012000E-08	 4.00000000E+00
	 5.00000000E-01	-1.49012000E-08	 4.00000000E+00
	 1.00000000E+00	-1.49012000E-08	 3.50000000E+00
	 1.00000000E+00	 2.50000000E-01	 4.00000000E+00
	 7.50000000E-01	-1.49012000E-08	 4.00000000E+00
	 5.00000000E-01	-1.49012000E-08	 3.50000000E+00
	 5.00000000E-01	 2.50000000E-01	 4.00000000E+00
	-7.45058000E-09	 5.00000000E-01	 4.00000000E+00
	-7.45058000E-09	 1.00000000E+00	 4.00000000E+00
	 2.50000000E-01	 5.00000000E-01	 4.00000000E+00
	 2.50000000E-01	 1.00000000E+00	 4.00000000E+00
	-7.45058000E-09	 5.00000000E-01	 3.50000000E+00
	-7.45058000E-09	 7.50000000E-01	 4.00000000E+00
	-7.45058000E-09	 1.00000000E+00	 3.50000000E+00
	-7.45058000E-09	-1.49012000E-08	 4.00000000E+00
	 2.50000000E-01	-1.49012000E-08	 4.00000000E+00
	-7.45058000E-09	-1.49012000E-08	 3.50000000E+00
	-7.45058000E-09	 2.50000000E-01	 4.00000000E+00
	 1.00000000E+00	 5.00000000E-01	 5.00000000E+00
	 1.00000000E+00	 1.00000000E+00	 5.00000000E+00
	 5.00000000E-01	 5.00000000E-01	 5.00000000E+00
	 5.00000000E-01	 1.00000000E+00	 5.00000000E+00
	 1.00000000E+00	 5.00000000E-01	 4.50000000E+00
	 1.00000000E+00	 7.50000000E-01	 5.00000000E+00
	 1.00000000E+00	 1.00000000E+00	 4.50000000E+00
	 7.50000000E-01	 5.00000000E-01	 5.00000000E+00
	 7.50000000E-01	 1.00000000E+00	 5.00000000E+00
	 5.00000000E-01	 5.00000000E-01	 4.50000000E+00
	 5.00000000E-01	 7.50000000E-01	 5.00000000E+00
	 5.00000000E-01	 1.00000000E+00	 4.50000000E+00
	 1.00000000E+00	-1.49012000E-08	 5.00000000E+00
	 5.00000000E-01	-1.49012000E-08	 5.00000000E+00
	 1.00000000E+00	-1.49012000E-08	 4.50000000E+00
	 1.00000000E+00	 2.50000000E-01	 5.00000000E+00
	 7.50000000E-01	-1.49012000E-08	 5.00000000E+00
	 5.00000000E-01	-1.49012000E-08	 4.50000000E+00
	 5.00000000E-01	 2.50000000E-01	 5.00000000E+00
	-7.45058000E-09	 5.00000000E-01	 5.00000000E+00
	-7.45058000E-09	 1.00000000E+00	 5.00000000E+00
	 2.50000000E-01	 5.00000000E-01	 5.00000000E+00
	 2.50000000E-01	 1.00000000E+00	 5.00000000E+00
	-7.45058000E-09	 5.00000000E-01	 4.50000000E+00
	-7.45058000E-09	 7.50000000E-01	 5.00000000E+00
	-7.45058000E-09	 1.00000000E+00	 4.50000000E+00
	-7.45058000E-09	-1.49012000E-08	 5.00000000E+00
	 2.50000000E-01	-1.49012000E-08	 5.00000000E+00
	-7.45058000E-09	-1.49012000E-08	 4.50000000E+00
	-7.45058000E-09	 2.50000000E-01	 5.00000000E+00
	 1.00000000E+00	 5.00000000E-01	 6.00000000E+00
	 1.00000000E+00	 1.00000000E+00	 6.00000000E+00
	 5.00000000E-01	 5.00000000E-01	 6.00000000E+00
	 5.00000000E-01	 1.00000000E+00	 6.00000000E+00
	 1.00000000E+00	 5.00000000E-01	 5.50000000E+00
	 1.00000000E+00	 7.50000000E-01	 6.00000000E+00
	 1.00000000E+00	 1.00000000E+00	 5.50000000E+00
	 7.50000000E-01	 5.00000000E-01	 6.00000000E+00
	 7.50000000E-01	 1.00000000E+00	 6.00000000E+00
	 5.00000000E-01	 5.00000000E-01	 5.50000000E+00
	 5.00000000E-01	 7.50000000E-01	 6.00000000E+00
	 5.00000000E-01	 1.00000000E+00	 5.50000000E+00
	 1.00000000E+00	-1.49012000E-08	 6.00000000E+00
	 5.00000000E-01	-1.49012000E-08	 6.00000000E+00
	 1.00000000E+00	-1.49012000E-08	 5.50000000E+00
	 1.00000000E+00	 2.50000000E-01	 6.00000000E+00
	 7.50000000E-01	-1.49012000E-08	 6.00000000E+00
	 5.00000000E-01	-1.49012000E-08	 5.50000000E+00
	 5.00000000E-01	 2.50000000E-01	 6.00000000E+00
	-7.45058000E-09	 5.00000000E-01	 6.00000000E+00
	-7.45058000E-09	 1.00000000E+00	 6.00000000E+00
	 2.50000000E-01	 5.00000000E-01	 6.00000000E+00
	 2.50000000E-01	 1.00000000E+00	 6.00000000E+00
	-7.45058000E-09	 5.00000000E-01	 5.50000000E+00
	-7.45058000E-09	 7.50000000E-01	 6.00000000E+00
	-7.45058000E-09	 1.00000000E+00	 5.50000000E+00
	-7.45058000E-09	-1.49012000E-08	 6.00000000E+00
	 2.50000000E-01	-1.49012000E-08	 6.00000000E+00
	-7.45058000E-09	-1.49012000E-08	 5.50000000E+00
	-7.45058000E-09	 2.50000000E-01	 6.00000000E+00
	 1.00000000E+00	 5.00000000E-01	 7.00000000E+00
[...]
POINT_DATA 522
FIELD U 1
	U 3 522 double
		 0.00000000E+00	 0.00000000E+00	 0.00000000E+00
		 0.00000000E+00	 0.00000000E+00	 0.00000000E+00
		-2.20072000E-05	 1.95531000E-03	 3.85231000E-05
		-1.97423000E-04	 1.92721000E-03	-6.93519000E-04
		 0.00000000E+00	 0.00000000E+00	 0.00000000E+00
		 0.00000000E+00	 0.00000000E+00	 0.00000000E+00
		-1.70806000E-05	 1.80534000E-03	 2.55198000E-05
		-1.53261000E-04	 1.77524000E-03	-7.40888000E-04
		 0.00000000E+00	 0.00000000E+00	 0.00000000E+00
		-8.20108000E-06	 7.74618000E-04	 1.89049000E-05
		-1.09114000E-04	 1.93742000E-03	-2.40837000E-04
		 1.45387000E-05	 8.18436000E-04	-5.26761000E-04
		 0.00000000E+00	 0.00000000E+00	 0.00000000E+00
		 0.00000000E+00	 0.00000000E+00	 0.00000000E+00
		-1.94614000E-05	 1.88368000E-03	 3.10575000E-05
		-1.76214000E-04	 1.85334000E-03	-7.40982000E-04
		 0.00000000E+00	 0.00000000E+00	 0.00000000E+00
		-3.01458000E-06	 7.21164000E-04	 1.12663000E-05
		-8.59486000E-05	 1.78556000E-03	-2.89596000E-04
		-9.69689000E-05	 7.75157000E-04	-5.39353000E-04
		 0.00000000E+00	 0.00000000E+00	 0.00000000E+00
		 1.55679000E-04	 1.93897000E-03	 7.69258000E-04
		 0.00000000E+00	 0.00000000E+00	 0.00000000E+00
		 1.20494000E-04	 1.78453000E-03	 7.91753000E-04
		 0.00000000E+00	 0.00000000E+00	 0.00000000E+00
		-2.81913000E-05	 8.32227000E-04	 5.65878000E-04
		 6.56707000E-05	 1.94323000E-03	 3.17496000E-04
		 0.00000000E+00	 0.00000000E+00	 0.00000000E+00
		 1.39273000E-04	 1.86370000E-03	 8.02035000E-04
		 0.00000000E+00	 0.00000000E+00	 0.00000000E+00
		 9.32191000E-05	 7.84001000E-04	 5.62817000E-04
		 5.20840000E-05	 1.78983000E-03	 3.40378000E-04
		 0.00000000E+00	 0.00000000E+00	 0.00000000E+00
		 0.00000000E+00	 0.00000000E+00	 0.00000000E+00
		-1.26185000E-05	 1.68198000E-03	 1.27954000E-05
		-1.21463000E-04	 1.64433000E-03	-7.18060000E-04
		 0.00000000E+00	 0.00000000E+00	 0.00000000E+00
		 0.00000000E+00	 0.00000000E+00	 0.00000000E+00
		-1.46693000E-05	 1.74622000E-03	 1.98657000E-05
		-1.36710000E-04	 1.71380000E-03	-7.37080000E-04
		 0.00000000E+00	 0.00000000E+00	 0.00000000E+00
		 4.32436000E-07	 5.84600000E-04	 5.54270000E-06
		-6.63581000E-05	 1.65901000E-03	-2.80424000E-04
		-2.07545000E-04	 6.35668000E-04	-5.40567000E-04
		 0.00000000E+00	 0.00000000E+00	 0.00000000E+00
		 9.68257000E-05	 1.65168000E-03	 7.44607000E-04
		 0.00000000E+00	 0.00000000E+00	 0.00000000E+00
		 1.08264000E-04	 1.72203000E-03	 7.77599000E-04
		 0.00000000E+00	 0.00000000E+00	 0.00000000E+00
		 2.10327000E-04	 6.40352000E-04	 5.52174000E-04
		 4.11448000E-05	 1.66228000E-03	 3.05813000E-04
		-4.84430000E-05	 2.91688000E-03	 6.14484000E-05
		-2.77600000E-06	 2.84979000E-03	 8.42069000E-05
		-4.32269000E-05	 3.05685000E-03	 5.51741000E-05
		 1.73090000E-04	 2.97473000E-03	 7.44048000E-05
		-3.90672000E-05	 2.80492000E-03	 5.09106000E-05
		-2.07708000E-05	 2.90726000E-03	 1.66168000E-05
		-2.30118000E-04	 2.77871000E-03	-4.08949000E-04
		-4.62207000E-05	 2.96630000E-03	 5.85321000E-05
		 8.37576000E-05	 2.88595000E-03	 1.38092000E-04
		-3.42480000E-05	 2.69389000E-03	 3.93843000E-05
		 6.35066000E-05	 3.03964000E-03	 6.62666000E-05
		-8.99514000E-05	 2.64700000E-03	-4.34959000E-04
		-9.48092000E-05	 2.85679000E-03	 3.91421000E-05
		-2.61400000E-04	 2.98377000E-03	 3.61130000E-05
		 1.51803000E-04	 2.78634000E-03	 5.10301000E-04
		-7.62581000E-05	 2.91055000E-03	 1.06287000E-04
		-1.77185000E-04	 2.89374000E-03	-2.06996000E-05
		 2.05827000E-05	 2.65586000E-03	 5.14203000E-04
		-1.50433000E-04	 3.04389000E-03	 4.41287000E-05
		-3.68437000E-05	 3.35204000E-03	 4.94475000E-05
		 3.26411000E-04	 3.25819000E-03	 7.26921000E-05
		-4.00305000E-05	 3.18121000E-03	 5.19744000E-05
		 2.49154000E-04	 3.09594000E-03	 1.65949000E-05
		-2.87481000E-05	 2.69516000E-03	 2.85044000E-05
		 1.45837000E-04	 3.32737000E-03	 1.20510000E-04
		 2.19443000E-05	 2.63817000E-03	-4.30087000E-04
		-4.03219000E-04	 3.27194000E-03	 2.59331000E-05
		-3.32007000E-04	 3.10705000E-03	 8.73143000E-05
		-8.15036000E-05	 2.65040000E-03	 4.88457000E-04
		-2.20243000E-04	 3.33434000E-03	-2.16665000E-05
		-6.03940000E-05	 8.06823000E-04	 8.87802000E-05
		 1.12689000E-03	 7.14260000E-04	 1.15642000E-03
		-5.38720000E-05	 2.08214000E-03	 8.62250000E-05
		 1.30959000E-03	 1.98849000E-03	 1.14734000E-03
		-5.26623000E-05	 2.17933000E-03	 7.52981000E-05
		 5.32540000E-04	 7.80897000E-04	 5.39865000E-04
		 4.91976000E-04	 2.10270000E-03	 6.05327000E-04
		-5.74068000E-05	 1.42393000E-03	 8.70549000E-05
		 1.21837000E-03	 1.33118000E-03	 1.25112000E-03
		-4.67915000E-05	 2.81083000E-03	 7.12934000E-05
		 6.27988000E-04	 2.05502000E-03	 6.35243000E-04
		 6.63414000E-04	 2.72431000E-03	 6.00758000E-04
		-1.24800000E-03	 7.28326000E-04	-9.79309000E-04
		-1.41824000E-03	 2.00316000E-03	-9.74999000E-04
		-5.97130000E-04	 2.11289000E-03	-4.53942000E-04
		-6.53660000E-04	 7.87732000E-04	-3.62003000E-04
		-1.33352000E-03	 1.34583000E-03	-1.07777000E-03
		-7.57920000E-04	 2.73436000E-03	-4.58085000E-04
		-7.36069000E-04	 2.06234000E-03	-4.62779000E-04
		-4.64822000E-05	 3.53384000E-03	 8.23622000E-05
		 1.48823000E-03	 3.43451000E-03	 1.15147000E-03
		-5.00179000E-05	 2.78689000E-03	 8.50666000E-05
		 1.39860000E-03	 2.69187000E-03	 1.04053000E-03
		-4.02015000E-05	 3.60088000E-03	 6.72317000E-05
		 7.22258000E-04	 3.50411000E-03	 7.43817000E-04
		 8.14554000E-04	 3.50191000E-03	 5.97838000E-04
		-1.58249000E-03	 3.45149000E-03	-9.86683000E-04
		-1.50004000E-03	 2.70718000E-03	-8.70119000E-04
		-8.96683000E-04	 3.51432000E-03	-4.64123000E-04
		-8.15536000E-04	 3.51297000E-03	-5.79229000E-04
		-7.28126000E-05	-3.77489000E-03	 8.88941000E-05
		 2.32653000E-03	-3.90996000E-03	 2.63331000E-03
		-6.64610000E-05	-1.24048000E-03	 1.01738000E-04
		 2.58595000E-03	-1.38485000E-03	 2.64665000E-03
		-6.86968000E-05	-1.11360000E-03	 9.40930000E-05
		 1.12919000E-03	-3.80745000E-03	 1.28169000E-03
		 1.75696000E-03	-1.23330000E-03	 1.83837000E-03
		-6.97448000E-05	-2.54050000E-03	 9.54208000E-05
		 2.45667000E-03	-2.68168000E-03	 2.72056000E-03
		-6.26047000E-05	 8.21046000E-04	 9.74558000E-05
		 1.26111000E-03	-1.27728000E-03	 1.37557000E-03
		 1.97926000E-03	 7.01202000E-04	 1.83273000E-03
		-2.48007000E-03	-3.88715000E-03	-2.45677000E-03
		-2.72403000E-03	-1.35063000E-03	-2.44445000E-03
		-1.89832000E-03	-1.21698000E-03	-1.65183000E-03
		-1.27684000E-03	-3.79722000E-03	-1.10350000E-03
		-2.60320000E-03	-2.65148000E-03	-2.53180000E-03
		-2.10747000E-03	 7.23690000E-04	-1.63867000E-03
		-1.39540000E-03	-1.25961000E-03	-1.17225000E-03
		-5.69095000E-05	 1.53344000E-03	 1.13634000E-04
		 2.85447000E-03	 1.39459000E-03	 2.65723000E-03
		-6.25066000E-05	 1.13933000E-04	 1.07723000E-04
		 2.71930000E-03	-3.04337000E-05	 2.56951000E-03
		-5.43053000E-05	 2.97129000E-03	 9.88481000E-05
		 1.39650000E-03	 1.49824000E-03	 1.46894000E-03
		 2.21463000E-03	 2.85649000E-03	 1.84430000E-03
		-2.97044000E-03	 1.43553000E-03	-2.43097000E-03
		-2.84767000E-03	 6.72016000E-06	-2.35471000E-03
		-2.32506000E-03	 2.88396000E-03	-1.64661000E-03
		-1.51060000E-03	 1.51980000E-03	-1.24202000E-03
		-7.64547000E-05	-1.19287000E-02	 5.67608000E-05
		 3.54164000E-03	-1.20196000E-02	 4.00976000E-03
		-6.29592000E-05	-8.24203000E-03	 8.91058000E-05
		 3.68367000E-03	-8.33899000E-03	 4.06212000E-03
		-7.44893000E-05	-7.42248000E-03	 7.50499000E-05
		 1.73461000E-03	-1.19561000E-02	 1.89683000E-03
		 2.91627000E-03	-7.53460000E-03	 3.42421000E-03
		-6.94694000E-05	-1.01016000E-02	 7.29311000E-05
		 3.61249000E-03	-1.01980000E-02	 4.12736000E-03
		-6.54491000E-05	-4.31609000E-03	 9.80550000E-05
		 1.81055000E-03	-8.27346000E-03	 2.02747000E-03
		 3.14080000E-03	-4.43915000E-03	 3.46040000E-03
		-3.70124000E-03	-1.19592000E-02	-3.89453000E-03
		-3.81254000E-03	-8.26946000E-03	-3.88327000E-03
		-3.07405000E-03	-7.49598000E-03	-3.27394000E-03
		-1.88935000E-03	-1.19281000E-02	-1.78306000E-03
		-3.75687000E-03	-1.01305000E-02	-3.97976000E-03
		-3.27684000E-03	-4.38841000E-03	-3.26461000E-03
		-1.93727000E-03	-8.23848000E-03	-1.84900000E-03
		-4.80064000E-05	-4.43242000E-03	 1.22530000E-04
		 3.82889000E-03	-4.52690000E-03	 4.07301000E-03
		-5.61563000E-05	-6.35354000E-03	 1.05357000E-04
		 3.75580000E-03	-6.44977000E-03	 4.00297000E-03
		-5.39036000E-05	-1.00560000E-03	 1.21601000E-04
		 1.88947000E-03	-4.46327000E-03	 2.11634000E-03
		 3.36999000E-03	-1.12464000E-03	 3.46867000E-03
		-3.92392000E-03	-4.45613000E-03	-3.82838000E-03
		-3.86861000E-03	-6.37995000E-03	-3.79280000E-03
		-3.47927000E-03	-1.06846000E-03	-3.22603000E-03
		-1.98502000E-03	-4.42692000E-03	-1.87095000E-03
		-8.13419000E-05	-2.18796000E-02	 2.81532000E-05
		 4.80316000E-03	-2.18993000E-02	 4.09682000E-03
		-5.73722000E-05	-1.70431000E-02	 6.90458000E-05
		 4.74863000E-03	-1.70517000E-02	 4.15104000E-03
		-7.89353000E-05	-1.69152000E-02	 3.98967000E-05
		 2.35780000E-03	-2.19013000E-02	 1.95245000E-03
		 4.18888000E-03	-1.69700000E-02	 4.20581000E-03
		-6.86593000E-05	-1.94514000E-02	 4.94418000E-05
		 4.77641000E-03	-1.94636000E-02	 4.20733000E-03
		-6.02174000E-05	-1.26403000E-02	 7.87479000E-05
		 2.34533000E-03	-1.70605000E-02	 2.08098000E-03
		 4.22556000E-03	-1.26938000E-02	 4.26624000E-03
		-4.96601000E-03	-2.18058000E-02	-4.04120000E-03
		-4.85832000E-03	-1.69612000E-02	-4.01372000E-03
		-4.34938000E-03	-1.68892000E-02	-4.12415000E-03
		-2.52084000E-03	-2.18552000E-02	-1.89656000E-03
		-4.91187000E-03	-1.93694000E-02	-4.10905000E-03
		-4.34437000E-03	-1.26104000E-02	-4.10858000E-03
		-2.45863000E-03	-1.70144000E-02	-1.94321000E-03
		-3.47140000E-05	-1.22720000E-02	 1.08881000E-04
		 4.70094000E-03	-1.22755000E-02	 4.17688000E-03
		-4.63220000E-05	-1.46466000E-02	 8.84751000E-05
		 4.72528000E-03	-1.46520000E-02	 4.09651000E-03
		-4.14085000E-05	-8.34498000E-03	 1.17836000E-04
		 2.33337000E-03	-1.22857000E-02	 2.18205000E-03
		 4.26313000E-03	-8.39696000E-03	 4.28099000E-03
		-4.76075000E-03	-1.21975000E-02	-3.96002000E-03
		-4.80960000E-03	-1.45675000E-02	-3.92055000E-03
		-4.34030000E-03	-8.31989000E-03	-4.04691000E-03
		-2.40029000E-03	-1.22463000E-02	-1.96445000E-03
		-9.12254000E-05	-3.02501000E-02	 1.89696000E-05
		 5.60962000E-03	-3.02612000E-02	 3.40772000E-03
		-5.89662000E-05	-2.46020000E-02	 5.30918000E-05
		 5.54474000E-03	-2.46043000E-02	 3.43793000E-03
		-8.42990000E-05	-2.63744000E-02	 2.27645000E-05
		 2.75696000E-03	-3.02679000E-02	 1.69186000E-03
		 5.29094000E-03	-2.63904000E-02	 3.76366000E-03
		-7.41572000E-05	-2.74157000E-02	 3.56726000E-05
		 5.57803000E-03	-2.74197000E-02	 3.45581000E-03
		-5.58826000E-05	-2.10629000E-02	 6.04592000E-05
		 2.74310000E-03	-2.46160000E-02	 1.75954000E-03
		 5.20677000E-03	-2.10650000E-02	 3.80406000E-03
		-5.79626000E-03	-3.01707000E-02	-3.37070000E-03
		-5.66319000E-03	-2.45115000E-02	-3.33186000E-03
		-5.46119000E-03	-2.62963000E-02	-3.72084000E-03
		-2.94077000E-03	-3.02237000E-02	-1.65390000E-03
		-5.72953000E-03	-2.73267000E-02	-3.38533000E-03
		-5.31549000E-03	-2.09730000E-02	-3.68410000E-03
		-2.86147000E-03	-2.45687000E-02	-1.65339000E-03
		-2.93055000E-05	-1.90405000E-02	 8.74623000E-05
		 5.49441000E-03	-1.90348000E-02	 3.48248000E-03
		-4.42968000E-05	-2.18083000E-02	 7.07426000E-05
		 5.51983000E-03	-2.18085000E-02	 3.41668000E-03
		-2.98051000E-05	-1.58499000E-02	 9.70111000E-05
		 2.73103000E-03	-1.90499000E-02	 1.84264000E-03
		 5.13616000E-03	-1.58443000E-02	 3.84030000E-03
		-5.54907000E-03	-1.89471000E-02	-3.30684000E-03
		-5.60614000E-03	-2.17179000E-02	-3.27430000E-03
		-5.18771000E-03	-1.57632000E-02	-3.64558000E-03
		-2.78868000E-03	-1.90047000E-02	-1.66800000E-03
		-1.01235000E-04	-3.67220000E-02	 5.23935000E-06
		 5.78248000E-03	-3.67641000E-02	 3.12282000E-03
		-6.66071000E-05	-3.08522000E-02	 4.06569000E-05
		 5.80475000E-03	-3.08901000E-02	 3.15799000E-03
		-9.82067000E-05	-3.35966000E-02	 1.30725000E-05
		 2.84093000E-03	-3.67426000E-02	 1.57285000E-03
		 5.75429000E-03	-3.36283000E-02	 3.19865000E-03
		-8.40593000E-05	-3.37856000E-02	 2.25205000E-05
		 5.79466000E-03	-3.38248000E-02	 3.13654000E-03
		-6.43058000E-05	-2.77721000E-02	 4.73531000E-05
		 2.87244000E-03	-3.08700000E-02	 1.60727000E-03
		 5.73854000E-03	-2.77987000E-02	 3.22931000E-03
		-5.98785000E-03	-3.66733000E-02	-3.11155000E-03
		-5.93789000E-03	-3.07992000E-02	-3.07814000E-03
		-5.95503000E-03	-3.35387000E-02	-3.17164000E-03
		-3.04420000E-03	-3.66965000E-02	-1.56245000E-03
		-5.96445000E-03	-3.37331000E-02	-3.09097000E-03
		-5.86789000E-03	-2.77058000E-02	-3.13500000E-03
		-3.00562000E-03	-3.08235000E-02	-1.52631000E-03
		-3.18691000E-05	-2.50015000E-02	 7.72610000E-05
		 5.84865000E-03	-2.50286000E-02	 3.21485000E-03
		-4.93550000E-05	-2.79292000E-02	 5.91967000E-05
		 5.82616000E-03	-2.79628000E-02	 3.18187000E-03
		-3.12412000E-05	-2.19906000E-02	 8.31622000E-05
		 2.90933000E-03	-2.50137000E-02	 1.65942000E-03
		 5.74140000E-03	-2.20097000E-02	 3.28253000E-03
		-5.90981000E-03	-2.49397000E-02	-3.06317000E-03
		-5.92313000E-03	-2.78729000E-02	-3.06650000E-03
		-5.80196000E-03	-2.19181000E-02	-3.11763000E-03
		-2.97179000E-03	-2.49689000E-02	-1.50529000E-03
		 0.00000000E+00	 0.00000000E+00	 0.00000000E+00
		 0.00000000E+00	 0.00000000E+00	 0.00000000E+00
		 1.14406000E-04	-4.14536000E-03	-2.59219000E-04
		-3.25319000E-04	-4.24991000E-03	 2.92472000E-03
		 0.00000000E+00	 0.00000000E+00	 0.00000000E+00
		 0.00000000E+00	 0.00000000E+00	 0.00000000E+00
		 8.19502000E-05	-4.43759000E-03	-1.96603000E-04
		-6.09490000E-05	-4.55657000E-03	 3.04471000E-03
		 0.00000000E+00	 0.00000000E+00	 0.00000000E+00
		 5.87522000E-05	-1.15139000E-03	-1.20224000E-04
		-1.06406000E-04	-4.13592000E-03	 1.25532000E-03
		-4.67019000E-04	-1.38239000E-03	 1.64117000E-03
		 0.00000000E+00	 0.00000000E+00	 0.00000000E+00
		 0.00000000E+00	 0.00000000E+00	 0.00000000E+00
		 9.67167000E-05	-4.35039000E-03	-2.25955000E-04
		-1.91450000E-04	-4.46016000E-03	 2.98229000E-03
		 0.00000000E+00	 0.00000000E+00	 0.00000000E+00
		 2.44848000E-05	-1.39865000E-03	-8.26043000E-05
		 1.14184000E-05	-4.43262000E-03	 1.33628000E-03
		-1.91945000E-05	-1.64378000E-03	 1.64806000E-03
		 0.00000000E+00	 0.00000000E+00	 0.00000000E+00
		 5.44344000E-04	-4.29931000E-03	-3.44551000E-03
		 0.00000000E+00	 0.00000000E+00	 0.00000000E+00
		 2.18761000E-04	-4.59184000E-03	-3.44262000E-03
		 0.00000000E+00	 0.00000000E+00	 0.00000000E+00
		 5.75850000E-04	-1.44799000E-03	-1.89597000E-03
		 3.32916000E-04	-4.16134000E-03	-1.77267000E-03
		 0.00000000E+00	 0.00000000E+00	 0.00000000E+00
		 3.76963000E-04	-4.50143000E-03	-3.43802000E-03
		 0.00000000E+00	 0.00000000E+00	 0.00000000E+00
		 6.04486000E-05	-1.69077000E-03	-1.82637000E-03
		 1.50601000E-04	-4.45094000E-03	-1.73009000E-03
		 0.00000000E+00	 0.00000000E+00	 0.00000000E+00
		 0.00000000E+00	 0.00000000E+00	 0.00000000E+00
		 5.60481000E-05	-4.42591000E-03	-1.31393000E-04
		 2.20790000E-04	-4.53616000E-03	 3.05134000E-03
		 0.00000000E+00	 0.00000000E+00	 0.00000000E+00
		 0.00000000E+00	 0.00000000E+00	 0.00000000E+00
		 6.77189000E-05	-4.49052000E-03	-1.65556000E-04
		 7.59552000E-05	-4.59929000E-03	 3.07881000E-03
		 0.00000000E+00	 0.00000000E+00	 0.00000000E+00
		 1.20627000E-06	-1.23112000E-03	-5.34618000E-05
		 1.41309000E-04	-4.41912000E-03	 1.34496000E-03
		 4.44881000E-04	-1.47621000E-03	 1.70944000E-03
		 0.00000000E+00	 0.00000000E+00	 0.00000000E+00
		-1.16985000E-04	-4.55269000E-03	-3.32020000E-03
		 0.00000000E+00	 0.00000000E+00	 0.00000000E+00
		 5.17104000E-05	-4.63083000E-03	-3.41497000E-03
		 0.00000000E+00	 0.00000000E+00	 0.00000000E+00
		-4.52963000E-04	-1.50161000E-03	-1.82843000E-03
		-2.94927000E-05	-4.42891000E-03	-1.60901000E-03
		 2.98000000E-04	-1.21359000E-02	-5.34641000E-04
		-6.16873000E-04	-1.22046000E-02	 4.07226000E-03
		 2.65690000E-04	-1.29942000E-02	-4.47527000E-04
		-5.24533000E-04	-1.30461000E-02	 4.16699000E-03
		 1.98272000E-04	-7.96171000E-03	-3.96335000E-04
		-1.64462000E-04	-1.21601000E-02	 1.83166000E-03
		-3.57545000E-04	-8.08692000E-03	 3.64618000E-03
		 2.81417000E-04	-1.25787000E-02	-4.90699000E-04
		-5.68686000E-04	-1.26300000E-02	 4.04582000E-03
		 1.64139000E-04	-8.43672000E-03	-3.15200000E-04
		-1.21743000E-04	-1.30078000E-02	 1.85095000E-03
		-2.05824000E-04	-8.54321000E-03	 3.74798000E-03
		 1.21440000E-03	-1.22306000E-02	-5.14401000E-03
		 1.04887000E-03	-1.30783000E-02	-5.06455000E-03
		 7.50047000E-04	-8.12723000E-03	-4.44493000E-03
		 7.60282000E-04	-1.21720000E-02	-2.90323000E-03
		 1.13108000E-03	-1.26651000E-02	-5.02639000E-03
		 5.28707000E-04	-8.57650000E-03	-4.38471000E-03
		 6.55686000E-04	-1.30245000E-02	-2.74415000E-03
		 2.28723000E-04	-1.37120000E-02	-3.59990000E-04
		-3.85227000E-04	-1.37365000E-02	 4.24247000E-03
		 2.47251000E-04	-1.33605000E-02	-4.03951000E-04
		-4.53804000E-04	-1.34355000E-02	 4.28179000E-03
		 1.34113000E-04	-8.70092000E-03	-2.34065000E-04
		-8.71981000E-05	-1.37080000E-02	 1.85461000E-03
		-1.47107000E-05	-8.79805000E-03	 3.80675000E-03
		 8.62971000E-04	-1.37810000E-02	-4.96735000E-03
		 9.55465000E-04	-1.34454000E-02	-5.09731000E-03
		 2.85324000E-04	-8.82839000E-03	-4.28064000E-03
		 5.49892000E-04	-1.37311000E-02	-2.57118000E-03
		 4.96790000E-04	-2.11450000E-02	-7.92079000E-04
		-1.84318000E-03	-2.11273000E-02	 4.56543000E-03
		 4.73725000E-04	-2.34214000E-02	-7.22060000E-04
		-1.79277000E-03	-2.35081000E-02	 4.65232000E-03
		 4.02229000E-04	-1.64801000E-02	-6.65982000E-04
		-6.67550000E-04	-2.11264000E-02	 1.95901000E-03
		-1.14501000E-03	-1.65296000E-02	 4.39725000E-03
		 4.87458000E-04	-2.22947000E-02	-7.52836000E-04
		-1.82008000E-03	-2.23431000E-02	 4.48342000E-03
		 3.72116000E-04	-1.79716000E-02	-5.86068000E-04
		-6.84333000E-04	-2.34585000E-02	 1.89832000E-03
		-1.06593000E-03	-1.80199000E-02	 4.48724000E-03
		 2.80426000E-03	-2.11640000E-02	-6.12910000E-03
		 2.74176000E-03	-2.34631000E-02	-6.11066000E-03
		 1.94636000E-03	-1.65442000E-02	-5.72633000E-03
		 1.64942000E-03	-2.11462000E-02	-3.53055000E-03
		 2.77264000E-03	-2.23204000E-02	-5.99716000E-03
		 1.81358000E-03	-1.80269000E-02	-5.65941000E-03
		 1.60854000E-03	-2.34389000E-02	-3.36128000E-03
		 4.37889000E-04	-2.56650000E-02	-6.51450000E-04
		-1.84302000E-03	-2.58583000E-02	 4.70196000E-03
		 4.57118000E-04	-2.45642000E-02	-6.90490000E-04
		-1.81923000E-03	-2.45769000E-02	 4.83382000E-03
		 3.44838000E-04	-1.93555000E-02	-5.04574000E-04
		-6.73756000E-04	-2.57604000E-02	 1.79619000E-03
		-9.95443000E-04	-1.94120000E-02	 4.55804000E-03
		 2.67876000E-03	-2.57325000E-02	-6.04614000E-03
		 2.71063000E-03	-2.46007000E-02	-6.23067000E-03
		 1.64650000E-03	-1.93931000E-02	-5.57195000E-03
		 1.55187000E-03	-2.57049000E-02	-3.14218000E-03
		 6.91110000E-04	-3.06865000E-02	-1.00412000E-03
		-3.02772000E-03	-3.04906000E-02	 3.70079000E-03
		 6.79963000E-04	-3.45694000E-02	-9.48159000E-04
		-3.37225000E-03	-3.48239000E-02	 3.76455000E-03
		 5.61581000E-04	-2.60518000E-02	-9.05679000E-04
		-1.16975000E-03	-3.06184000E-02	 1.40677000E-03
		-2.50115000E-03	-2.60325000E-02	 4.30877000E-03
		 6.87754000E-04	-3.25648000E-02	-9.76045000E-04
		-3.19034000E-03	-3.25394000E-02	 3.65772000E-03
		 5.39586000E-04	-2.92013000E-02	-8.89884000E-04
		-1.22421000E-03	-3.47138000E-02	 1.38984000E-03
		-2.66482000E-03	-2.91254000E-02	 4.42960000E-03
		 4.24412000E-03	-3.05790000E-02	-5.70055000E-03
		 4.43977000E-03	-3.43083000E-02	-5.65096000E-03
		 3.60337000E-03	-2.59955000E-02	-6.11016000E-03
		 2.46740000E-03	-3.06686000E-02	-3.41199000E-03
		 4.34675000E-03	-3.24100000E-02	-5.60188000E-03
		 3.68079000E-03	-2.91135000E-02	-6.09752000E-03
		 2.54785000E-03	-3.44484000E-02	-3.28420000E-03
		 5.22937000E-04	-3.86835000E-02	-8.90965000E-04
		-3.59445000E-03	-3.92999000E-02	 3.81624000E-03
		 6.03942000E-04	-3.65600000E-02	-9.20395000E-04
		-3.48098000E-03	-3.75156000E-02	 3.87480000E-03
		 4.86225000E-04	-3.24510000E-02	-8.97939000E-04
		-1.65222000E-03	-3.89924000E-02	 1.35923000E-03
		-2.68973000E-03	-3.22599000E-02	 4.45123000E-03
		 4.64960000E-03	-3.82798000E-02	-5.58658000E-03