# vtk DataFile Version 3.0

ASCII
DATASET UNSTRUCTURED_GRID

POINTS 522 double
	 1.00000000E+00	 1.00000000E+00	-5.96046000E-08
	 1.00000000E+00	 5.00000000E-01	-5.96046000E-08
	 1.00000000E+00	 5.00000000E-01	 1.00000000E+00
	 1.00000000E+00	 1.00000000E+00	 1.00000000E+00
	 5.00000000E-01	 1.00000000E+00	-5.96046000E-08
	 5.00000000E-01	 5.00000000E-01	-5.96046000E-08
	 5.00000000E-01	 5.00000000E-01	 1.00000000E+00
	 5.00000000E-01	 1.00000000E+00	 1.00000000E+00
	 1.00000000E+00	 7.50000000E-01	-5.96046000E-08
	 1.00000000E+00	 5.00000000E-01	 5.00000000E-01
	 1.00000000E+00	 7.50000000E-01	 1.00000000E+00
	 1.00000000E+00	 1.00000000E+00	 5.00000000E-01
	 7.50000000E-01	 1.00000000E+00	-5.96046000E-08
	 7.50000000E-01	 5.00000000E-01	-5.96046000E-08
	 7.50000000E-01	 5.00000000E-01	 1.00000000E+00
	 7.50000000E-01	 1.00000000E+00	 1.00000000E+00
	 5.00000000E-01	 7.50000000E-01	-5.96046000E-08
	 5.00000000E-01	 5.00000000E-01	 5.00000000E-01
	 5.00000000E-01	 7.50000000E-01	 1.00000000E+00
	 5.00000000E-01	 1.00000000E+00	 5.00000000E-01
	 1.00000000E+00	-1.49012000E-08	-5.96046000E-08
	 1.00000000E+00	-1.49012000E-08	 1.00000000E+00
	 5.00000000E-01	-1.49012000E-08	-5.96046000E-08
	 5.00000000E-01	-1.49012000E-08	 1.00000000E+00
	 1.00000000E+00	 2.50000000E-01	-5.96046000E-08
	 1.00000000E+00	-1.49012000E-08	 5.00000000E-01
	 1.00000000E+00	 2.50000000E-01	 1.00000000E+00
	 7.50000000E-01	-1.49012000E-08	-5.96046000E-08
	 7.50000000E-01	-1.49012000E-08	 1.00000000E+00
	 5.00000000E-01	 2.50000000E-01	-5.96046000E-08
	 5.00000000E-01	-1.49012000E-08	 5.00000000E-01
	 5.00000000E-01	 2.50000000E-01	 1.00000000E+00
	-7.45058000E-09	 1.00000000E+00	-5.96046000E-08
	-7.45058000E-09	 5.00000000E-01	-5.96046000E-08
	-7.45058000E-09	 5.00000000E-01	 1.00000000E+00
	-7.45058000E-09	 1.00000000E+00	 1.00000000E+00
	 2.50000000E-01	 1.00000000E+00	-5.96046000E-08
	 2.50000000E-01	 5.00000000E-01	-5.96046000E-08
	 2.50000000E-01	 5.00000000E-01	 1.00000000E+00
	 2.50000000E-01	 1.00000000E+00	 1.00000000E+00
	-7.45058000E-09	 7.50000000E-01	-5.96046000E-08
	-7.45058000E-09	 5.00000000E-01	 5.00000000E-01
	-7.45058000E-09	 7.50000000E-01	 1.00000000E+00
	-7.45058000E-09	 1.00000000E+00	 5.00000000E-01
	-7.45058000E-09	-1.49012000E-08	-5.96046000E-08
	-7.45058000E-09	-1.49012000E-08	 1.00000000E+00
	 2.50000000E-01	-1.49012000E-08	-5.96046000E-08
	 2.50000000E-01	-1.49012000E-08	 1.00000000E+00
	-7.45058000E-09	 2.50000000E-01	-5.96046000E-08
	-7.45058000E-09	-1.49012000E-08	 5.00000000E-01
	-7.45058000E-09	 2.50000000E-01	 1.00000000E+00
	 1.00000000E+00	 5.00000000E-01	 2.00000000E+00
	 1.00000000E+00	 1.00000000E+00	 2.00000000E+00
	 5.00000000E-01	 5.00000000E-01	 2.00000000E+00
	 5.00000000E-01	 1.00000000E+00	 2.00000000E+00
	 1.00000000E+00	 5.00000000E-01	 1.50000000E+00
	 1.00000000E+00	 7.50000000E-01	 2.00000000E+00
	 1.00000000E+00	 1.00000000E+00	 1.50000000E+00
	 7.50000000E-01	 5.00000000E-01	 2.00000000E+00
	 7.50000000E-01	 1.00000000E+00	 2.00000000E+00
	 5.00000000E-01	 5.00000000E-01	 1.50000000E+00
	 5.00000000E-01	 7.50000000E-01	 2.00000000E+00
	 5.00000000E-01	 1.00000000E+00	 1.50000000E+00
	 1.00000000E+00	-1.49012000E-08	 2.00000000E+00
	 5.00000000E-01	-1.49012000E-08	 2.00000000E+00
	 1.00000000E+00	-1.49012000E-08	 1.50000000E+00
	 1.00000000E+00	 2.50000000E-01	 2.00000000E+00
	 7.50000000E-01	-1.49012000E-08	 2.00000000E+00
	 5.00000000E-01	-1.49012000E-08	 1.50000000E+00
	 5.00000000E-01	 2.50000000E-01	 2.00000000E+00
	-7.45058000E-09	 5.00000000E-01	 2.00000000E+00
	-7.45058000E-09	 1.00000000E+00	 2.00000000E+00
	 2.50000000E-01	 5.00000000E-01	 2.00000000E+00
	 2.50000000E-01	 1.00000000E+00	 2.00000000E+00
	-7.45058000E-09	 5.00000000E-01	 1.50000000E+00
	-7.45058000E-09	 7.50000000E-01	 2.00000000E+00
	-7.45058000E-09	 1.00000000E+00	 1.50000000E+00
	-7.45058000E-09	-1.49012000E-08	 2.00000000E+00
	 2.50000000E-01	-1.49012000E-08	 2.00000000E+00
	-7.45058000E-09	-1.49012000E-08	 1.50000000E+00
	-7.45058000E-09	 2.50000000E-01	 2.00000000E+00
	 1.00000000E+00	 5.00000000E-01	 3.00000000E+00
	 1.00000000E+00	 1.00000000E+00	 3.00000000E+00
	 5.00000000E-01	 5.00000000E-01	 3.00000000E+00
	 5.00000000E-01	 1.00000000E+00	 3.00000000E+00
	 1.00000000E+00	 5.00000000E-01	 2.50000000E+00
	 1.00000000E+00	 7.50000000E-01	 3.00000000E+00
	 1.00000000E+00	 1.00000000E+00	 2.50000000E+00
	 7.50000000E-01	 5.00000000E-01	 3.00000000E+00
	 7.50000000E-01	 1.00000000E+00	 3.00000000E+00
	 5.00000000E-01	 5.00000000E-01	 2.50000000E+00
	 5.00000000E-01	 7.50000000E-01	 3.00000000E+00
	 5.00000000E-01	 1.00000000E+00	 2.50000000E+00
	 1.00000000E+00	-1.49012000E-08	 3.00000000E+00
	 5.00000000E-01	-1.49012000E-08	 3.00000000E+00
	 1.00000000E+00	-1.49012000E-08	 2.50000000E+00
	 1.00000000E+00	 2.50000000E-01	 3.00000000E+00
	 7.50000000E-01	-1.49012000E-08	 3.00000000E+00
	 5.00000000E-01	-1.49012000E-08	 2.50000000E+00
	 5.00000000E-01	 2.50000000E-01	 3.00000000E+00
	-7.45058000E-09	 5.00000000E-01	 3.00000000E+00
	-7.45058000E-09	 1.00000000E+00	 3.00000000E+00
	 2.50000000E-01	 5.00000000E-01	 3.00000000E+00
	 2.50000000E-01	 1.00000000E+00	 3.00000000E+00
	-7.45058000E-09	 5.00000000E-01	 2.50000000E+00
	-7.45058000E-09	 7.50000000E-01	 3.00000000E+00
	-7.45058000E-09	 1.00000000E+00	 2.50000000E+00
	-7.45058000E-09	-1.49012000E-08	 3.00000000E+00
	 2.50000000E-01	-1.49012000E-08	 3.00000000E+00
	-7.45058000E-09	-1.49012000E-08	 2.50000000E+00
	-7.45058000E-09	 2.50000000E-01	 3.00000000E+00
	 1.00000000E+00	 5.00000000E-01	 4.00000000E+00
	 1.00000000E+00	 1.00000000E+00	 4.00000000E+00
	 5.00000000E-01	 5.00000000E-01	 4.00000000E+00
	 5.00000000E-01	 1.00000000E+00	 4.00000000E+00
	 1.00000000E+00	 5.00000000E-01	 3.50000000E+00
	 1.00000000E+00	 7.50000000E-01	 4.00000000E+00
	 1.00000000E+00	 1.00000000E+00	 3.50000000E+00
	 7.50000000E-01	 5.00000000E-01	 4.00000000E+00
	 7.50000000E-01	 1.00000000E+00	 4.00000000E+00
	 5.00000000E-01	 5.00000000E-01	 3.50000000E+00
	 5.00000000E-01	 7.50000000E-01	 4.00000000E+00
	 5.00000000E-01	 1.00000000E+00	 3.50000000E+00
	 1.00000000E+00	-1.49012000E-08	 4.00000000E+00
	 5.00000000E-01	-1.49012000E-08	 4.00000000E+00
	 1.00000000E+00	-1.49012000E-08	 3.50000000E+00
	 1.00000000E+00	 2.50000000E-01	 4.00000000E+00
	 7.50000000E-01	-1.49012000E-08	 4.00000000E+00
	 5.00000000E-01	-1.49012000E-08	 3.50000000E+00
	 5.00000000E-01	 2.50000000E-01	 4.00000000E+00
	-7.45058000E-09	 5.00000000E-01	 4.00000000E+00
	-7.45058000E-09	 1.00000000E+00	 4.00000000E+00
	 2.50000000E-01	 5.00000000E-01	 4.00000000E+00
	 2.50000000E-01	 1.00000000E+00	 4.00000000E+00
	-7.45058000E-09	 5.00000000E-01	 3.50000000E+00
	-7.45058000E-09	 7.50000000E-01	 4.00000000E+00
	-7.45058000E-09	 1.00000000E+00	 3.50000000E+00
	-7.45058000E-09	-1.49012000E-08	 4.00000000E+00
	 2.50000000E-01	-1.49012000E-08	 4.00000000E+00
	-7.45058000E-09	-1.49012000E-08	 3.50000000E+00
	-7.45058000E-09	 2.50000000E-01	 4.00000000E+00
	 1.00000000E+00	 5.00000000E-01	 5.00000000E+00
	 1.00000000E+00	 1.00000000E+00	 5.00000000E+00
	 5.00000000E-01	 5.00000000E-01	 5.00000000E+00
	 5.00000000E-01	 1.00000000E+00	 5.00000000E+00
	 1.00000000E+00	 5.00000000E-01	 4.50000000E+00
	 1.00000000E+00	 7.50000000E-01	 5.00000000E+00
	 1.00000000E+00	 1.00000000E+00	 4.50000000E+00
	 7.50000000E-01	 5.00000000E-01	 5.00000000E+00
	 7.50000000E-01	 1.00000000E+00	 5.00000000E+00
	 5.00000000E-01	 5.00000000E-01	 4.50000000E+00
	 5.00000000E-01	 7.50000000E-01	 5.00000000E+00
	 5.00000000E-01	 1.00000000E+00	 4.50000000E+00
	 1.00000000E+00	-1.49012000E-08	 5.00000000E+00
	 5.00000000E-01	-1.49012000E-08	 5.00000000E+00
	 1.00000000E+00	-1.49012000E-08	 4.50000000E+00
	 1.00000000E+00	 2.50000000E-01	 5.00000000E+00
	 7.50000000E-01	-1.49012000E-08	 5.00000000E+00
	 5.00000000E-01	-1.49012000E-08	 4.50000000E+00
	 5.00000000E-01	 2.50000000E-01	 5.00000000E+00
	-7.45058000E-09	 5.00000000E-01	 5.00000000E+00
	-7.45058000E-09	 1.00000000E+00	 5.00000000E+00
	 2.50000000E-01	 5.00000000E-01	 5.00000000E+00
	 2.50000000E-01	 1.00000000E+00	 5.00000000E+00
	-7.45058000E-09	 5.00000000E-01	 4.50000000E+00
	-7.45058000E-09	 7.50000000E-01	 5.00000000E+00
	-7.45058000E-09	 1.00000000E+00	 4.50000000E+00
	-7.45058000E-09	-1.49012000E-08	 5.00000000E+00
	 2.50000000E-01	-1.49012000E-08	 5.00000000E+00
	-7.45058000E-09	-1.49012000E-08	 4.50000000E+00
	-7.45058000E-09	 2.50000000E-01	 5.00000000E+00
	 1.00000000E+00	 5.00000000E-01	 6.00000000E+00
	 1.00000000E+00	 1.00000000E+00	 6.00000000E+00
	 5.00000000E-01	 5.00000000E-01	 6.00000000E+00
	 5.00000000E-01	 1.00000000E+00	 6.00000000E+00
	 1.00000000E+00	 5.00000000E-01	 5.50000000E+00
	 1.00000000E+00	 7.50000000E-01	 6.00000000E+00
	 1.00000000E+00	 1.00000000E+00	 5.50000000E+00
	 7.50000000E-01	 5.00000000E-01	 6.00000000E+00
	 7.50000000E-01	 1.00000000E+00	 6.00000000E+00
	 5.00000000E-01	 5.00000000E-01	 5.50000000E+00
	 5.00000000E-01	 7.50000000E-01	 6.00000000E+00
	 5.00000000E-01	 1.00000000E+00	 5.50000000E+00
	 1.00000000E+00	-1.49012000E-08	 6.00000000E+00
	 5.00000000E-01	-1.49012000E-08	 6.00000000E+00
	 1.00000000E+00	-1.49012000E-08	 5.50000000E+00
	 1.00000000E+00	 2.50000000E-01	 6.00000000E+00
	 7.50000000E-01	-1.49012000E-08	 6.00000000E+00
	 5.00000000E-01	-1.49012000E-08	 5.50000000E+00
	 5.00000000E-01	 2.50000000E-01	 6.00000000E+00
	-7.45058000E-09	 5.00000000E-01	 6.00000000E+00
	-7.45058000E-09	 1.00000000E+00	 6.00000000E+00
	 2.50000000E-01	 5.00000000E-01	 6.00000000E+00
	 2.50000000E-01	 1.00000000E+00	 6.00000000E+00
	-7.45058000E-09	 5.00000000E-01	 5.50000000E+00
	-7.45058000E-09	 7.50000000E-01	 6.00000000E+00
	-7.45058000E-09	 1.00000000E+00	 5.50000000E+00
	-7.45058000E-09	-1.49012000E-08	 6.00000000E+00
	 2.50000000E-01	-1.49012000E-08	 6.00000000E+00
	-7.45058000E-09	-1.49012000E-08	 5.50000000E+00
	-7.45058000E-09	 2.50000000E-01	 6.00000000E+00
	 1.00000000E+00	 5.00000000E-01	 7.00000000E+00
[...]
POINT_DATA 522
FIELD U 1
	U 3 522 double
		 0.00000000E+00	 0.00000000E+00	 0.00000000E+00
		 0.00000000E+00	 0.00000000E+00	 0.00000000E+00
		 9.56909000E-06	-3.27493000E-03	-2.77957000E-05
		-9.42567000E-04	-3.40310000E-03	 2.94776000E-03
		 0.00000000E+00	 0.00000000E+00	 0.00000000E+00
		 0.00000000E+00	 0.00000000E+00	 0.00000000E+00
		 8.38162000E-06	-4.08504000E-03	-2.88518000E-05
		-6.58130000E-04	-4.22417000E-03	 2.99817000E-03
		 0.00000000E+00	 0.00000000E+00	 0.00000000E+00
		 6.84039000E-06	-7.42555000E-04	-1.27602000E-05
		-4.68084000E-04	-3.28118000E-03	 1.43348000E-03
		-7.70066000E-04	-9.98806000E-04	 1.62960000E-03
		 0.00000000E+00	 0.00000000E+00	 0.00000000E+00
		 0.00000000E+00	 0.00000000E+00	 0.00000000E+00
		 9.24878000E-06	-3.73511000E-03	-2.84243000E-05
		-7.97081000E-04	-3.86712000E-03	 2.92638000E-03
		 0.00000000E+00	 0.00000000E+00	 0.00000000E+00
		 3.45571000E-06	-1.27026000E-03	-1.22328000E-05
		-3.24412000E-04	-4.09407000E-03	 1.40634000E-03
		-3.31568000E-04	-1.52298000E-03	 1.60078000E-03
		 0.00000000E+00	 0.00000000E+00	 0.00000000E+00
		 9.58457000E-04	-3.38600000E-03	-3.00434000E-03
		 0.00000000E+00	 0.00000000E+00	 0.00000000E+00
		 6.74138000E-04	-4.20508000E-03	-3.05825000E-03
		 0.00000000E+00	 0.00000000E+00	 0.00000000E+00
		 7.79358000E-04	-9.99025000E-04	-1.65764000E-03
		 4.86292000E-04	-3.27292000E-03	-1.48978000E-03
		 0.00000000E+00	 0.00000000E+00	 0.00000000E+00
		 8.13455000E-04	-3.84868000E-03	-2.98394000E-03
		 0.00000000E+00	 0.00000000E+00	 0.00000000E+00
		 3.35912000E-04	-1.52000000E-03	-1.62687000E-03
		 3.40906000E-04	-4.08457000E-03	-1.46471000E-03
		 0.00000000E+00	 0.00000000E+00	 0.00000000E+00
		 0.00000000E+00	 0.00000000E+00	 0.00000000E+00
		 5.70379000E-06	-4.60713000E-03	-2.81442000E-05
		-3.71796000E-04	-4.73182000E-03	 2.94573000E-03
		 0.00000000E+00	 0.00000000E+00	 0.00000000E+00
		 0.00000000E+00	 0.00000000E+00	 0.00000000E+00
		 7.18520000E-06	-4.40034000E-03	-2.89029000E-05
		-5.17440000E-04	-4.53329000E-03	 3.04278000E-03
		 0.00000000E+00	 0.00000000E+00	 0.00000000E+00
		-4.63757000E-07	-1.41018000E-03	-1.05900000E-05
		-1.82638000E-04	-4.61098000E-03	 1.31406000E-03
		 1.31037000E-04	-1.64427000E-03	 1.63204000E-03
		 0.00000000E+00	 0.00000000E+00	 0.00000000E+00
		 3.85021000E-04	-4.71465000E-03	-3.00501000E-03
		 0.00000000E+00	 0.00000000E+00	 0.00000000E+00
		 5.32240000E-04	-4.51400000E-03	-3.10438000E-03
		 0.00000000E+00	 0.00000000E+00	 0.00000000E+00
		-1.32905000E-04	-1.63892000E-03	-1.65451000E-03
		 1.94814000E-04	-4.60312000E-03	-1.37051000E-03
		 1.36231000E-05	-1.08170000E-02	-6.37460000E-05
		-1.29731000E-03	-1.09197000E-02	 4.33874000E-03
		 1.11457000E-05	-1.20430000E-02	-7.60006000E-05
		-1.12537000E-03	-1.21446000E-02	 4.32863000E-03
		 1.38347000E-05	-6.74021000E-03	-4.32847000E-05
		-6.43188000E-04	-1.08545000E-02	 2.15404000E-03
		-1.14526000E-03	-6.87987000E-03	 3.76134000E-03
		 1.25323000E-05	-1.14458000E-02	-7.01713000E-05
		-1.21199000E-03	-1.15482000E-02	 4.31652000E-03
		 1.16846000E-05	-7.79554000E-03	-4.89282000E-05
		-5.58598000E-04	-1.20810000E-02	 2.12747000E-03
		-9.34628000E-04	-7.93482000E-03	 3.77027000E-03
		 1.32952000E-03	-1.08758000E-02	-4.46983000E-03
		 1.15346000E-03	-1.21076000E-02	-4.48393000E-03
		 1.17514000E-03	-6.84659000E-03	-3.85024000E-03
		 6.71763000E-04	-1.08312000E-02	-2.28243000E-03
		 1.24273000E-03	-1.15084000E-02	-4.46037000E-03
		 9.61831000E-04	-7.90566000E-03	-3.87214000E-03
		 5.82870000E-04	-1.20626000E-02	-2.28042000E-03
		 9.15409000E-06	-1.30944000E-02	-8.54725000E-05
		-9.60372000E-04	-1.31965000E-02	 4.31679000E-03
		 9.81653000E-06	-1.25856000E-02	-8.09733000E-05
		-1.04296000E-03	-1.26843000E-02	 4.33701000E-03
		 8.83438000E-06	-8.63606000E-03	-5.39760000E-05
		-4.73076000E-04	-1.31309000E-02	 2.10066000E-03
		-7.43418000E-04	-8.78862000E-03	 3.74809000E-03
		 9.84049000E-04	-1.31664000E-02	-4.49074000E-03
		 1.06853000E-03	-1.26499000E-02	-4.50169000E-03
		 7.66646000E-04	-8.76632000E-03	-3.86178000E-03
		 4.92797000E-04	-1.31174000E-02	-2.27279000E-03
		 1.43165000E-05	-2.06331000E-02	-1.31596000E-04
		-1.56046000E-03	-2.07386000E-02	 5.41242000E-03
		 1.57174000E-05	-2.21341000E-02	-1.45239000E-04
		-1.41396000E-03	-2.22374000E-02	 5.41236000E-03
		 1.17579000E-05	-1.54102000E-02	-9.34727000E-05
		-7.72858000E-04	-2.06637000E-02	 2.64125000E-03
		-1.43067000E-03	-1.55181000E-02	 4.89787000E-03
		 1.44704000E-05	-2.14057000E-02	-1.38472000E-04
		-1.48721000E-03	-2.15088000E-02	 5.39066000E-03
		 1.09831000E-05	-1.67664000E-02	-1.08014000E-04
		-6.98413000E-04	-2.21618000E-02	 2.61152000E-03
		-1.25716000E-03	-1.68710000E-02	 4.88587000E-03
		 1.59250000E-03	-2.06776000E-02	-5.67956000E-03
		 1.44588000E-03	-2.21796000E-02	-5.70661000E-03
		 1.45789000E-03	-1.54672000E-02	-5.08928000E-03
		 8.02539000E-04	-2.06333000E-02	-2.90565000E-03
		 1.51878000E-03	-2.14507000E-02	-5.67141000E-03
		 1.28212000E-03	-1.68241000E-02	-5.10473000E-03
		 7.30188000E-04	-2.21339000E-02	-2.90291000E-03
		 1.71661000E-05	-2.34922000E-02	-1.55865000E-04
		-1.25634000E-03	-2.35858000E-02	 5.38891000E-03
		 1.69351000E-05	-2.28332000E-02	-1.51232000E-04
		-1.33430000E-03	-2.29359000E-02	 5.43450000E-03
		 1.08322000E-05	-1.79479000E-02	-1.18034000E-04
		-6.22976000E-04	-2.35155000E-02	 2.56109000E-03
		-1.07888000E-03	-1.80479000E-02	 4.87504000E-03
		 1.28807000E-03	-2.35253000E-02	-5.70393000E-03
		 1.36653000E-03	-2.28767000E-02	-5.74024000E-03
		 1.10185000E-03	-1.80026000E-02	-5.11235000E-03
		 6.56804000E-04	-2.34862000E-02	-2.87378000E-03
		 2.23083000E-05	-3.23046000E-02	-2.19905000E-04
		-2.04515000E-03	-3.23281000E-02	 5.76703000E-03
		 2.63423000E-05	-3.44001000E-02	-2.41963000E-04
		-2.08939000E-03	-3.44153000E-02	 5.76701000E-03
		 1.90624000E-05	-2.63850000E-02	-1.74663000E-04
		-1.01337000E-03	-3.23216000E-02	 2.78380000E-03
		-1.74335000E-03	-2.64552000E-02	 5.73629000E-03
		 2.37095000E-05	-3.33473000E-02	-2.30937000E-04
		-2.06638000E-03	-3.33637000E-02	 5.71174000E-03
		 2.16646000E-05	-2.81231000E-02	-1.90547000E-04
		-1.03102000E-03	-3.44112000E-02	 2.71486000E-03
		-1.68541000E-03	-2.81843000E-02	 5.74278000E-03
		 2.09654000E-03	-3.22536000E-02	-6.20530000E-03
		 2.14386000E-03	-3.43478000E-02	-6.24955000E-03
		 1.78687000E-03	-2.63855000E-02	-6.08791000E-03
		 1.05974000E-03	-3.22845000E-02	-3.22322000E-03
		 2.11918000E-03	-3.32953000E-02	-6.17195000E-03
		 1.72952000E-03	-2.81201000E-02	-6.12682000E-03
		 1.08423000E-03	-3.43805000E-02	-3.19837000E-03
		 3.02932000E-05	-3.65381000E-02	-2.64911000E-04
		-2.12369000E-03	-3.65492000E-02	 5.72152000E-03
		 2.90510000E-05	-3.54632000E-02	-2.53289000E-04
		-2.10664000E-03	-3.54783000E-02	 5.82644000E-03
		 2.40748000E-05	-2.98000000E-02	-2.05627000E-04
		-1.04714000E-03	-3.65463000E-02	 2.60089000E-03
		-1.60934000E-03	-2.98503000E-02	 5.70497000E-03
		 2.18066000E-03	-3.64795000E-02	-6.25029000E-03
		 2.16285000E-03	-3.54088000E-02	-6.33224000E-03
		 1.65332000E-03	-2.97830000E-02	-6.11972000E-03
		 1.10673000E-03	-3.65157000E-02	-3.13006000E-03
		 1.75750000E-05	-4.31242000E-02	-2.93630000E-04
		-2.89763000E-03	-4.30595000E-02	 4.79747000E-03
		 2.42656000E-05	-4.61514000E-02	-3.31924000E-04
		-3.10358000E-03	-4.60819000E-02	 4.76808000E-03
		 2.31730000E-05	-3.80010000E-02	-2.61084000E-04
		-1.44216000E-03	-4.31214000E-02	 2.30352000E-03
		-2.44037000E-03	-3.79799000E-02	 5.41137000E-03
		 2.07569000E-05	-4.46103000E-02	-3.12129000E-04
		-3.00078000E-03	-4.45407000E-02	 4.71062000E-03
		 2.89620000E-05	-4.05401000E-02	-2.91250000E-04
		-1.53969000E-03	-4.61461000E-02	 2.19551000E-03
		-2.57742000E-03	-4.05117000E-02	 5.39993000E-03
		 2.93328000E-03	-4.29921000E-02	-5.37936000E-03
		 3.15251000E-03	-4.60144000E-02	-5.42655000E-03
		 2.49102000E-03	-3.79070000E-02	-5.92833000E-03
		 1.47758000E-03	-4.30861000E-02	-2.88904000E-03
		 3.04297000E-03	-4.44748000E-02	-5.33008000E-03
		 2.63699000E-03	-4.04431000E-02	-5.97689000E-03
		 1.58856000E-03	-4.61124000E-02	-2.85813000E-03
		 3.18656000E-05	-4.93801000E-02	-3.75272000E-04
		-3.31004000E-03	-4.93174000E-02	 4.71531000E-03
		 2.79888000E-05	-4.77386000E-02	-3.52882000E-04
		-3.20698000E-03	-4.76709000E-02	 4.82591000E-03
		 3.48514000E-05	-4.32155000E-02	-3.24706000E-04
		-1.63629000E-03	-4.93767000E-02	 2.06516000E-03
		-2.71016000E-03	-4.31884000E-02	 5.34734000E-03
		 3.37390000E-03	-4.92492000E-02	-5.46059000E-03
		 3.26307000E-03	-4.76012000E-02	-5.52609000E-03
		 2.77890000E-03	-4.31196000E-02	-5.99111000E-03
		 1.70023000E-03	-4.93445000E-02	-2.81466000E-03
		-2.38359000E-05	-5.07807000E-02	-3.31429000E-04
		-3.95299000E-03	-5.07183000E-02	 3.30139000E-03
		-1.04593000E-05	-5.48040000E-02	-3.86766000E-04
		-4.11877000E-03	-5.47414000E-02	 3.23302000E-03
		 2.75500000E-06	-4.73823000E-02	-3.17095000E-04
		-1.98879000E-03	-5.07748000E-02	 1.58101000E-03
		-3.42247000E-03	-4.73141000E-02	 4.02584000E-03
		-1.69655000E-05	-5.27684000E-02	-3.60118000E-04
		-4.03614000E-03	-5.27055000E-02	 3.19546000E-03
		 1.08924000E-05	-5.09208000E-02	-3.63495000E-04
		-2.06480000E-03	-5.47980000E-02	 1.45032000E-03
		-3.63337000E-03	-5.08506000E-02	 3.97605000E-03
		 3.90764000E-03	-5.06580000E-02	-3.96493000E-03
		 4.10088000E-03	-5.46833000E-02	-4.00817000E-03
		 3.42821000E-03	-4.72517000E-02	-4.65760000E-03
		 1.94163000E-03	-5.07424000E-02	-2.24441000E-03
		 4.00523000E-03	-5.26479000E-02	-3.91627000E-03
		 3.65595000E-03	-5.07878000E-02	-4.70122000E-03
		 2.04529000E-03	-5.47682000E-02	-2.22438000E-03
		 4.69801000E-06	-5.90016000E-02	-4.37667000E-04
		-4.29139000E-03	-5.89462000E-02	 3.19522000E-03
		-3.53658000E-06	-5.68802000E-02	-4.12219000E-04
		-4.20558000E-03	-5.68195000E-02	 3.26751000E-03
		 2.08269000E-05	-5.46711000E-02	-4.12080000E-04
		-2.14148000E-03	-5.89981000E-02	 1.35081000E-03
		-3.84947000E-03	-5.46113000E-02	 3.93048000E-03
		 4.30382000E-03	-5.88899000E-02	-4.07320000E-03
		 4.20159000E-03	-5.67614000E-02	-4.09418000E-03
		 3.89171000E-03	-5.45472000E-02	-4.75359000E-03
		 2.15233000E-03	-5.89705000E-02	-2.22711000E-03
		-1.06988000E-04	-5.60471000E-02	-3.48861000E-04
		-4.86864000E-03	-5.60499000E-02	 2.58857000E-03
		-8.04620000E-05	-6.08201000E-02	-4.06729000E-04
		-4.86554000E-03	-6.08304000E-02	 2.51430000E-03
		-6.46710000E-05	-5.35361000E-02	-3.39445000E-04
		-2.48465000E-03	-5.60506000E-02	 1.18502000E-03
		-4.45428000E-03	-5.35060000E-02	 2.82757000E-03
		-9.53070000E-05	-5.84275000E-02	-3.78196000E-04
		-4.86917000E-03	-5.84375000E-02	 2.50808000E-03
		-4.27988000E-05	-5.79776000E-02	-4.00406000E-04
		-2.47232000E-03	-6.08275000E-02	 1.07490000E-03
		-4.52934000E-03	-5.79503000E-02	 2.74864000E-03
		 4.65694000E-03	-5.59894000E-02	-3.28022000E-03
		 4.71198000E-03	-6.07731000E-02	-3.32198000E-03
		 4.32996000E-03	-5.34460000E-02	-3.50768000E-03
		 2.27157000E-03	-5.60210000E-02	-1.87915000E-03
		 4.68283000E-03	-5.83786000E-02	-3.25944000E-03
		 4.44943000E-03	-5.78960000E-02	-3.55147000E-03
		 2.31426000E-03	-6.08001000E-02	-1.88583000E-03
		-5.12858000E-05	-6.56307000E-02	-4.71120000E-04
		-4.87555000E-03	-6.56400000E-02	 2.45427000E-03
		-6.50263000E-05	-6.32240000E-02	-4.38281000E-04
		-4.86837000E-03	-6.32332000E-02	 2.51490000E-03
		-1.87644000E-05	-6.25207000E-02	-4.55801000E-04
		-2.46337000E-03	-6.56374000E-02	 9.79427000E-04
		-4.61381000E-03	-6.24965000E-02	 2.70982000E-03
		 4.78261000E-03	-6.55923000E-02	-3.39090000E-03
		 4.74848000E-03	-6.31788000E-02	-3.38671000E-03
		 4.58105000E-03	-6.24466000E-02	-3.62413000E-03
		 2.36353000E-03	-6.56177000E-02	-1.91832000E-03
		-1.47348000E-04	-6.13898000E-02	-3.74016000E-04
		-5.28222000E-03	-6.14291000E-02	 2.54317000E-03
		-1.48609000E-04	-6.64695000E-02	-4.20794000E-04
		-5.24790000E-03	-6.65293000E-02	 2.46990000E-03
		-1.34977000E-04	-5.86210000E-02	-3.63119000E-04
		-2.71399000E-03	-6.14098000E-02	 1.08863000E-03
		-5.15096000E-03	-5.86412000E-02	 2.53809000E-03
		-1.44619000E-04	-6.39357000E-02	-3.93211000E-04
		-5.26317000E-03	-6.39880000E-02	 2.50485000E-03
		-1.15023000E-04	-6.36247000E-02	-4.12245000E-04
		-2.70450000E-03	-6.65010000E-02	 1.01881000E-03
		-5.11767000E-03	-6.36545000E-02	 2.46811000E-03
		 4.96835000E-03	-6.13317000E-02	-3.26385000E-03
		 4.95875000E-03	-6.64118000E-02	-3.28113000E-03
		 4.87056000E-03	-5.85746000E-02	-3.24292000E-03
		 2.41512000E-03	-6.13570000E-02	-1.82867000E-03
		 4.96528000E-03	-6.38748000E-02	-3.26353000E-03
		 4.89514000E-03	-6.35784000E-02	-3.27048000E-03
		 2.41056000E-03	-6.64361000E-02	-1.85203000E-03
		-1.48152000E-04	-7.15485000E-02	-5.01591000E-04
		-5.24638000E-03	-7.15979000E-02	 2.36761000E-03
		-1.52254000E-04	-6.90044000E-02	-4.57642000E-04
		-5.24919000E-03	-6.90651000E-02	 2.42878000E-03
		-9.32394000E-05	-6.86357000E-02	-4.88061000E-04
		-2.70594000E-03	-7.15726000E-02	 9.17256000E-04
		-5.10108000E-03	-6.86527000E-02	 2.37930000E-03
		 4.98405000E-03	-7.15147000E-02	-3.33821000E-03
		 4.96957000E-03	-6.89573000E-02	-3.31322000E-03
		 4.93814000E-03	-6.86014000E-02	-3.33272000E-03
		 2.41875000E-03	-7.15294000E-02	-1.91016000E-03
		 0.00000000E+00	 0.00000000E+00	 0.00000000E+00
		 0.00000000E+00	 0.00000000E+00	 0.00000000E+00
		-2.00983000E-06	-4.03814000E-03	-5.84029000E-05
		-2.04737000E-03	-4.37271000E-03	 5.10441000E-03
		 0.00000000E+00	 0.00000000E+00	 0.00000000E+00
		 0.00000000E+00	 0.00000000E+00	 0.00000000E+00
		-7.02354000E-06	-5.73047000E-03	-7.43834000E-05
		-1.36463000E-03	-6.08699000E-03	 5.14946000E-03
		 0.00000000E+00	 0.00000000E+00	 0.00000000E+00
		 4.71998000E-06	-5.03811000E-04	-2.27417000E-05
		-1.02609000E-03	-4.08417000E-03	 2.58876000E-03
		-1.40821000E-03	-9.66127000E-04	 2.57408000E-03
		 0.00000000E+00	 0.00000000E+00	 0.00000000E+00
		 0.00000000E+00	 0.00000000E+00	 0.00000000E+00
		-3.74856000E-06	-5.00259000E-03	-6.77308000E-05
		-1.70044000E-03	-5.34484000E-03	 5.00010000E-03
		 0.00000000E+00	 0.00000000E+00	 0.00000000E+00
		-3.80857000E-06	-1.50676000E-03	-2.96735000E-05
		-6.85238000E-04	-5.78149000E-03	 2.47422000E-03
		-6.60349000E-04	-1.94954000E-03	 2.49361000E-03
		 0.00000000E+00	 0.00000000E+00	 0.00000000E+00
		 2.03548000E-03	-4.32033000E-03	-5.22930000E-03
		 0.00000000E+00	 0.00000000E+00	 0.00000000E+00
		 1.34957000E-03	-6.02971000E-03	-5.30665000E-03
		 0.00000000E+00	 0.00000000E+00	 0.00000000E+00
		 1.41159000E-03	-9.59252000E-04	-2.62516000E-03
		 1.01929000E-03	-4.05645000E-03	-2.70850000E-03
		 0.00000000E+00	 0.00000000E+00	 0.00000000E+00
		 1.68831000E-03	-5.28967000E-03	-5.14244000E-03
		 0.00000000E+00	 0.00000000E+00	 0.00000000E+00
		 6.51403000E-04	-1.94212000E-03	-2.55554000E-03
		 6.69291000E-04	-5.75202000E-03	-2.62593000E-03
		 0.00000000E+00	 0.00000000E+00	 0.00000000E+00
		 0.00000000E+00	 0.00000000E+00	 0.00000000E+00
		-1.36294000E-05	-6.75142000E-03	-8.16406000E-05
		-6.63894000E-04	-7.07057000E-03	 5.08402000E-03
		 0.00000000E+00	 0.00000000E+00	 0.00000000E+00
		 0.00000000E+00	 0.00000000E+00	 0.00000000E+00
		-1.00303000E-05	-6.35653000E-03	-7.90907000E-05
		-1.01748000E-03	-6.69518000E-03	 5.24142000E-03
		 0.00000000E+00	 0.00000000E+00	 0.00000000E+00
		-1.47081000E-05	-1.81455000E-03	-3.42461000E-05
		-3.41876000E-04	-6.78709000E-03	 2.31433000E-03
		 1.36550000E-04	-2.22615000E-03	 2.56517000E-03
		 0.00000000E+00	 0.00000000E+00	 0.00000000E+00
		 6.38251000E-04	-7.01141000E-03	-5.25371000E-03
		 0.00000000E+00	 0.00000000E+00	 0.00000000E+00
		 9.96696000E-04	-6.63999000E-03	-5.40829000E-03
		 0.00000000E+00	 0.00000000E+00	 0.00000000E+00
		-1.65571000E-04	-2.21722000E-03	-2.63575000E-03
		 3.16073000E-04	-6.75917000E-03	-2.47899000E-03
		 1.17276000E-05	-1.83029000E-02	-2.06458000E-04
		-3.26973000E-03	-1.85498000E-02	 8.75478000E-03
		 1.50050000E-05	-2.14051000E-02	-2.40403000E-04
		-2.91959000E-03	-2.16557000E-02	 8.77463000E-03
		 8.93749000E-07	-1.00992000E-02	-1.16801000E-04
		-1.62774000E-03	-1.83896000E-02	 4.25370000E-03
		-2.69229000E-03	-1.04332000E-02	 7.24570000E-03
		 1.27224000E-05	-1.98901000E-02	-2.26349000E-04
		-3.09462000E-03	-2.01371000E-02	 8.67718000E-03
		-2.48330000E-06	-1.25020000E-02	-1.41519000E-04
		-1.44671000E-03	-2.14905000E-02	 4.15828000E-03
		-2.12119000E-03	-1.28388000E-02	 7.26490000E-03
		 3.29664000E-03	-1.83732000E-02	-9.17927000E-03
		 2.94698000E-03	-2.14872000E-02	-9.26503000E-03
		 2.69312000E-03	-1.03161000E-02	-7.49157000E-03
		 1.65144000E-03	-1.83001000E-02	-4.67003000E-03
		 3.12317000E-03	-1.99726000E-02	-9.13826000E-03
		 2.11770000E-03	-1.27254000E-02	-7.56142000E-03
		 1.48101000E-03	-2.14101000E-02	-4.63873000E-03
		 1.55866000E-05	-2.41714000E-02	-2.64416000E-04
		-2.55050000E-03	-2.43989000E-02	 8.69671000E-03
		 1.48060000E-05	-2.28226000E-02	-2.51773000E-04
		-2.73447000E-03	-2.30976000E-02	 8.88654000E-03
		-6.80617000E-06	-1.43413000E-02	-1.56462000E-04
		-1.27563000E-03	-2.42400000E-02	 3.96281000E-03
		-1.54323000E-03	-1.46619000E-02	 7.20623000E-03
		 2.60764000E-03	-2.42507000E-02	-9.23446000E-03
		 2.77669000E-03	-2.29056000E-02	-9.40244000E-03
		 1.54294000E-03	-1.45608000E-02	-7.53158000E-03
		 1.31407000E-03	-2.41756000E-02	-4.48958000E-03
		 9.67519000E-05	-3.73830000E-02	-4.63769000E-04
		-4.32555000E-03	-3.73695000E-02	 9.08987000E-03
		 1.12598000E-04	-4.18291000E-02	-4.67337000E-04
		-4.41057000E-03	-4.19343000E-02	 9.11871000E-03
		 4.14069000E-05	-2.77310000E-02	-3.26347000E-04
		-2.10992000E-03	-3.73930000E-02	 4.32175000E-03
		-3.81780000E-03	-2.78748000E-02	 9.30312000E-03
		 1.04268000E-04	-3.95917000E-02	-4.62018000E-04
		-4.37249000E-03	-3.96494000E-02	 9.01469000E-03
		 4.98794000E-05	-3.15381000E-02	-3.55936000E-04
		-2.17263000E-03	-4.19039000E-02	 4.23150000E-03
		-3.71604000E-03	-3.16974000E-02	 9.33153000E-03
		 4.47395000E-03	-3.72221000E-02	-1.00012000E-02
		 4.62239000E-03	-4.16759000E-02	-1.00706000E-02
		 3.89069000E-03	-2.76842000E-02	-9.96128000E-03
		 2.28907000E-03	-3.73220000E-02	-5.23774000E-03
		 4.54535000E-03	-3.94291000E-02	-9.95137000E-03
		 3.81357000E-03	-3.14826000E-02	-1.00473000E-02
		 2.37118000E-03	-4.17796000E-02	-5.18616000E-03
		 1.30726000E-04	-4.64022000E-02	-4.75634000E-04
		-4.60468000E-03	-4.66549000E-02	 9.07487000E-03
		 1.21636000E-04	-4.41132000E-02	-4.72782000E-04
		-4.51182000E-03	-4.41582000E-02	 9.23402000E-03
		 7.02840000E-05	-3.52562000E-02	-3.81054000E-04
		-2.19909000E-03	-4.65538000E-02	 4.06675000E-03
		-3.64663000E-03	-3.54546000E-02	 9.25302000E-03
		 4.80875000E-03	-4.62821000E-02	-1.00697000E-02
		 4.71541000E-03	-4.39505000E-02	-1.01959000E-02
		 3.74327000E-03	-3.52015000E-02	-1.00193000E-02
		 2.45855000E-03	-4.63780000E-02	-5.06349000E-03
		 3.54633000E-04	-5.47270000E-02	-7.33822000E-04
		-4.77049000E-03	-5.45182000E-02	 7.03606000E-03
		 3.69891000E-04	-6.00645000E-02	-6.41968000E-04
		-5.20327000E-03	-6.03282000E-02	 7.12575000E-03
		 1.68285000E-04	-4.64947000E-02	-6.00867000E-04
		-2.20688000E-03	-5.46666000E-02	 3.17069000E-03
		-4.68816000E-03	-4.64692000E-02	 8.19893000E-03
		 3.60744000E-04	-5.73171000E-02	-6.86911000E-04
		-4.98056000E-03	-5.72915000E-02	 7.07154000E-03
		 1.79825000E-04	-5.15160000E-02	-6.07141000E-04
		-2.29271000E-03	-6.02266000E-02	 3.25063000E-03
		-4.98735000E-03	-5.14523000E-02	 8.28947000E-03
		 5.30421000E-03	-5.45025000E-02	-8.49739000E-03
		 5.63237000E-03	-5.96808000E-02	-8.40162000E-03
		 4.99175000E-03	-4.62878000E-02	-9.39490000E-03
		 2.82920000E-03	-5.46652000E-02	-4.63578000E-03
		 5.47139000E-03	-5.70450000E-02	-8.43910000E-03
		 5.26632000E-03	-5.12659000E-02	-9.39594000E-03
		 2.99184000E-03	-5.98977000E-02	-4.53330000E-03
		 2.58873000E-04	-6.57514000E-02	-5.56535000E-04
		-5.51179000E-03	-6.64089000E-02	 7.21587000E-03
		 3.15415000E-04	-6.28277000E-02	-5.99141000E-04
		-5.35666000E-03	-6.38037000E-02	 7.17409000E-03
		 1.77672000E-04	-5.68028000E-02	-6.45785000E-04
		-2.73679000E-03	-6.60970000E-02	 3.33368000E-03
		-5.14805000E-03	-5.66616000E-02	 8.28892000E-03
		 6.00955000E-03	-6.52100000E-02	-8.31876000E-03