<?xml version="1.0"?>
<VTKFile type="UnstructuredGrid" version="0.1" byte_order="LittleEndian">
	<UnstructuredGrid>
		<Piece NumberOfPoints="522" NumberOfCells="64">
			<Points>
				<DataArray type="Float64" NumberOfComponents="3" format="ascii">
					 1.00000000E+00	 1.00000000E+00	-5.96046000E-08
					 1.00000000E+00	 5.00000000E-01	-5.96046000E-08
					 1.00000000E+00	 5.00000000E-01	 1.00000000E+00
					 1.00000000E+00	 1.00000000E+00	 1.00000000E+00
					 5.00000000E-01	 1.00000000E+00	-5.96046000E-08
					 5.00000000E-01	 5.00000000E-01	-5.96046000E-08
					 5.00000000E-01	 5.00000000E-01	 1.00000000E+00
					 5.00000000E-01	 1.00000000E+00	 1.00000000E+00
					 1.00000000E+00	 7.50000000E-01	-5.96046000E-08
					 1.00000000E+00	 5.00000000E-01	 5.00000000E-01
					 1.00000000E+00	 7.50000000E-01	 1.00000000E+00
					 1.00000000E+00	 1.00000000E+00	 5.00000000E-01
					 7.50000000E-01	 1.00000000E+00	-5.96046000E-08
					 7.50000000E-01	 5.00000000E-01	-5.96046000E-08
					 7.50000000E-01	 5.00000000E-01	 1.00000000E+00
					 7.50000000E-01	 1.00000000E+00	 1.00000000E+00
					 5.00000000E-01	 7.50000000E-01	-5.96046000E-08
					 5.00000000E-01	 5.00000000E-01	 5.00000000E-01
					 5.00000000E-01	 7.50000000E-01	 1.00000000E+00
					 5.00000000E-01	 1.00000000E+00	 5.00000000E-01
					 1.00000000E+00	-1.49012000E-08	-5.96046000E-08
					 1.00000000E+00	-1.49012000E-08	 1.00000000E+00
					 5.00000000E-01	-1.49012000E-08	-5.96046000E-08
					 5.00000000E-01	-1.49012000E-08	 1.00000000E+00
					 1.00000000E+00	 2.50000000E-01	-5.96046000E-08
					 1.00000000E+00	-1.49012000E-08	 5.00000000E-01
					 1.00000000E+00	 2.50000000E-01	 1.00000000E+00
					 7.50000000E-01	-1.49012000E-08	-5.96046000E-08
					 7.50000000E-01	-1.49012000E-08	 1.00000000E+00
					 5.00000000E-01	 2.50000000E-01	-5.96046000E-08
					 5.00000000E-01	-1.49012000E-08	 5.00000000E-01
					 5.00000000E-01	 2.50000000E-01	 1.00000000E+00
					-7.45058000E-09	 1.00000000E+00	-5.96046000E-08
					-7.45058000E-09	 5.00000000E-01	-5.96046000E-08
					-7.45058000E-09	 5.00000000E-01	 1.00000000E+00
					-7.45058000E-09	 1.00000000E+00	 1.00000000E+00
					 2.50000000E-01	 1.00000000E+00	-5.96046000E-08
					 2.50000000E-01	 5.00000000E-01	-5.96046000E-08
					 2.50000000E-01	 5.00000000E-01	 1.00000000E+00
					 2.50000000E-01	 1.00000000E+00	 1.00000000E+00
					-7.45058000E-09	 7.50000000E-01	-5.96046000E-08
					-7.45058000E-09	 5.00000000E-01	 5.00000000E-01
					-7.45058000E-09	 7.50000000E-01	 1.00000000E+00
					-7.45058000E-09	 1.00000000E+00	 5.00000000E-01
					-7.45058000E-09	-1.49012000E-08	-5.96046000E-08
					-7.45058000E-09	-1.49012000E-08	 1.00000000E+00
					 2.50000000E-01	-1.49012000E-08	-5.96046000E-08
					 2.50000000E-01	-1.49012000E-08	 1.00000000E+00
					-7.45058000E-09	 2.50000000E-01	-5.96046000E-08
					-7.45058000E-09	-1.49012000E-08	 5.00000000E-01
					-7.45058000E-09	 2.50000000E-01	 1.00000000E+00
					 1.00000000E+00	 5.00000000E-01	 2.00000000E+00
					 1.00000000E+00	 1.00000000E+00	 2.00000000E+00
					 5.00000000E-01	 5.00000000E-01	 2.00000000E+00
					 5.00000000E-01	 1.00000000E+00	 2.00000000E+00
					 1.00000000E+00	 5.00000000E-01	 1.50000000E+00
					 1.00000000E+00	 7.50000000E-01	 2.00000000E+00
					 1.00000000E+00	 1.00000000E+00	 1.50000000E+00
					 7.50000000E-01	 5.00000000E-01	 2.00000000E+00
					 7.50000000E-01	 1.00000000E+00	 2.00000000E+00
					 5.00000000E-01	 5.00000000E-01	 1.50000000E+00
					 5.00000000E-01	 7.50000000E-01	 2.00000000E+00
					 5.00000000E-01	 1.00000000E+00	 1.50000000E+00
					 1.00000000E+00	-1.49012000E-08	 2.00000000E+00
					 5.00000000E-01	-1.49012000E-08	 2.00000000E+00
					 1.00000000E+00	-1.49012000E-08	 1.50000000E+00
					 1.00000000E+00	 2.50000000E-01	 2.00000000E+00
					 7.50000000E-01	-1.49012000E-08	 2.00000000E+00
					 5.00000000E-01	-1.49012000E-08	 1.50000000E+00
					 5.00000000E-01	 2.50000000E-01	 2.00000000E+00
					-7.45058000E-09	 5.00000000E-01	 2.00000000E+00
					-7.45058000E-09	 1.00000000E+00	 2.00000000E+00
					 2.50000000E-01	 5.00000000E-01	 2.00000000E+00
					 2.50000000E-01	 1.00000000E+00	 2.00000000E+00
					-7.45058000E-09	 5.00000000E-01	 1.50000000E+00
					-7.45058000E-09	 7.50000000E-01	 2.00000000E+00
					-7.45058000E-09	 1.00000000E+00	 1.50000000E+00
					-7.45058000E-09	-1.49012000E-08	 2.00000000E+00
					 2.50000000E-01	-1.49012000E-08	 2.00000000E+00
					-7.45058000E-09	-1.49012000E-08	 1.50000000E+00
					-7.45058000E-09	 2.50000000E-01	 2.00000000E+00
					 1.00000000E+00	 5.00000000E-01	 3.00000000E+00
					 1.00000000E+00	 1.00000000E+00	 3.00000000E+00
					 5.00000000E-01	 5.00000000E-01	 3.00000000E+00
					 5.00000000E-01	 1.00000000E+00	 3.00000000E+00
					 1.00000000E+00	 5.00000000E-01	 2.50000000E+00
					 1.00000000E+00	 7.50000000E-01	 3.00000000E+00
					 1.00000000E+00	 1.00000000E+00	 2.50000000E+00
					 7.50000000E-01	 5.00000000E-01	 3.00000000E+00
					 7.50000000E-01	 1.00000000E+00	 3.00000000E+00
					 5.00000000E-01	 5.00000000E-01	 2.50000000E+00
					 5.00000000E-01	 7.50000000E-01	 3.00000000E+00
					 5.00000000E-01	 1.00000000E+00	 2.50000000E+00
					 1.00000000E+00	-1.49012000E-08	 3.00000000E+00
					 5.00000000E-01	-1.49012000E-08	 3.00000000E+00
					 1.00000000E+00	-1.49012000E-08	 2.50000000E+00
					 1.00000000E+00	 2.50000000E-01	 3.00000000E+00
					 7.50000000E-01	-1.49012000E-08	 3.00000000E+00
					 5.00000000E-01	-1.49012000E-08	 2.50000000E+00
					 5.00000000E-01	 2.50000000E-01	 3.00000000E+00
					-7.45058000E-09	 5.00000000E-01	 3.00000000E+00
					-7.45058000E-09	 1.00000000E+00	 3.00000000E+00
					 2.50000000E-01	 5.00000000E-01	 3.00000000E+00
					 2.50000000E-01	 1.00000000E+00	 3.00000000E+00
					-7.45058000E-09	 5.00000000E-01	 2.50000000E+00
					-7.45058000E-09	 7.50000000E-01	 3.00000000E+00
					-7.45058000E-09	 1.00000000E+00	 2.50000000E+00
					-7.45058000E-09	-1.49012000E-08	 3.00000000E+00
					 2.50000000E-01	-1.49012000E-08	 3.00000000E+00
					-7.45058000E-09	-1.49012000E-08	 2.50000000E+00
					-7.45058000E-09	 2.50000000E-01	 3.00000000E+00
					 1.00000000E+00	 5.00000000E-01	 4.00000000E+00
					 1.00000000E+00	 1.00000000E+00	 4.00000000E+00
					 5.00000000E-01	 5.00000000E-01	 4.00000000E+00
					 5.00000000E-01	 1.00000000E+00	 4.00000000E+00
					 1.00000000E+00	 5.00000000E-01	 3.50000000E+00
					 1.00000000E+00	 7.50000000E-01	 4.00000000E+00
					 1.00000000E+00	 1.00000000E+00	 3.50000000E+00
					 7.50000000E-01	 5.00000000E-01	 4.00000000E+00
					 7.50000000E-01	 1.00000000E+00	 4.00000000E+00
					 5.00000000E-01	 5.00000000E-01	 3.50000000E+00
					 5.00000000E-01	 7.50000000E-01	 4.00000000E+00
					 5.00000000E-01	 1.00000000E+00	 3.50000000E+00
					 1.00000000E+00	-1.49012000E-08	 4.00000000E+00
					 5.00000000E-01	-1.49012000E-08	 4.00000000E+00
					 1.00000000E+00	-1.49012000E-08	 3.50000000E+00
					 1.00000000E+00	 2.50000000E-01	 4.00000000E+00
					 7.50000000E-01	-1.49012000E-08	 4.00000000E+00
					 5.00000000E-01	-1.49012000E-08	 3.50000000E+00
					 5.00000000E-01	 2.50000000E-01	 4.00000000E+00
					-7.45058000E-09	 5.00000000E-01	 4.00000000E+00
					-7.45058000E-09	 1.00000000E+00	 4.00000000E+00
					 2.50000000E-01	 5.00000000E-01	 4.00000000E+00
					 2.50000000E-01	 1.00000000E+00	 4.00000000E+00
					-7.45058000E-09	 5.00000000E-01	 3.50000000E+00
					-7.45058000E-09	 7.50000000E-01	 4.00000000E+00
					-7.45058000E-09	 1.00000000E+00	 3.50000000E+00
					-7.45058000E-09	-1.49012000E-08	 4.00000000E+00
					 2.50000000E-01	-1.49012000E-08	 4.00000000E+00
					-7.45058000E-09	-1.49012000E-08	 3.50000000E+00
					-7.45058000E-09	 2.50000000E-01	 4.00000000E+00
					 1.00000000E+00	 5.00000000E-01	 5.00000000E+00
					 1.00000000E+00	 1.00000000E+00	 5.00000000E+00
					 5.00000000E-01	 5.00000000E-01	 5.00000000E+00
					 5.00000000E-01	 1.00000000E+00	 5.00000000E+00
					 1.00000000E+00	 5.00000000E-01	 4.50000000E+00
					 1.00000000E+00	 7.50000000E-01	 5.00000000E+00
					 1.00000000E+00	 1.00000000E+00	 4.50000000E+00
					 7.50000000E-01	 5.00000000E-01	 5.00000000E+00
					 7.50000000E-01	 1.00000000E+00	 5.00000000E+00
					 5.00000000E-01	 5.00000000E-01	 4.50000000E+00
					 5.00000000E-01	 7.50000000E-01	 5.00000000E+00
					 5.00000000E-01	 1.00000000E+00	 4.50000000E+00
					 1.00000000E+00	-1.49012000E-08	 5.00000000E+00
					 5.00000000E-01	-1.49012000E-08	 5.00000000E+00
					 1.00000000E+00	-1.49012000E-08	 4.50000000E+00
					 1.00000000E+00	 2.50000000E-01	 5.00000000E+00
					 7.50000000E-01	-1.49012000E-08	 5.00000000E+00
					 5.00000000E-01	-1.49012000E-08	 4.50000000E+00
					 5.00000000E-01	 2.50000000E-01	 5.00000000E+00
					-7.45058000E-09	 5.00000000E-01	 5.00000000E+00
					-7.45058000E-09	 1.00000000E+00	 5.00000000E+00
					 2.50000000E-01	 5.00000000E-01	 5.00000000E+00
					 2.50000000E-01	 1.00000000E+00	 5.00000000E+00
					-7.45058000E-09	 5.00000000E-01	 4.50000000E+00
					-7.45058000E-09	 7.50000000E-01	 5.00000000E+00
					-7.45058000E-09	 1.00000000E+00	 4.50000000E+00
					-7.45058000E-09	-1.49012000E-08	 5.00000000E+00
					 2.50000000E-01	-1.49012000E-08	 5.00000000E+00
					-7.45058000E-09	-1.49012000E-08	 4.50000000E+00
					-7.45058000E-09	 2.50000000E-01	 5.00000000E+00
					 1.00000000E+00	 5.00000000E-01	 6.00000000E+00
					 1.00000000E+00	 1.00000000E+00	 6.00000000E+00
					 5.00000000E-01	 5.00000000E-01	 6.00000000E+00
					 5.00000000E-01	 1.00000000E+00	 6.00000000E+00
					 1.00000000E+00	 5.00000000E-01	 5.50000000E+00
					 1.00000000E+00	 7.50000000E-01	 6.00000000E+00
					 1.00000000E+00	 1.00000000E+00	 5.50000000E+00
					 7.50000000E-01	 5.00000000E-01	 6.00000000E+00
					 7.50000000E-01	 1.00000000E+00	 6.00000000E+00
					 5.00000000E-01	 5.00000000E-01	 5.50000000E+00
					 5.00000000E-01	 7.50000000E-01	 6.00000000E+00
					 5.00000000E-01	 1.00000000E+00	 5.50000000E+00
					 1.00000000E+00	-1.49012000E-08	 6.00000000E+00
[...]
			<PointData>
				<DataArray type="Float32" Name="U" NumberOfComponents="3" ComponentName0="D1" ComponentName1="D2" ComponentName2="D3" format="ascii">
					 0.00000000E+00	 0.00000000E+00	 0.00000000E+00
					 0.00000000E+00	 0.00000000E+00	 0.00000000E+00
					 9.87522000E-06	-1.69563000E-03	-9.62703000E-05
					-1.24535000E-03	-1.94402000E-03	 2.25926000E-03
					 0.00000000E+00	 0.00000000E+00	 0.00000000E+00
					 0.00000000E+00	 0.00000000E+00	 0.00000000E+00
					 1.84332000E-05	-2.92493000E-03	-4.97240000E-05
					-1.06832000E-03	-3.00272000E-03	 2.26129000E-03
					 0.00000000E+00	 0.00000000E+00	 0.00000000E+00
					 1.26041000E-05	-1.80663000E-04	-1.62154000E-05
					-6.50277000E-04	-1.78065000E-03	 1.12481000E-03
					-7.83277000E-04	-3.73653000E-04	 1.17334000E-03
					 0.00000000E+00	 0.00000000E+00	 0.00000000E+00
					 0.00000000E+00	 0.00000000E+00	 0.00000000E+00
					 5.90272000E-06	-2.35106000E-03	-7.76652000E-05
					-1.15280000E-03	-2.46943000E-03	 2.17118000E-03
					 0.00000000E+00	 0.00000000E+00	 0.00000000E+00
					-1.95428000E-05	-8.52448000E-04	-2.27058000E-05
					-5.01464000E-04	-2.89987000E-03	 1.06788000E-03
					-4.91854000E-04	-1.06343000E-03	 1.16439000E-03
					 0.00000000E+00	 0.00000000E+00	 0.00000000E+00
					 1.47990000E-03	-1.77262000E-03	-2.32102000E-03
					 0.00000000E+00	 0.00000000E+00	 0.00000000E+00
					 1.04174000E-03	-3.01476000E-03	-2.37146000E-03
					 0.00000000E+00	 0.00000000E+00	 0.00000000E+00
					 8.57621000E-04	-3.77539000E-04	-1.21899000E-03
					 6.89023000E-04	-1.68560000E-03	-1.26333000E-03
					 0.00000000E+00	 0.00000000E+00	 0.00000000E+00
					 1.26868000E-03	-2.49247000E-03	-2.27644000E-03
					 0.00000000E+00	 0.00000000E+00	 0.00000000E+00
					 5.03932000E-04	-1.02746000E-03	-1.19672000E-03
					 5.17706000E-04	-2.92956000E-03	-1.17581000E-03
					 0.00000000E+00	 0.00000000E+00	 0.00000000E+00
					 0.00000000E+00	 0.00000000E+00	 0.00000000E+00
					-9.67627000E-06	-3.83661000E-03	-1.70982000E-05
					-9.48163000E-04	-4.10481000E-03	 2.24685000E-03
					 0.00000000E+00	 0.00000000E+00	 0.00000000E+00
					 0.00000000E+00	 0.00000000E+00	 0.00000000E+00
					 1.72427000E-05	-3.41713000E-03	-3.38710000E-05
					-1.01142000E-03	-3.51928000E-03	 2.34583000E-03
					 0.00000000E+00	 0.00000000E+00	 0.00000000E+00
					-3.90818000E-05	-1.20725000E-03	-3.50177000E-05
					-3.78188000E-04	-3.91747000E-03	 9.78336000E-04
					-2.07211000E-04	-1.45754000E-03	 1.21939000E-03
					 0.00000000E+00	 0.00000000E+00	 0.00000000E+00
					 6.67394000E-04	-3.86179000E-03	-2.33555000E-03
					 0.00000000E+00	 0.00000000E+00	 0.00000000E+00
					 8.39772000E-04	-3.48222000E-03	-2.48335000E-03
					 0.00000000E+00	 0.00000000E+00	 0.00000000E+00
					 1.05942000E-04	-1.37091000E-03	-1.23406000E-03
					 3.24572000E-04	-3.78349000E-03	-1.02703000E-03
					 3.29683000E-05	-7.79221000E-03	-1.09946000E-04
					-1.85810000E-03	-7.77107000E-03	 3.83358000E-03
					 4.07276000E-05	-9.39741000E-03	-1.85166000E-04
					-1.45254000E-03	-9.52370000E-03	 3.76893000E-03
					 2.80967000E-05	-4.33430000E-03	-8.18266000E-05
					-8.78688000E-04	-7.75658000E-03	 1.88344000E-03
					-1.51047000E-03	-4.47452000E-03	 3.06998000E-03
					 3.48547000E-05	-8.61799000E-03	-1.29641000E-04
					-1.64330000E-03	-8.72159000E-03	 3.80288000E-03
					 5.41533000E-05	-5.74990000E-03	-1.23004000E-04
					-7.30130000E-04	-9.43166000E-03	 1.81870000E-03
					-1.28164000E-03	-5.86711000E-03	 3.04449000E-03
					 1.46467000E-03	-8.11086000E-03	-4.05470000E-03
					 1.46317000E-03	-9.46318000E-03	-4.07847000E-03
					 1.59177000E-03	-4.44725000E-03	-3.24171000E-03
					 8.47160000E-04	-7.91044000E-03	-2.08741000E-03
					 1.46621000E-03	-8.73368000E-03	-4.05255000E-03
					 1.34778000E-03	-5.89090000E-03	-3.30338000E-03
					 7.71041000E-04	-9.40538000E-03	-2.12625000E-03
					 2.02938000E-05	-1.07425000E-02	-2.32291000E-04
					-1.10315000E-03	-1.07005000E-02	 3.77443000E-03
					 2.59531000E-05	-1.01044000E-02	-1.91564000E-04
					-1.27392000E-03	-1.01981000E-02	 3.77144000E-03
					 4.36618000E-05	-6.94686000E-03	-1.01220000E-04
					-5.93729000E-04	-1.06931000E-02	 1.78200000E-03
					-1.11852000E-03	-7.12724000E-03	 3.04963000E-03
					 1.41952000E-03	-1.09325000E-02	-4.14564000E-03
					 1.43981000E-03	-1.01792000E-02	-4.08702000E-03
					 1.18972000E-03	-7.17536000E-03	-3.28261000E-03
					 6.65237000E-04	-1.07968000E-02	-2.18411000E-03
					 4.56098000E-05	-1.70264000E-02	-1.03290000E-04
					-1.72484000E-03	-1.72084000E-02	 5.32038000E-03
					 6.26505000E-05	-1.86847000E-02	-3.35543000E-05
					-1.56433000E-03	-1.88603000E-02	 5.41695000E-03
					-3.06117000E-05	-1.20294000E-02	-1.41025000E-04
					-8.10633000E-04	-1.70938000E-02	 2.58869000E-03
					-1.80754000E-03	-1.21220000E-02	 4.58846000E-03
					 5.67030000E-05	-1.79038000E-02	-8.19270000E-05
					-1.64441000E-03	-1.80631000E-02	 5.34364000E-03
					 5.86099000E-07	-1.36321000E-02	-1.20437000E-04
					-7.28666000E-04	-1.87542000E-02	 2.63612000E-03
					-1.52130000E-03	-1.37888000E-02	 4.62014000E-03
					 1.96228000E-03	-1.69481000E-02	-5.50198000E-03
					 1.62709000E-03	-1.87216000E-02	-5.55401000E-03
					 1.72162000E-03	-1.21190000E-02	-4.81116000E-03
					 9.27798000E-04	-1.69777000E-02	-2.74908000E-03
					 1.78984000E-03	-1.79455000E-02	-5.53762000E-03
					 1.50778000E-03	-1.37012000E-02	-4.76926000E-03
					 8.37038000E-04	-1.86837000E-02	-2.77823000E-03
					 5.34239000E-05	-2.01894000E-02	-4.17798000E-05
					-1.38112000E-03	-2.04747000E-02	 5.35878000E-03
					 5.92029000E-05	-1.94655000E-02	-3.74166000E-05
					-1.47752000E-03	-1.96610000E-02	 5.35868000E-03
					 5.46255000E-05	-1.50518000E-02	-1.48757000E-04
					-6.52276000E-04	-2.03183000E-02	 2.61865000E-03
					-1.24169000E-03	-1.51876000E-02	 4.58364000E-03
					 1.30261000E-03	-2.01416000E-02	-5.48590000E-03
					 1.46679000E-03	-1.94991000E-02	-5.51737000E-03
					 1.28951000E-03	-1.50955000E-02	-4.79774000E-03
					 7.21029000E-04	-2.01475000E-02	-2.77485000E-03
					 7.61122000E-05	-2.97358000E-02	-1.75989000E-04
					-1.34146000E-03	-2.96633000E-02	 5.98596000E-03
					 4.74088000E-05	-3.10752000E-02	-1.93458000E-04
					-1.29462000E-03	-3.10678000E-02	 5.94122000E-03
					 6.86199000E-05	-2.31364000E-02	-9.75812000E-05
					-6.28077000E-04	-2.97066000E-02	 2.80021000E-03
					-1.55845000E-03	-2.31801000E-02	 5.86449000E-03
					 7.03288000E-05	-3.03854000E-02	-1.82718000E-04
					-1.32406000E-03	-3.03652000E-02	 6.01423000E-03
					 6.97196000E-05	-2.47129000E-02	-1.01586000E-04
					-6.33501000E-04	-3.10673000E-02	 2.85555000E-03
					-1.41304000E-03	-2.48386000E-02	 5.82203000E-03
					 1.30452000E-03	-2.97506000E-02	-6.34727000E-03
					 1.37321000E-03	-3.10557000E-02	-6.37175000E-03
					 1.75916000E-03	-2.31083000E-02	-6.07232000E-03
					 6.81061000E-04	-2.97410000E-02	-3.22053000E-03
					 1.33154000E-03	-3.03990000E-02	-6.38302000E-03
					 1.54266000E-03	-2.47058000E-02	-6.12401000E-03
					 7.09798000E-04	-3.10579000E-02	-3.24716000E-03
					 4.21720000E-05	-3.23760000E-02	-2.07571000E-04
					-1.26332000E-03	-3.24217000E-02	 5.97547000E-03
					 3.32459000E-05	-3.17185000E-02	-2.05971000E-04
					-1.25573000E-03	-3.17247000E-02	 5.97349000E-03
					 4.71364000E-05	-2.61228000E-02	-8.56933000E-05
					-6.00432000E-04	-3.23787000E-02	 2.87001000E-03
					-1.34512000E-03	-2.62486000E-02	 5.80553000E-03
					 1.48636000E-03	-3.25233000E-02	-6.35066000E-03
					 1.42629000E-03	-3.17221000E-02	-6.34192000E-03
					 1.41833000E-03	-2.61769000E-02	-6.07023000E-03
					 7.09588000E-04	-3.24458000E-02	-3.26771000E-03
					 8.71446000E-05	-4.24865000E-02	-3.02546000E-04
					-7.25978000E-04	-4.24840000E-02	 5.77766000E-03
					 7.11232000E-05	-4.31681000E-02	-3.33077000E-04
					-7.00190000E-04	-4.32850000E-02	 5.85123000E-03
					 5.82405000E-05	-3.60883000E-02	-2.68581000E-04
					-3.09602000E-04	-4.24813000E-02	 2.75107000E-03
					-1.03231000E-03	-3.61173000E-02	 5.83715000E-03
					 7.72519000E-05	-4.28275000E-02	-3.45710000E-04
					-6.97542000E-04	-4.29062000E-02	 5.88320000E-03
					 3.31615000E-05	-3.71768000E-02	-2.52816000E-04
					-3.11005000E-04	-4.32129000E-02	 2.78410000E-03
					-9.87497000E-04	-3.72113000E-02	 5.84759000E-03
					 8.41476000E-04	-4.24141000E-02	-6.56374000E-03
					 8.37292000E-04	-4.31895000E-02	-6.44370000E-03
					 1.10810000E-03	-3.60721000E-02	-6.42247000E-03
					 4.80321000E-04	-4.24476000E-02	-3.38233000E-03
					 8.48230000E-04	-4.27852000E-02	-6.55893000E-03
					 1.08766000E-03	-3.71390000E-02	-6.36934000E-03
					 4.60261000E-04	-4.31802000E-02	-3.41412000E-03
					 2.28928000E-05	-4.39520000E-02	-2.81863000E-04
					-5.62790000E-04	-4.39182000E-02	 5.82795000E-03
					 4.94451000E-05	-4.35614000E-02	-3.10916000E-04
					-6.48131000E-04	-4.36271000E-02	 5.77754000E-03
					 5.09962000E-05	-3.81791000E-02	-2.67894000E-04
					-3.01276000E-04	-4.39501000E-02	 2.87894000E-03
					-1.00300000E-03	-3.82037000E-02	 5.85003000E-03
					 7.48553000E-04	-4.39013000E-02	-6.51533000E-03
					 7.89551000E-04	-4.35546000E-02	-6.43095000E-03
					 1.10714000E-03	-3.82247000E-02	-6.36931000E-03
					 4.05101000E-04	-4.39145000E-02	-3.47878000E-03
					 8.88688000E-05	-5.55344000E-02	-4.29024000E-04
					-4.40279000E-04	-5.55986000E-02	 6.39363000E-03
					 5.92870000E-05	-5.59143000E-02	-4.05266000E-04
					-2.71769000E-04	-5.60726000E-02	 6.40122000E-03
					 3.87935000E-05	-4.88376000E-02	-3.47453000E-04
					-1.92011000E-04	-5.55402000E-02	 3.00029000E-03
					-5.01650000E-04	-4.89644000E-02	 6.04792000E-03
					 7.58841000E-05	-5.57504000E-02	-4.05717000E-04
					-3.80952000E-04	-5.58110000E-02	 6.38486000E-03
					 8.44433000E-05	-4.93895000E-02	-3.78647000E-04
					-1.05053000E-04	-5.60056000E-02	 2.98059000E-03
					-4.41631000E-04	-4.94485000E-02	 6.05218000E-03
					 4.39687000E-04	-5.55331000E-02	-7.20455000E-03
					 4.41631000E-04	-5.59080000E-02	-7.19741000E-03
					 6.00333000E-04	-4.89132000E-02	-6.80624000E-03
					 3.06999000E-04	-5.55082000E-02	-3.81785000E-03
					 4.33493000E-04	-5.57444000E-02	-7.19586000E-03
					 5.45308000E-04	-4.93748000E-02	-6.77628000E-03
					 2.47382000E-04	-5.58803000E-02	-3.80979000E-03
					 1.01557000E-04	-5.62169000E-02	-3.98180000E-04
					 5.22867000E-06	-5.61472000E-02	 6.41755000E-03
					 6.81853000E-05	-5.61176000E-02	-3.97759000E-04
					-1.18456000E-04	-5.61937000E-02	 6.45134000E-03
					 9.29606000E-05	-4.98130000E-02	-3.56534000E-04
					-1.51031000E-05	-5.61590000E-02	 2.97864000E-03
					-2.32739000E-04	-4.98647000E-02	 6.08080000E-03
					 3.25567000E-04	-5.61611000E-02	-7.22050000E-03
					 4.07727000E-04	-5.60972000E-02	-7.22799000E-03
					 4.31563000E-04	-4.98152000E-02	-6.83046000E-03
					 2.05476000E-04	-5.61960000E-02	-3.77119000E-03
					 8.82199000E-05	-6.96029000E-02	-4.35630000E-04
					-7.24345000E-04	-6.95924000E-02	 6.75467000E-03
					 5.03988000E-05	-7.05153000E-02	-4.59045000E-04
					-8.91275000E-04	-7.06502000E-02	 6.67955000E-03
					 9.50412000E-05	-6.24782000E-02	-4.48769000E-04
					-3.30720000E-04	-6.95923000E-02	 3.10970000E-03
					-6.11970000E-04	-6.25981000E-02	 6.66473000E-03
					 7.39538000E-05	-7.00545000E-02	-4.61437000E-04
					-7.76510000E-04	-7.01336000E-02	 6.70055000E-03
					 7.53750000E-05	-6.31045000E-02	-4.08432000E-04
					-4.20094000E-04	-7.05648000E-02	 3.07760000E-03
					-5.57893000E-04	-6.31935000E-02	 6.70123000E-03
					 1.06742000E-03	-6.94604000E-02	-7.71101000E-03
					 1.05013000E-03	-7.05256000E-02	-7.81400000E-03
					 8.11950000E-04	-6.24124000E-02	-7.62175000E-03
					 5.14290000E-04	-6.95434000E-02	-4.05807000E-03
					 1.06552000E-03	-6.99685000E-02	-7.68381000E-03
					 7.53368000E-04	-6.31102000E-02	-7.58261000E-03
					 5.59176000E-04	-7.05285000E-02	-4.11103000E-03
					 1.38115000E-05	-7.14973000E-02	-5.49585000E-04
					-1.05673000E-03	-7.15886000E-02	 6.73146000E-03
					 4.74409000E-05	-7.10000000E-02	-5.30448000E-04
					-9.99615000E-04	-7.10053000E-02	 6.79983000E-03
					 5.81961000E-05	-6.37404000E-02	-4.62087000E-04
					-4.11051000E-04	-7.15335000E-02	 2.99020000E-03
					-5.29356000E-04	-6.38752000E-02	 6.62221000E-03
					 1.04760000E-03	-7.15141000E-02	-7.80130000E-03
					 1.02097000E-03	-7.09027000E-02	-7.84861000E-03
					 7.33575000E-04	-6.38003000E-02	-7.59353000E-03
					 5.10822000E-04	-7.14900000E-02	-4.10144000E-03
					-8.29489000E-05	-8.35247000E-02	-4.51228000E-04
					-9.11032000E-04	-8.35164000E-02	 6.27902000E-03
					 1.07796000E-04	-8.48024000E-02	-9.66056000E-04
					-8.98300000E-04	-8.47028000E-02	 6.31733000E-03
					 1.45878000E-04	-7.67225000E-02	-5.37337000E-04
					-5.51962000E-04	-8.35302000E-02	 2.97655000E-03
					-7.48830000E-04	-7.68470000E-02	 6.55447000E-03
					 6.62461000E-06	-8.41231000E-02	-6.65120000E-04
					-9.46212000E-04	-8.40030000E-02	 6.23276000E-03
					 1.15574000E-04	-7.77080000E-02	-6.50738000E-04
					-3.47548000E-04	-8.47690000E-02	 2.75105000E-03
					-9.34553000E-04	-7.77144000E-02	 6.42747000E-03
					 8.31839000E-04	-8.32513000E-02	-6.96759000E-03
					 1.21878000E-03	-8.47339000E-02	-7.54598000E-03
					 1.24659000E-03	-7.65667000E-02	-7.35734000E-03
					 3.60827000E-04	-8.34026000E-02	-3.87293000E-03
					 1.00367000E-03	-8.40091000E-02	-7.38140000E-03
					 1.24540000E-03	-7.77728000E-02	-7.79980000E-03
					 6.09131000E-04	-8.47784000E-02	-4.25299000E-03
					 3.24607000E-04	-8.61981000E-02	-5.96926000E-04
					-4.23817000E-04	-8.59062000E-02	 6.65212000E-03
					 1.99234000E-04	-8.55371000E-02	-7.64591000E-04
					-6.61921000E-04	-8.53551000E-02	 6.36698000E-03
					 1.01790000E-04	-7.88078000E-02	-6.29856000E-04
					-7.42715000E-05	-8.60341000E-02	 3.15244000E-03
					-1.09563000E-03	-7.90459000E-02	 6.67085000E-03
					 1.31201000E-03	-8.63348000E-02	-8.20420000E-03
					 1.31389000E-03	-8.55678000E-02	-7.93150000E-03
					 1.28851000E-03	-7.88351000E-02	-7.87716000E-03
					 7.61050000E-04	-8.62677000E-02	-4.38845000E-03
					 0.00000000E+00	 0.00000000E+00	 0.00000000E+00
					 0.00000000E+00	 0.00000000E+00	 0.00000000E+00
					-1.33816000E-04	-7.06323000E-03	 1.43396000E-04
					 6.21599000E-04	-7.41368000E-03	 5.71226000E-03
					 0.00000000E+00	 0.00000000E+00	 0.00000000E+00
					 0.00000000E+00	 0.00000000E+00	 0.00000000E+00
					-7.14634000E-05	-6.20562000E-03	 2.34906000E-04
					 1.19088000E-03	-6.52889000E-03	 5.87088000E-03
					 0.00000000E+00	 0.00000000E+00	 0.00000000E+00
					-4.36816000E-05	-1.88693000E-03	 9.80727000E-05
					 2.03104000E-04	-7.11230000E-03	 2.74977000E-03
					-3.44185000E-04	-2.33196000E-03	 2.93114000E-03
					 0.00000000E+00	 0.00000000E+00	 0.00000000E+00
					 0.00000000E+00	 0.00000000E+00	 0.00000000E+00
					-1.22154000E-04	-6.73871000E-03	 1.80054000E-04
					 9.29643000E-04	-7.09225000E-03	 5.89324000E-03
					 0.00000000E+00	 0.00000000E+00	 0.00000000E+00
					-2.44582000E-05	-1.63589000E-03	 1.31716000E-04
					 5.28492000E-04	-6.21647000E-03	 2.94371000E-03
					 5.69487000E-04	-2.17257000E-03	 2.86527000E-03
					 0.00000000E+00	 0.00000000E+00	 0.00000000E+00
					-4.02801000E-04	-7.14345000E-03	-5.36844000E-03
					 0.00000000E+00	 0.00000000E+00	 0.00000000E+00
					-1.13734000E-03	-6.58563000E-03	-5.46410000E-03
					 0.00000000E+00	 0.00000000E+00	 0.00000000E+00
					 3.02080000E-04	-2.25602000E-03	-2.72119000E-03
					-3.01010000E-04	-6.95492000E-03	-2.40918000E-03
					 0.00000000E+00	 0.00000000E+00	 0.00000000E+00
					-7.61477000E-04	-7.03581000E-03	-5.54013000E-03
					 0.00000000E+00	 0.00000000E+00	 0.00000000E+00
					-5.94594000E-04	-2.04808000E-03	-2.64900000E-03
					-5.60050000E-04	-6.29578000E-03	-2.54127000E-03
					 0.00000000E+00	 0.00000000E+00	 0.00000000E+00
					 0.00000000E+00	 0.00000000E+00	 0.00000000E+00
					-2.51743000E-05	-4.68705000E-03	 2.11286000E-04
					 1.80199000E-03	-5.12554000E-03	 5.70010000E-03
					 0.00000000E+00	 0.00000000E+00	 0.00000000E+00
					 0.00000000E+00	 0.00000000E+00	 0.00000000E+00
					-2.30692000E-05	-5.59372000E-03	 2.18856000E-04
					 1.46930000E-03	-5.95993000E-03	 5.65058000E-03
					 0.00000000E+00	 0.00000000E+00	 0.00000000E+00
					 3.88696000E-06	-7.21530000E-04	 7.88140000E-05
					 8.85488000E-04	-4.79707000E-03	 3.00790000E-03
					 1.35734000E-03	-1.30734000E-03	 2.92385000E-03
					 0.00000000E+00	 0.00000000E+00	 0.00000000E+00
					-2.07383000E-03	-4.72555000E-03	-5.32882000E-03
					 0.00000000E+00	 0.00000000E+00	 0.00000000E+00
					-1.60776000E-03	-5.87523000E-03	-5.29529000E-03
					 0.00000000E+00	 0.00000000E+00	 0.00000000E+00
					-1.41955000E-03	-1.07651000E-03	-2.67412000E-03
					-9.40118000E-04	-4.57954000E-03	-2.58279000E-03
					-9.34136000E-05	-2.38297000E-02	 2.90774000E-04
					 6.52372000E-04	-2.38615000E-02	 9.47760000E-03
					-1.38165000E-04	-2.27012000E-02	 2.00629000E-04
					 1.26199000E-03	-2.30232000E-02	 9.44989000E-03
					 4.86332000E-06	-1.45397000E-02	 2.45843000E-04
					 3.69441000E-04	-2.38404000E-02	 4.74265000E-03
					 7.18723000E-04	-1.48774000E-02	 7.94756000E-03
					-1.09785000E-04	-2.33111000E-02	 2.41200000E-04
					 9.60424000E-04	-2.35490000E-02	 9.47925000E-03
					 2.23890000E-05	-1.34899000E-02	 2.08633000E-04
					 6.01091000E-04	-2.28421000E-02	 4.73513000E-03
					 1.30593000E-03	-1.38530000E-02	 7.95332000E-03
					-1.30773000E-03	-2.39418000E-02	-8.92693000E-03
					-1.33426000E-03	-2.27028000E-02	-9.03759000E-03
					-8.92910000E-04	-1.47905000E-02	-7.47429000E-03
					-6.72864000E-04	-2.38510000E-02	-4.19782000E-03
					-1.30827000E-03	-2.33076000E-02	-8.98103000E-03
					-1.36549000E-03	-1.36477000E-02	-7.57744000E-03
					-7.77670000E-04	-2.26630000E-02	-4.27949000E-03
					-1.35464000E-04	-2.12607000E-02	 1.82389000E-04
					 1.78118000E-03	-2.14661000E-02	 9.41200000E-03
					-1.58220000E-04	-2.19972000E-02	 2.20676000E-04
					 1.52589000E-03	-2.23049000E-02	 9.51488000E-03
					 2.12347000E-05	-1.19003000E-02	 2.33348000E-04
					 8.23673000E-04	-2.13305000E-02	 4.61186000E-03
					 1.92760000E-03	-1.22052000E-02	 7.91775000E-03
					-1.45293000E-03	-2.15912000E-02	-8.94020000E-03
					-1.38885000E-03	-2.21047000E-02	-9.04027000E-03
					-1.92538000E-03	-1.20175000E-02	-7.49039000E-03
					-8.60322000E-04	-2.14052000E-02	-4.21166000E-03
					-1.20212000E-04	-4.49499000E-02	 2.12298000E-04
					 1.51881000E-03	-4.50518000E-02	 9.85882000E-03
					-1.36351000E-06	-4.35777000E-02	 3.91484000E-04
					 1.33748000E-03	-4.36831000E-02	 9.98935000E-03
					-1.58917000E-04	-3.42709000E-02	 2.75036000E-04
					 6.22960000E-04	-4.49880000E-02	 4.98273000E-03
					 1.01121000E-03	-3.44590000E-02	 1.00221000E-02
					-6.72927000E-05	-4.42436000E-02	 2.87529000E-04
					 1.42018000E-03	-4.42711000E-02	 9.94050000E-03
					-1.10420000E-04	-3.30738000E-02	 2.72605000E-04
					 6.10933000E-04	-4.36363000E-02	 5.12252000E-03
					 1.13199000E-03	-3.32817000E-02	 1.01262000E-02
					-1.55494000E-03	-4.48588000E-02	-9.38879000E-03
					-1.39458000E-03	-4.34106000E-02	-9.32021000E-03
					-1.50431000E-03	-3.43412000E-02	-9.53637000E-03
					-7.54339000E-04	-4.49235000E-02	-4.56266000E-03
					-1.46290000E-03	-4.40330000E-02	-9.37908000E-03
					-1.43928000E-03	-3.29676000E-02	-9.51432000E-03
					-6.68033000E-04	-4.35062000E-02	-4.41223000E-03
					 4.99712000E-05	-4.22820000E-02	 4.48336000E-04
					 1.01523000E-03	-4.25852000E-02	 1.01522000E-02
					 3.25786000E-05	-4.29176000E-02	 3.95179000E-04
					 1.16914000E-03	-4.29833000E-02	 1.01143000E-02
					-7.39848000E-05	-3.17244000E-02	 3.11721000E-04
					 5.96312000E-04	-4.24519000E-02	 5.14935000E-03
					 1.21074000E-03	-3.19839000E-02	 1.01725000E-02
					-1.26558000E-03	-4.19295000E-02	-9.20446000E-03
					-1.33245000E-03	-4.26700000E-02	-9.33847000E-03
					-1.40301000E-03	-3.16260000E-02	-9.45034000E-03
					-5.87412000E-04	-4.21204000E-02	-4.28750000E-03
					 1.31971000E-04	-6.29332000E-02	 1.14956000E-04
					 1.30275000E-03	-6.26602000E-02	 8.36264000E-03