<?xml version="1.0"?>
<VTKFile type="UnstructuredGrid" version="0.1" byte_order="LittleEndian">
	<UnstructuredGrid>
		<Piece NumberOfPoints="522" NumberOfCells="64">
			<Points>
				<DataArray type="Float64" NumberOfComponents="3" format="ascii">
					 1.00000000E+00	 1.00000000E+00	-5.96046000E-08
					 1.00000000E+00	 5.00000000E-01	-5.96046000E-08
					 1.00000000E+00	 5.00000000E-01	 1.00000000E+00
					 1.00000000E+00	 1.00000000E+00	 1.00000000E+00
					 5.00000000E-01	 1.00000000E+00	-5.96046000E-08
					 5.00000000E-01	 5.00000000E-01	-5.96046000E-08
					 5.00000000E-01	 5.00000000E-01	 1.00000000E+00
					 5.00000000E-01	 1.00000000E+00	 1.00000000E+00
					 1.00000000E+00	 7.50000000E-01	-5.96046000E-08
					 1.00000000E+00	 5.00000000E-01	 5.00000000E-01
					 1.00000000E+00	 7.50000000E-01	 1.00000000E+00
					 1.00000000E+00	 1.00000000E+00	 5.00000000E-01
					 7.50000000E-01	 1.00000000E+00	-5.96046000E-08
					 7.50000000E-01	 5.00000000E-01	-5.96046000E-08
					 7.50000000E-01	 5.00000000E-01	 1.00000000E+00
					 7.50000000E-01	 1.00000000E+00	 1.00000000E+00
					 5.00000000E-01	 7.50000000E-01	-5.96046000E-08
					 5.00000000E-01	 5.00000000E-01	 5.00000000E-01
					 5.00000000E-01	 7.50000000E-01	 1.00000000E+00
					 5.00000000E-01	 1.00000000E+00	 5.00000000E-01
					 1.00000000E+00	-1.49012000E-08	-5.96046000E-08
					 1.00000000E+00	-1.49012000E-08	 1.00000000E+00
					 5.00000000E-01	-1.49012000E-08	-5.96046000E-08
					 5.00000000E-01	-1.49012000E-08	 1.00000000E+00
					 1.00000000E+00	 2.50000000E-01	-5.96046000E-08
					 1.00000000E+00	-1.49012000E-08	 5.00000000E-01
					 1.00000000E+00	 2.50000000E-01	 1.00000000E+00
					 7.50000000E-01	-1.49012000E-08	-5.96046000E-08
					 7.50000000E-01	-1.49012000E-08	 1.00000000E+00
					 5.00000000E-01	 2.50000000E-01	-5.96046000E-08
					 5.00000000E-01	-1.49012000E-08	 5.00000000E-01
					 5.00000000E-01	 2.50000000E-01	 1.00000000E+00
					-7.45058000E-09	 1.00000000E+00	-5.96046000E-08
					-7.45058000E-09	 5.00000000E-01	-5.96046000E-08
					-7.45058000E-09	 5.00000000E-01	 1.00000000E+00
					-7.45058000E-09	 1.00000000E+00	 1.00000000E+00
					 2.50000000E-01	 1.00000000E+00	-5.96046000E-08
					 2.50000000E-01	 5.00000000E-01	-5.96046000E-08
					 2.50000000E-01	 5.00000000E-01	 1.00000000E+00
					 2.50000000E-01	 1.00000000E+00	 1.00000000E+00
					-7.45058000E-09	 7.50000000E-01	-5.96046000E-08
					-7.45058000E-09	 5.00000000E-01	 5.00000000E-01
					-7.45058000E-09	 7.50000000E-01	 1.00000000E+00
					-7.45058000E-09	 1.00000000E+00	 5.00000000E-01
					-7.45058000E-09	-1.49012000E-08	-5.96046000E-08
					-7.45058000E-09	-1.49012000E-08	 1.00000000E+00
					 2.50000000E-01	-1.49012000E-08	-5.96046000E-08
					 2.50000000E-01	-1.49012000E-08	 1.00000000E+00
					-7.45058000E-09	 2.50000000E-01	-5.96046000E-08
					-7.45058000E-09	-1.49012000E-08	 5.00000000E-01
					-7.45058000E-09	 2.50000000E-01	 1.00000000E+00
					 1.00000000E+00	 5.00000000E-01	 2.00000000E+00
					 1.00000000E+00	 1.00000000E+00	 2.00000000E+00
					 5.00000000E-01	 5.00000000E-01	 2.00000000E+00
					 5.00000000E-01	 1.00000000E+00	 2.00000000E+00
					 1.00000000E+00	 5.00000000E-01	 1.50000000E+00
					 1.00000000E+00	 7.50000000E-01	 2.00000000E+00
					 1.00000000E+00	 1.00000000E+00	 1.50000000E+00
					 7.50000000E-01	 5.00000000E-01	 2.00000000E+00
					 7.50000000E-01	 1.00000000E+00	 2.00000000E+00
					 5.00000000E-01	 5.00000000E-01	 1.50000000E+00
					 5.00000000E-01	 7.50000000E-01	 2.00000000E+00
					 5.00000000E-01	 1.00000000E+00	 1.50000000E+00
					 1.00000000E+00	-1.49012000E-08	 2.00000000E+00
					 5.00000000E-01	-1.49012000E-08	 2.00000000E+00
					 1.00000000E+00	-1.49012000E-08	 1.50000000E+00
					 1.00000000E+00	 2.50000000E-01	 2.00000000E+00
					 7.50000000E-01	-1.49012000E-08	 2.00000000E+00
					 5.00000000E-01	-1.49012000E-08	 1.50000000E+00
					 5.00000000E-01	 2.50000000E-01	 2.00000000E+00
					-7.45058000E-09	 5.00000000E-01	 2.00000000E+00
					-7.45058000E-09	 1.00000000E+00	 2.00000000E+00
					 2.50000000E-01	 5.00000000E-01	 2.00000000E+00
					 2.50000000E-01	 1.00000000E+00	 2.00000000E+00
					-7.45058000E-09	 5.00000000E-01	 1.50000000E+00
					-7.45058000E-09	 7.50000000E-01	 2.00000000E+00
					-7.45058000E-09	 1.00000000E+00	 1.50000000E+00
					-7.45058000E-09	-1.49012000E-08	 2.00000000E+00
					 2.50000000E-01	-1.49012000E-08	 2.00000000E+00
					-7.45058000E-09	-1.49012000E-08	 1.50000000E+00
					-7.45058000E-09	 2.50000000E-01	 2.00000000E+00
					 1.00000000E+00	 5.00000000E-01	 3.00000000E+00
					 1.00000000E+00	 1.00000000E+00	 3.00000000E+00
					 5.00000000E-01	 5.00000000E-01	 3.00000000E+00
					 5.00000000E-01	 1.00000000E+00	 3.00000000E+00
					 1.00000000E+00	 5.00000000E-01	 2.50000000E+00
					 1.00000000E+00	 7.50000000E-01	 3.00000000E+00
					 1.00000000E+00	 1.00000000E+00	 2.50000000E+00
					 7.50000000E-01	 5.00000000E-01	 3.00000000E+00
					 7.50000000E-01	 1.00000000E+00	 3.00000000E+00
					 5.00000000E-01	 5.00000000E-01	 2.50000000E+00
					 5.00000000E-01	 7.50000000E-01	 3.00000000E+00
					 5.00000000E-01	 1.00000000E+00	 2.50000000E+00
					 1.00000000E+00	-1.49012000E-08	 3.00000000E+00
					 5.00000000E-01	-1.49012000E-08	 3.00000000E+00
					 1.00000000E+00	-1.49012000E-08	 2.50000000E+00
					 1.00000000E+00	 2.50000000E-01	 3.00000000E+00
					 7.50000000E-01	-1.49012000E-08	 3.00000000E+00
					 5.00000000E-01	-1.49012000E-08	 2.50000000E+00
					 5.00000000E-01	 2.50000000E-01	 3.00000000E+00
					-7.45058000E-09	 5.00000000E-01	 3.00000000E+00
					-7.45058000E-09	 1.00000000E+00	 3.00000000E+00
					 2.50000000E-01	 5.00000000E-01	 3.00000000E+00
					 2.50000000E-01	 1.00000000E+00	 3.00000000E+00
					-7.45058000E-09	 5.00000000E-01	 2.50000000E+00
					-7.45058000E-09	 7.50000000E-01	 3.00000000E+00
					-7.45058000E-09	 1.00000000E+00	 2.50000000E+00
					-7.45058000E-09	-1.49012000E-08	 3.00000000E+00
					 2.50000000E-01	-1.49012000E-08	 3.00000000E+00
					-7.45058000E-09	-1.49012000E-08	 2.50000000E+00
					-7.45058000E-09	 2.50000000E-01	 3.00000000E+00
					 1.00000000E+00	 5.00000000E-01	 4.00000000E+00
					 1.00000000E+00	 1.00000000E+00	 4.00000000E+00
					 5.00000000E-01	 5.00000000E-01	 4.00000000E+00
					 5.00000000E-01	 1.00000000E+00	 4.00000000E+00
					 1.00000000E+00	 5.00000000E-01	 3.50000000E+00
					 1.00000000E+00	 7.50000000E-01	 4.00000000E+00
					 1.00000000E+00	 1.00000000E+00	 3.50000000E+00
					 7.50000000E-01	 5.00000000E-01	 4.00000000E+00
					 7.50000000E-01	 1.00000000E+00	 4.00000000E+00
					 5.00000000E-01	 5.00000000E-01	 3.50000000E+00
					 5.00000000E-01	 7.50000000E-01	 4.00000000E+00
					 5.00000000E-01	 1.00000000E+00	 3.50000000E+00
					 1.00000000E+00	-1.49012000E-08	 4.00000000E+00
					 5.00000000E-01	-1.49012000E-08	 4.00000000E+00
					 1.00000000E+00	-1.49012000E-08	 3.50000000E+00
					 1.00000000E+00	 2.50000000E-01	 4.00000000E+00
					 7.50000000E-01	-1.49012000E-08	 4.00000000E+00
					 5.00000000E-01	-1.49012000E-08	 3.50000000E+00
					 5.00000000E-01	 2.50000000E-01	 4.00000000E+00
					-7.45058000E-09	 5.00000000E-01	 4.00000000E+00
					-7.45058000E-09	 1.00000000E+00	 4.00000000E+00
					 2.50000000E-01	 5.00000000E-01	 4.00000000E+00
					 2.50000000E-01	 1.00000000E+00	 4.00000000E+00
					-7.45058000E-09	 5.00000000E-01	 3.50000000E+00
					-7.45058000E-09	 7.50000000E-01	 4.00000000E+00
					-7.45058000E-09	 1.00000000E+00	 3.50000000E+00
					-7.45058000E-09	-1.49012000E-08	 4.00000000E+00
					 2.50000000E-01	-1.49012000E-08	 4.00000000E+00
					-7.45058000E-09	-1.49012000E-08	 3.50000000E+00
					-7.45058000E-09	 2.50000000E-01	 4.00000000E+00
					 1.00000000E+00	 5.00000000E-01	 5.00000000E+00
					 1.00000000E+00	 1.00000000E+00	 5.00000000E+00
					 5.00000000E-01	 5.00000000E-01	 5.00000000E+00
					 5.00000000E-01	 1.00000000E+00	 5.00000000E+00
					 1.00000000E+00	 5.00000000E-01	 4.50000000E+00
					 1.00000000E+00	 7.50000000E-01	 5.00000000E+00
					 1.00000000E+00	 1.00000000E+00	 4.50000000E+00
					 7.50000000E-01	 5.00000000E-01	 5.00000000E+00
					 7.50000000E-01	 1.00000000E+00	 5.00000000E+00
					 5.00000000E-01	 5.00000000E-01	 4.50000000E+00
					 5.00000000E-01	 7.50000000E-01	 5.00000000E+00
					 5.00000000E-01	 1.00000000E+00	 4.50000000E+00
					 1.00000000E+00	-1.49012000E-08	 5.00000000E+00
					 5.00000000E-01	-1.49012000E-08	 5.00000000E+00
					 1.00000000E+00	-1.49012000E-08	 4.50000000E+00
					 1.00000000E+00	 2.50000000E-01	 5.00000000E+00
					 7.50000000E-01	-1.49012000E-08	 5.00000000E+00
					 5.00000000E-01	-1.49012000E-08	 4.50000000E+00
					 5.00000000E-01	 2.50000000E-01	 5.00000000E+00
					-7.45058000E-09	 5.00000000E-01	 5.00000000E+00
					-7.45058000E-09	 1.00000000E+00	 5.00000000E+00
					 2.50000000E-01	 5.00000000E-01	 5.00000000E+00
					 2.50000000E-01	 1.00000000E+00	 5.00000000E+00
					-7.45058000E-09	 5.00000000E-01	 4.50000000E+00
					-7.45058000E-09	 7.50000000E-01	 5.00000000E+00
					-7.45058000E-09	 1.00000000E+00	 4.50000000E+00
					-7.45058000E-09	-1.49012000E-08	 5.00000000E+00
					 2.50000000E-01	-1.49012000E-08	 5.00000000E+00
					-7.45058000E-09	-1.49012000E-08	 4.50000000E+00
					-7.45058000E-09	 2.50000000E-01	 5.00000000E+00
					 1.00000000E+00	 5.00000000E-01	 6.00000000E+00
					 1.00000000E+00	 1.00000000E+00	 6.00000000E+00
					 5.00000000E-01	 5.00000000E-01	 6.00000000E+00
					 5.00000000E-01	 1.00000000E+00	 6.00000000E+00
					 1.00000000E+00	 5.00000000E-01	 5.50000000E+00
					 1.00000000E+00	 7.50000000E-01	 6.00000000E+00
					 1.00000000E+00	 1.00000000E+00	 5.50000000E+00
					 7.50000000E-01	 5.00000000E-01	 6.00000000E+00
					 7.50000000E-01	 1.00000000E+00	 6.00000000E+00
					 5.00000000E-01	 5.00000000E-01	 5.50000000E+00
					 5.00000000E-01	 7.50000000E-01	 6.00000000E+00
					 5.00000000E-01	 1.00000000E+00	 5.50000000E+00
					 1.00000000E+00	-1.49012000E-08	 6.00000000E+00
[...]
			<PointData>
				<DataArray type="Float32" Name="U" NumberOfComponents="3" ComponentName0="D1" ComponentName1="D2" ComponentName2="D3" format="ascii">
					 0.00000000E+00	 0.00000000E+00	 0.00000000E+00
					 0.00000000E+00	 0.00000000E+00	 0.00000000E+00
					 2.90519000E-05	-5.35176000E-03	-5.58801000E-05
					-8.22382000E-04	-5.56736000E-03	 4.36770000E-03
					 0.00000000E+00	 0.00000000E+00	 0.00000000E+00
					 0.00000000E+00	 0.00000000E+00	 0.00000000E+00
					 2.35429000E-05	-5.97537000E-03	-5.25908000E-05
					-3.64240000E-04	-6.20395000E-03	 4.43592000E-03
					 0.00000000E+00	 0.00000000E+00	 0.00000000E+00
					 2.09921000E-05	-1.42737000E-03	-2.55077000E-05
					-3.98305000E-04	-5.36908000E-03	 2.08889000E-03
					-8.31057000E-04	-1.80296000E-03	 2.38795000E-03
					 0.00000000E+00	 0.00000000E+00	 0.00000000E+00
					 0.00000000E+00	 0.00000000E+00	 0.00000000E+00
					 2.66444000E-05	-5.75066000E-03	-5.47189000E-05
					-5.88933000E-04	-5.97104000E-03	 4.37572000E-03
					 0.00000000E+00	 0.00000000E+00	 0.00000000E+00
					 1.37124000E-05	-1.90307000E-03	-1.98165000E-05
					-1.69787000E-04	-5.99516000E-03	 2.09344000E-03
					-1.73839000E-04	-2.28242000E-03	 2.34516000E-03
					 0.00000000E+00	 0.00000000E+00	 0.00000000E+00
					 8.76576000E-04	-5.52788000E-03	-4.48456000E-03
					 0.00000000E+00	 0.00000000E+00	 0.00000000E+00
					 4.10329000E-04	-6.16331000E-03	-4.54730000E-03
					 0.00000000E+00	 0.00000000E+00	 0.00000000E+00
					 8.64520000E-04	-1.80017000E-03	-2.44327000E-03
					 4.55256000E-04	-5.34937000E-03	-2.20265000E-03
					 0.00000000E+00	 0.00000000E+00	 0.00000000E+00
					 6.40420000E-04	-5.93030000E-03	-4.48980000E-03
					 0.00000000E+00	 0.00000000E+00	 0.00000000E+00
					 1.96341000E-04	-2.27279000E-03	-2.38804000E-03
					 2.16544000E-04	-5.97530000E-03	-2.20018000E-03
					 0.00000000E+00	 0.00000000E+00	 0.00000000E+00
					 0.00000000E+00	 0.00000000E+00	 0.00000000E+00
					 1.62741000E-05	-6.12502000E-03	-4.48373000E-05
					 1.01438000E-04	-6.33116000E-03	 4.37798000E-03
					 0.00000000E+00	 0.00000000E+00	 0.00000000E+00
					 0.00000000E+00	 0.00000000E+00	 0.00000000E+00
					 1.97046000E-05	-6.13581000E-03	-4.97727000E-05
					-1.35152000E-04	-6.35512000E-03	 4.45301000E-03
					 0.00000000E+00	 0.00000000E+00	 0.00000000E+00
					 6.76232000E-06	-1.79929000E-03	-1.36894000E-05
					 5.85306000E-05	-6.13649000E-03	 2.02713000E-03
					 4.98865000E-04	-2.16498000E-03	 2.39972000E-03
					 0.00000000E+00	 0.00000000E+00	 0.00000000E+00
					-6.71157000E-05	-6.29195000E-03	-4.47275000E-03
					 0.00000000E+00	 0.00000000E+00	 0.00000000E+00
					 1.74084000E-04	-6.31426000E-03	-4.55878000E-03
					 0.00000000E+00	 0.00000000E+00	 0.00000000E+00
					-4.87223000E-04	-2.15057000E-03	-2.43018000E-03
					-2.50293000E-05	-6.11777000E-03	-2.11742000E-03
					 4.99803000E-05	-1.71157000E-02	-1.47129000E-04
					-1.21007000E-03	-1.73387000E-02	 6.95679000E-03
					 4.99088000E-05	-1.82105000E-02	-1.53341000E-04
					-8.73191000E-04	-1.84290000E-02	 6.96018000E-03
					 3.79571000E-05	-1.06558000E-02	-9.48819000E-05
					-5.83750000E-04	-1.71945000E-02	 3.43091000E-03
					-9.80621000E-04	-1.09217000E-02	 5.79538000E-03
					 4.99549000E-05	-1.76989000E-02	-1.49984000E-04
					-1.04200000E-03	-1.79161000E-02	 6.91737000E-03
					 3.40391000E-05	-1.14856000E-02	-9.64540000E-05
					-4.11484000E-04	-1.82881000E-02	 3.38938000E-03
					-5.92394000E-04	-1.17406000E-02	 5.81314000E-03
					 1.30930000E-03	-1.72405000E-02	-7.25789000E-03
					 9.70450000E-04	-1.83315000E-02	-7.27314000E-03
					 1.05814000E-03	-1.08518000E-02	-5.99543000E-03
					 6.83066000E-04	-1.71458000E-02	-3.72678000E-03
					 1.14077000E-03	-1.78196000E-02	-7.22468000E-03
					 6.61139000E-04	-1.16737000E-02	-6.01527000E-03
					 5.10085000E-04	-1.82408000E-02	-3.69817000E-03
					 4.77893000E-05	-1.89610000E-02	-1.53028000E-04
					-5.31044000E-04	-1.91778000E-02	 6.95255000E-03
					 4.94563000E-05	-1.86212000E-02	-1.55025000E-04
					-7.01193000E-04	-1.88373000E-02	 7.00205000E-03
					 2.87966000E-05	-1.19076000E-02	-9.10897000E-05
					-2.38396000E-04	-1.90360000E-02	 3.33696000E-03
					-2.00960000E-04	-1.21678000E-02	 5.80137000E-03
					 6.23013000E-04	-1.90772000E-02	-7.26430000E-03
					 7.96064000E-04	-1.87376000E-02	-7.31785000E-03
					 2.59749000E-04	-1.21015000E-02	-5.99169000E-03
					 3.32919000E-04	-1.89873000E-02	-3.64481000E-03
					 6.27729000E-05	-3.29213000E-02	-2.70462000E-04
					-1.95581000E-03	-3.31705000E-02	 8.98286000E-03
					 6.65308000E-05	-3.47845000E-02	-3.01797000E-04
					-1.64561000E-03	-3.50310000E-02	 8.95795000E-03
					 6.14102000E-05	-2.45416000E-02	-2.06057000E-04
					-9.46340000E-04	-3.30047000E-02	 4.41773000E-03
					-1.53462000E-03	-2.47795000E-02	 8.00199000E-03
					 6.56931000E-05	-3.38948000E-02	-2.88185000E-04
					-1.79954000E-03	-3.41410000E-02	 8.89870000E-03
					 6.24852000E-05	-2.59809000E-02	-2.21449000E-04
					-7.89084000E-04	-3.48649000E-02	 4.32007000E-03
					-1.21767000E-03	-2.62117000E-02	 7.99059000E-03
					 2.07917000E-03	-3.29875000E-02	-9.53014000E-03
					 1.78130000E-03	-3.48499000E-02	-9.56907000E-03
					 1.65174000E-03	-2.46451000E-02	-8.41751000E-03
					 1.07122000E-03	-3.29110000E-02	-4.96146000E-03
					 1.92961000E-03	-3.39601000E-02	-9.48012000E-03
					 1.34013000E-03	-2.60746000E-02	-8.43744000E-03
					 9.22591000E-04	-3.47729000E-02	-4.92563000E-03
					 6.61117000E-05	-3.63459000E-02	-3.27501000E-04
					-1.32682000E-03	-3.65772000E-02	 8.92771000E-03
					 6.64784000E-05	-3.56056000E-02	-3.14532000E-04
					-1.48547000E-03	-3.58499000E-02	 9.01499000E-03
					 6.06482000E-05	-2.70987000E-02	-2.31521000E-04
					-6.34177000E-04	-3.64171000E-02	 4.22095000E-03
					-8.91591000E-04	-2.73255000E-02	 7.97636000E-03
					 1.46710000E-03	-3.64076000E-02	-9.59123000E-03
					 1.62509000E-03	-3.56707000E-02	-9.65357000E-03
					 1.01318000E-03	-2.71906000E-02	-8.44430000E-03
					 7.68365000E-04	-3.63348000E-02	-4.87750000E-03
					 4.93316000E-05	-5.25869000E-02	-4.58338000E-04
					-3.05523000E-03	-5.27995000E-02	 1.05514000E-02
					 5.83745000E-05	-5.55992000E-02	-5.26876000E-04
					-2.86746000E-03	-5.58118000E-02	 1.05101000E-02
					 5.56918000E-05	-4.22820000E-02	-3.51001000E-04
					-1.50272000E-03	-5.26712000E-02	 5.08885000E-03
					-2.47717000E-03	-4.25223000E-02	 9.88603000E-03
					 5.35897000E-05	-5.41160000E-02	-4.92502000E-04
					-2.96188000E-03	-5.43275000E-02	 1.04427000E-02
					 6.29502000E-05	-4.46842000E-02	-4.01413000E-04
					-1.40555000E-03	-5.56807000E-02	 4.94437000E-03
					-2.20558000E-03	-4.49185000E-02	 9.85149000E-03
					 3.15736000E-03	-5.25413000E-02	-1.14724000E-02
					 2.98536000E-03	-5.55593000E-02	-1.15669000E-02
					 2.59309000E-03	-4.22963000E-02	-1.05976000E-02
					 1.60177000E-03	-5.25408000E-02	-6.00549000E-03
					 3.07241000E-03	-5.40764000E-02	-1.14326000E-02
					 2.33627000E-03	-4.47007000E-02	-1.06641000E-02
					 1.52219000E-03	-5.55583000E-02	-5.99858000E-03
					 6.53274000E-05	-5.84361000E-02	-5.96288000E-04
					-2.68460000E-03	-5.86458000E-02	 1.04173000E-02
					 6.25713000E-05	-5.70396000E-02	-5.61889000E-04
					-2.77517000E-03	-5.72541000E-02	 1.05806000E-02
					 6.64518000E-05	-4.68230000E-02	-4.48004000E-04
					-1.31103000E-03	-5.85141000E-02	 4.74989000E-03
					-1.92382000E-03	-4.70397000E-02	 9.79263000E-03
					 2.81351000E-03	-5.83949000E-02	-1.16111000E-02
					 2.89906000E-03	-5.69980000E-02	-1.17058000E-02
					 2.06298000E-03	-4.68328000E-02	-1.06982000E-02
					 1.44105000E-03	-5.83971000E-02	-5.94283000E-03
					 4.90710000E-05	-7.48158000E-02	-7.19844000E-04
					-3.96648000E-03	-7.49202000E-02	 1.06127000E-02
					 5.84023000E-05	-7.88523000E-02	-8.12919000E-04
					-4.01328000E-03	-7.89704000E-02	 1.05402000E-02
					 4.96444000E-05	-6.35864000E-02	-5.86960000E-04
					-1.95629000E-03	-7.48781000E-02	 4.96187000E-03
					-3.56912000E-03	-6.37426000E-02	 1.07721000E-02
					 5.53087000E-05	-7.68238000E-02	-7.65956000E-04
					-3.98977000E-03	-7.69371000E-02	 1.05252000E-02
					 5.79650000E-05	-6.71673000E-02	-6.69952000E-04
					-1.97818000E-03	-7.89231000E-02	 4.82567000E-03
					-3.50329000E-03	-6.73349000E-02	 1.07205000E-02
					 4.04693000E-03	-7.46385000E-02	-1.20456000E-02
					 4.12257000E-03	-7.86686000E-02	-1.21594000E-02
					 3.65961000E-03	-6.34671000E-02	-1.19419000E-02
					 2.04970000E-03	-7.47367000E-02	-6.39952000E-03
					 4.08531000E-03	-7.66445000E-02	-1.20507000E-02
					 3.61478000E-03	-6.70501000E-02	-1.20548000E-02
					 2.09241000E-03	-7.87705000E-02	-6.44993000E-03
					 6.70726000E-05	-8.29488000E-02	-9.09614000E-04
					-4.07722000E-03	-8.30771000E-02	 1.04258000E-02
					 6.14422000E-05	-8.08918000E-02	-8.60729000E-04
					-4.04660000E-03	-8.10133000E-02	 1.05570000E-02
					 6.50179000E-05	-7.06984000E-02	-7.56555000E-04
					-2.00218000E-03	-8.30228000E-02	 4.64922000E-03
					-3.45705000E-03	-7.08760000E-02	 1.06074000E-02
					 4.21586000E-03	-8.27783000E-02	-1.22393000E-02
					 4.16953000E-03	-8.07078000E-02	-1.22724000E-02
					 3.58693000E-03	-7.05915000E-02	-1.21134000E-02
					 2.13784000E-03	-8.28756000E-02	-6.46689000E-03
					 3.19917000E-05	-9.64064000E-02	-9.60718000E-04
					-4.48126000E-03	-9.64634000E-02	 9.52860000E-03
					 4.73769000E-05	-1.00990000E-01	-1.06460000E-03
					-4.60892000E-03	-1.01051000E-01	 9.42323000E-03
					 4.28472000E-05	-8.58359000E-02	-8.45428000E-04
					-2.22516000E-03	-9.64568000E-02	 4.31357000E-03
					-4.26726000E-03	-8.59143000E-02	 1.01302000E-02
					 4.02802000E-05	-9.86789000E-02	-1.01314000E-03
					-4.54523000E-03	-9.87371000E-02	 9.45032000E-03
					 5.44752000E-05	-9.01996000E-02	-9.44741000E-04
					-2.28099000E-03	-1.01042000E-01	 4.18407000E-03
					-4.37222000E-03	-9.02889000E-02	 1.00384000E-02
					 4.53704000E-03	-9.62034000E-02	-1.14518000E-02
					 4.69880000E-03	-1.00781000E-01	-1.15534000E-02
					 4.33906000E-03	-8.56380000E-02	-1.18180000E-02
					 2.28630000E-03	-9.63240000E-02	-6.23643000E-03
					 4.61907000E-03	-9.84722000E-02	-1.14774000E-02
					 4.47463000E-03	-8.99965000E-02	-1.19261000E-02
					 2.37385000E-03	-1.00906000E-01	-6.31360000E-03
					 6.42938000E-05	-1.05710000E-01	-1.16625000E-03
					-4.74254000E-03	-1.05780000E-01	 9.32168000E-03
					 5.47065000E-05	-1.03330000E-01	-1.11514000E-03
					-4.67636000E-03	-1.03395000E-01	 9.39495000E-03
					 6.69700000E-05	-9.46825000E-02	-1.04605000E-03
					-2.33744000E-03	-1.05766000E-01	 4.05983000E-03
					-4.49417000E-03	-9.47850000E-02	 9.92785000E-03
					 4.87022000E-03	-1.05507000E-01	-1.16548000E-02
					 4.78280000E-03	-1.03122000E-01	-1.16255000E-02
					 4.63005000E-03	-9.44926000E-02	-1.20203000E-02
					 2.46550000E-03	-1.05629000E-01	-6.39279000E-03
					 1.03104000E-05	-1.15928000E-01	-1.15772000E-03
					-4.94279000E-03	-1.15996000E-01	 8.53520000E-03
					 4.00818000E-05	-1.20901000E-01	-1.26473000E-03
					-4.98049000E-03	-1.20983000E-01	 8.42760000E-03
					 2.06055000E-05	-1.06402000E-01	-1.06392000E-03
					-2.46499000E-03	-1.15970000E-01	 3.74349000E-03
					-4.69502000E-03	-1.06468000E-01	 8.97089000E-03
					 2.51977000E-05	-1.18408000E-01	-1.21039000E-03
					-4.96362000E-03	-1.18482000E-01	 8.44555000E-03
					 4.32912000E-05	-1.11172000E-01	-1.17092000E-03
					-2.47103000E-03	-1.20951000E-01	 3.60386000E-03
					-4.79122000E-03	-1.11240000E-01	 8.85759000E-03
					 4.94786000E-03	-1.15777000E-01	-1.08522000E-02
					 5.04342000E-03	-1.20746000E-01	-1.09575000E-02
					 4.72922000E-03	-1.06228000E-01	-1.11038000E-02
					 2.48074000E-03	-1.15863000E-01	-6.05780000E-03
					 4.99602000E-03	-1.18255000E-01	-1.08694000E-02
					 4.86993000E-03	-1.10990000E-01	-1.12014000E-02
					 2.54481000E-03	-1.20833000E-01	-6.13354000E-03
					 6.51158000E-05	-1.25943000E-01	-1.37142000E-03
					-5.02423000E-03	-1.26035000E-01	 8.33876000E-03
					 5.38494000E-05	-1.23412000E-01	-1.31931000E-03
					-5.00150000E-03	-1.23499000E-01	 8.40615000E-03
					 6.41285000E-05	-1.16052000E-01	-1.27291000E-03
					-2.47986000E-03	-1.25998000E-01	 3.48327000E-03
					-4.88415000E-03	-1.16125000E-01	 8.76675000E-03
					 5.14229000E-03	-1.25783000E-01	-1.10811000E-02
					 5.09390000E-03	-1.23255000E-01	-1.10432000E-02
					 5.00889000E-03	-1.15868000E-01	-1.13114000E-02
					 2.60618000E-03	-1.25870000E-01	-6.22719000E-03
					 3.06794000E-06	-1.34594000E-01	-1.34554000E-03
					-5.25166000E-03	-1.34685000E-01	 8.15881000E-03
					 2.22320000E-05	-1.39853000E-01	-1.44282000E-03
					-5.22584000E-03	-1.39974000E-01	 8.07877000E-03
					 2.15314000E-06	-1.25221000E-01	-1.25045000E-03
					-2.61556000E-03	-1.34637000E-01	 3.41688000E-03
					-5.16327000E-03	-1.25300000E-01	 8.28901000E-03
					 1.42113000E-05	-1.37216000E-01	-1.39236000E-03
					-5.23651000E-03	-1.37329000E-01	 8.10965000E-03
					 3.15279000E-05	-1.30385000E-01	-1.35256000E-03
					-2.59395000E-03	-1.39912000E-01	 3.32251000E-03
					-5.15877000E-03	-1.30488000E-01	 8.19870000E-03
					 5.22937000E-03	-1.34458000E-01	-1.08262000E-02
					 5.25197000E-03	-1.39727000E-01	-1.09558000E-02
					 5.14178000E-03	-1.25093000E-01	-1.07794000E-02
					 2.61395000E-03	-1.34526000E-01	-6.10078000E-03
					 5.23937000E-03	-1.37085000E-01	-1.08752000E-02
					 5.20288000E-03	-1.30252000E-01	-1.08996000E-02
					 2.63003000E-03	-1.39787000E-01	-6.20579000E-03
					 4.16637000E-05	-1.45133000E-01	-1.55596000E-03
					-5.21291000E-03	-1.45266000E-01	 7.99456000E-03
					 3.12625000E-05	-1.42501000E-01	-1.49773000E-03
					-5.22127000E-03	-1.42624000E-01	 8.04612000E-03
					 5.71773000E-05	-1.35581000E-01	-1.46505000E-03
					-2.57959000E-03	-1.45199000E-01	 3.22004000E-03
					-5.15745000E-03	-1.35698000E-01	 8.11063000E-03
					 5.28497000E-03	-1.45020000E-01	-1.11158000E-02
					 5.27019000E-03	-1.42380000E-01	-1.10455000E-02
					 5.25707000E-03	-1.35445000E-01	-1.10440000E-02
					 2.65876000E-03	-1.45074000E-01	-6.33487000E-03
					 0.00000000E+00	 0.00000000E+00	 0.00000000E+00
					 0.00000000E+00	 0.00000000E+00	 0.00000000E+00
					 1.64628000E-05	-8.63239000E-03	-2.59305000E-05
					-2.65721000E-03	-9.39533000E-03	 1.00882000E-02
					 0.00000000E+00	 0.00000000E+00	 0.00000000E+00
					 0.00000000E+00	 0.00000000E+00	 0.00000000E+00
					 1.64761000E-05	-1.05740000E-02	-3.92056000E-05
					-1.24445000E-03	-1.13898000E-02	 1.01793000E-02
					 0.00000000E+00	 0.00000000E+00	 0.00000000E+00
					 7.77729000E-06	-1.26175000E-03	 6.62982000E-06
					-1.32224000E-03	-8.77539000E-03	 5.06993000E-03
					-2.12210000E-03	-2.18813000E-03	 5.00281000E-03
					 0.00000000E+00	 0.00000000E+00	 0.00000000E+00
					 0.00000000E+00	 0.00000000E+00	 0.00000000E+00
					 1.77649000E-05	-9.83544000E-03	-3.71723000E-05
					-1.93910000E-03	-1.06221000E-02	 1.00102000E-02
					 0.00000000E+00	 0.00000000E+00	 0.00000000E+00
					 3.70550000E-06	-2.55807000E-03	 7.79697000E-07
					-6.13612000E-04	-1.07323000E-02	 4.98351000E-03
					-6.10006000E-04	-3.47370000E-03	 4.84825000E-03
					 0.00000000E+00	 0.00000000E+00	 0.00000000E+00
					 2.66687000E-03	-9.13540000E-03	-1.01795000E-02
					 0.00000000E+00	 0.00000000E+00	 0.00000000E+00
					 1.27567000E-03	-1.11166000E-02	-1.02997000E-02
					 0.00000000E+00	 0.00000000E+00	 0.00000000E+00
					 2.11556000E-03	-2.09429000E-03	-4.99431000E-03
					 1.34768000E-03	-8.63879000E-03	-5.13647000E-03
					 0.00000000E+00	 0.00000000E+00	 0.00000000E+00
					 1.96420000E-03	-1.03534000E-02	-1.01227000E-02
					 0.00000000E+00	 0.00000000E+00	 0.00000000E+00
					 6.12668000E-04	-3.37247000E-03	-4.84346000E-03
					 6.44775000E-04	-1.05916000E-02	-5.07674000E-03
					 0.00000000E+00	 0.00000000E+00	 0.00000000E+00
					 0.00000000E+00	 0.00000000E+00	 0.00000000E+00
					 1.61404000E-05	-1.11534000E-02	-2.38544000E-05
					 1.77936000E-04	-1.19115000E-02	 1.00948000E-02
					 0.00000000E+00	 0.00000000E+00	 0.00000000E+00
					 0.00000000E+00	 0.00000000E+00	 0.00000000E+00
					 1.54034000E-05	-1.10943000E-02	-3.60565000E-05
					-5.43698000E-04	-1.18812000E-02	 1.02446000E-02
					 0.00000000E+00	 0.00000000E+00	 0.00000000E+00
					-7.00332000E-07	-2.48180000E-03	 1.05581000E-05
					 9.70599000E-05	-1.12895000E-02	 4.84062000E-03
					 9.48212000E-04	-3.36713000E-03	 5.01070000E-03
					 0.00000000E+00	 0.00000000E+00	 0.00000000E+00
					-1.31651000E-04	-1.16407000E-02	-1.01762000E-02
					 0.00000000E+00	 0.00000000E+00	 0.00000000E+00
					 5.77516000E-04	-1.16075000E-02	-1.03566000E-02
					 0.00000000E+00	 0.00000000E+00	 0.00000000E+00
					-9.41175000E-04	-3.26034000E-03	-4.98747000E-03
					-5.86783000E-05	-1.11555000E-02	-4.89838000E-03
					 1.22729000E-04	-3.81391000E-02	-4.53280000E-04
					-3.36926000E-03	-3.89653000E-02	 1.80080000E-02
					 1.37160000E-04	-4.11184000E-02	-4.77628000E-04
					-2.35903000E-03	-4.19609000E-02	 1.80370000E-02
					 5.48989000E-05	-2.11553000E-02	-1.70100000E-04
					-1.61927000E-03	-3.84391000E-02	 8.71399000E-03
					-3.10919000E-03	-2.20153000E-02	 1.45077000E-02
					 1.29254000E-04	-3.97387000E-02	-4.70705000E-04
					-2.86473000E-03	-4.05743000E-02	 1.79770000E-02
					 5.72929000E-05	-2.36827000E-02	-1.92550000E-04
					-1.10574000E-03	-4.14257000E-02	 8.67295000E-03
					-1.84985000E-03	-2.45537000E-02	 1.45421000E-02
					 3.60799000E-03	-3.82386000E-02	-1.89661000E-02
					 2.62412000E-03	-4.12346000E-02	-1.90434000E-02
					 3.20505000E-03	-2.15336000E-02	-1.49060000E-02
					 1.86100000E-03	-3.80802000E-02	-9.63245000E-03
					 3.11863000E-03	-3.98553000E-02	-1.89682000E-02
					 1.96349000E-03	-2.40687000E-02	-1.49851000E-02
					 1.38170000E-03	-4.10710000E-02	-9.63757000E-03
					 1.46197000E-04	-4.31244000E-02	-4.62517000E-04
					-1.33991000E-03	-4.39455000E-02	 1.79960000E-02
					 1.42029000E-04	-4.22302000E-02	-4.75046000E-04
					-1.84856000E-03	-4.30990000E-02	 1.81213000E-02
					 5.88316000E-05	-2.49749000E-02	-1.73842000E-04
					-6.04950000E-04	-4.34143000E-02	 8.55526000E-03
					-5.97966000E-04	-2.58400000E-02	 1.45044000E-02
					 1.65628000E-03	-4.32345000E-02	-1.89715000E-02
					 2.13918000E-03	-4.23442000E-02	-1.91254000E-02
					 7.38283000E-04	-2.53670000E-02	-1.49054000E-02
					 9.04918000E-04	-4.30736000E-02	-9.48783000E-03
					 3.74904000E-04	-8.13660000E-02	-1.38445000E-03
					-3.52359000E-03	-8.20852000E-02	 2.17799000E-02
					 3.93679000E-04	-8.50124000E-02	-1.38935000E-03
					-3.04280000E-03	-8.58489000E-02	 2.18249000E-02
					 2.35295000E-04	-5.85248000E-02	-8.64382000E-04
					-1.56898000E-03	-8.16657000E-02	 1.01122000E-02
					-3.50075000E-03	-5.93331000E-02	 2.03824000E-02
					 3.86175000E-04	-8.32472000E-02	-1.38722000E-03
					-3.28694000E-03	-8.40387000E-02	 2.17704000E-02
					 2.49265000E-04	-6.18882000E-02	-8.83805000E-04
					-1.34927000E-03	-8.53762000E-02	 1.00888000E-02
					-2.76044000E-03	-6.27197000E-02	 2.04266000E-02
					 4.22744000E-03	-8.10248000E-02	-2.45555000E-02
					 3.82607000E-03	-8.46797000E-02	-2.46477000E-02
					 3.95068000E-03	-5.84064000E-02	-2.21490000E-02
					 2.30462000E-03	-8.11472000E-02	-1.28773000E-02
					 4.02566000E-03	-8.29029000E-02	-2.45797000E-02
					 3.25415000E-03	-6.17621000E-02	-2.22335000E-02
					 2.11270000E-03	-8.48034000E-02	-1.28942000E-02
					 4.07887000E-04	-8.82299000E-02	-1.37616000E-03
					-2.67626000E-03	-8.91921000E-02	 2.17763000E-02
					 4.00276000E-04	-8.66899000E-02	-1.38657000E-03
					-2.86219000E-03	-8.74602000E-02	 2.18967000E-02
					 2.70050000E-04	-6.45392000E-02	-8.74495000E-04
					-1.10051000E-03	-8.86567000E-02	 9.97319000E-03
					-2.06226000E-03	-6.54030000E-02	 2.03722000E-02
					 3.45157000E-03	-8.79379000E-02	-2.46031000E-02
					 3.63883000E-03	-8.63501000E-02	-2.47189000E-02
					 2.56227000E-03	-6.44160000E-02	-2.21640000E-02
					 1.91789000E-03	-8.80538000E-02	-1.27762000E-02
					 8.06169000E-04	-1.30343000E-01	-2.58864000E-03
					-3.06847000E-03	-1.30869000E-01	 2.18134000E-02