# vtk DataFile Version 3.0

ASCII
DATASET UNSTRUCTURED_GRID

POINTS 522 double
	 1.00000000E+00	 1.00000000E+00	-5.96046000E-08
	 1.00000000E+00	 5.00000000E-01	-5.96046000E-08
	 1.00000000E+00	 5.00000000E-01	 1.00000000E+00
	 1.00000000E+00	 1.00000000E+00	 1.00000000E+00
	 5.00000000E-01	 1.00000000E+00	-5.96046000E-08
	 5.00000000E-01	 5.00000000E-01	-5.96046000E-08
	 5.00000000E-01	 5.00000000E-01	 1.00000000E+00
	 5.00000000E-01	 1.00000000E+00	 1.00000000E+00
	 1.00000000E+00	 7.50000000E-01	-5.96046000E-08
	 1.00000000E+00	 5.00000000E-01	 5.00000000E-01
	 1.00000000E+00	 7.50000000E-01	 1.00000000E+00
	 1.00000000E+00	 1.00000000E+00	 5.00000000E-01
	 7.50000000E-01	 1.00000000E+00	-5.96046000E-08
	 7.50000000E-01	 5.00000000E-01	-5.96046000E-08
	 7.50000000E-01	 5.00000000E-01	 1.00000000E+00
	 7.50000000E-01	 1.00000000E+00	 1.00000000E+00
	 5.00000000E-01	 7.50000000E-01	-5.96046000E-08
	 5.00000000E-01	 5.00000000E-01	 5.00000000E-01
	 5.00000000E-01	 7.50000000E-01	 1.00000000E+00
	 5.00000000E-01	 1.00000000E+00	 5.00000000E-01
	 1.00000000E+00	-1.49012000E-08	-5.96046000E-08
	 1.00000000E+00	-1.49012000E-08	 1.00000000E+00
	 5.00000000E-01	-1.49012000E-08	-5.96046000E-08
	 5.00000000E-01	-1.49012000E-08	 1.00000000E+00
	 1.00000000E+00	 2.50000000E-01	-5.96046000E-08
	 1.00000000E+00	-1.49012000E-08	 5.00000000E-01
	 1.00000000E+00	 2.50000000E-01	 1.00000000E+00
	 7.50000000E-01	-1.49012000E-08	-5.96046000E-08
	 7.50000000E-01	-1.49012000E-08	 1.00000000E+00
	 5.00000000E-01	 2.50000000E-01	-5.96046000E-08
	 5.00000000E-01	-1.49012000E-08	 5.00000000E-01
	 5.00000000E-01	 2.50000000E-01	 1.00000000E+00
	-7.45058000E-09	 1.00000000E+00	-5.96046000E-08
	-7.45058000E-09	 5.00000000E-01	-5.96046000E-08
	-7.45058000E-09	 5.00000000E-01	 1.00000000E+00
	-7.45058000E-09	 1.00000000E+00	 1.00000000E+00
	 2.50000000E-01	 1.00000000E+00	-5.96046000E-08
	 2.50000000E-01	 5.00000000E-01	-5.96046000E-08
	 2.50000000E-01	 5.00000000E-01	 1.00000000E+00
	 2.50000000E-01	 1.00000000E+00	 1.00000000E+00
	-7.45058000E-09	 7.50000000E-01	-5.96046000E-08
	-7.45058000E-09	 5.00000000E-01	 5.00000000E-01
	-7.45058000E-09	 7.50000000E-01	 1.00000000E+00
	-7.45058000E-09	 1.00000000E+00	 5.00000000E-01
	-7.45058000E-09	-1.49012000E-08	-5.96046000E-08
	-7.45058000E-09	-1.49012000E-08	 1.00000000E+00
	 2.50000000E-01	-1.49012000E-08	-5.96046000E-08
	 2.50000000E-01	-1.49012000E-08	 1.00000000E+00
	-7.45058000E-09	 2.50000000E-01	-5.96046000E-08
	-7.45058000E-09	-1.49012000E-08	 5.00000000E-01
	-7.45058000E-09	 2.50000000E-01	 1.00000000E+00
	 1.00000000E+00	 5.00000000E-01	 2.00000000E+00
	 1.00000000E+00	 1.00000000E+00	 2.00000000E+00
	 5.00000000E-01	 5.00000000E-01	 2.00000000E+00
	 5.00000000E-01	 1.00000000E+00	 2.00000000E+00
	 1.00000000E+00	 5.00000000E-01	 1.50000000E+00
	 1.00000000E+00	 7.50000000E-01	 2.00000000E+00
	 1.00000000E+00	 1.00000000E+00	 1.50000000E+00
	 7.50000000E-01	 5.00000000E-01	 2.00000000E+00
	 7.50000000E-01	 1.00000000E+00	 2.00000000E+00
	 5.00000000E-01	 5.00000000E-01	 1.50000000E+00
	 5.00000000E-01	 7.50000000E-01	 2.00000000E+00
	 5.00000000E-01	 1.00000000E+00	 1.50000000E+00
	 1.00000000E+00	-1.49012000E-08	 2.00000000E+00
	 5.00000000E-01	-1.49012000E-08	 2.00000000E+00
	 1.00000000E+00	-1.49012000E-08	 1.50000000E+00
	 1.00000000E+00	 2.50000000E-01	 2.00000000E+00
	 7.50000000E-01	-1.49012000E-08	 2.00000000E+00
	 5.00000000E-01	-1.49012000E-08	 1.50000000E+00
	 5.00000000E-01	 2.50000000E-01	 2.00000000E+00
	-7.45058000E-09	 5.00000000E-01	 2.00000000E+00
	-7.45058000E-09	 1.00000000E+00	 2.00000000E+00
	 2.50000000E-01	 5.00000000E-01	 2.00000000E+00
	 2.50000000E-01	 1.00000000E+00	 2.00000000E+00
	-7.45058000E-09	 5.00000000E-01	 1.50000000E+00
	-7.45058000E-09	 7.50000000E-01	 2.00000000E+00
	-7.45058000E-09	 1.00000000E+00	 1.50000000E+00
	-7.45058000E-09	-1.49012000E-08	 2.00000000E+00
	 2.50000000E-01	-1.49012000E-08	 2.00000000E+00
	-7.45058000E-09	-1.49012000E-08	 1.50000000E+00
	-7.45058000E-09	 2.50000000E-01	 2.00000000E+00
	 1.00000000E+00	 5.00000000E-01	 3.00000000E+00
	 1.00000000E+00	 1.00000000E+00	 3.00000000E+00
	 5.00000000E-01	 5.00000000E-01	 3.00000000E+00
	 5.00000000E-01	 1.00000000E+00	 3.00000000E+00
	 1.00000000E+00	 5.00000000E-01	 2.50000000E+00
	 1.00000000E+00	 7.50000000E-01	 3.00000000E+00
	 1.00000000E+00	 1.00000000E+00	 2.50000000E+00
	 7.50000000E-01	 5.00000000E-01	 3.00000000E+00
	 7.50000000E-01	 1.00000000E+00	 3.00000000E+00
	 5.00000000E-01	 5.00000000E-01	 2.50000000E+00
	 5.00000000E-01	 7.50000000E-01	 3.00000000E+00
	 5.00000000E-01	 1.00000000E+00	 2.50000000E+00
	 1.00000000E+00	-1.49012000E-08	 3.00000000E+00
	 5.00000000E-01	-1.49012000E-08	 3.00000000E+00
	 1.00000000E+00	-1.49012000E-08	 2.50000000E+00
	 1.00000000E+00	 2.50000000E-01	 3.00000000E+00
	 7.50000000E-01	-1.49012000E-08	 3.00000000E+00
	 5.00000000E-01	-1.49012000E-08	 2.50000000E+00
	 5.00000000E-01	 2.50000000E-01	 3.00000000E+00
	-7.45058000E-09	 5.00000000E-01	 3.00000000E+00
	-7.45058000E-09	 1.00000000E+00	 3.00000000E+00
	 2.50000000E-01	 5.00000000E-01	 3.00000000E+00
	 2.50000000E-01	 1.00000000E+00	 3.00000000E+00
	-7.45058000E-09	 5.00000000E-01	 2.50000000E+00
	-7.45058000E-09	 7.50000000E-01	 3.00000000E+00
	-7.45058000E-09	 1.00000000E+00	 2.50000000E+00
	-7.45058000E-09	-1.49012000E-08	 3.00000000E+00
	 2.50000000E-01	-1.49012000E-08	 3.00000000E+00
	-7.45058000E-09	-1.49012000E-08	 2.50000000E+00
	-7.45058000E-09	 2.50000000E-01	 3.00000000E+00
	 1.00000000E+00	 5.00000000E-01	 4.00000000E+00
	 1.00000000E+00	 1.00000000E+00	 4.00000000E+00
	 5.00000000E-01	 5.00000000E-01	 4.00000000E+00
	 5.00000000E-01	 1.00000000E+00	 4.00000000E+00
	 1.00000000E+00	 5.00000000E-01	 3.50000000E+00
	 1.00000000E+00	 7.50000000E-01	 4.00000000E+00
	 1.00000000E+00	 1.00000000E+00	 3.50000000E+00
	 7.50000000E-01	 5.00000000E-01	 4.00000000E+00
	 7.50000000E-01	 1.00000000E+00	 4.00000000E+00
	 5.00000000E-01	 5.00000000E-01	 3.50000000E+00
	 5.00000000E-01	 7.50000000E-01	 4.00000000E+00
	 5.00000000E-01	 1.00000000E+00	 3.50000000E+00
	 1.00000000E+00	-1.49012000E-08	 4.00000000E+00
	 5.00000000E-01	-1.49012000E-08	 4.00000000E+00
	 1.00000000E+00	-1.49012000E-08	 3.50000000E+00
	 1.00000000E+00	 2.50000000E-01	 4.00000000E+00
	 7.50000000E-01	-1.49012000E-08	 4.00000000E+00
	 5.00000000E-01	-1.49012000E-08	 3.50000000E+00
	 5.00000000E-01	 2.50000000E-01	 4.00000000E+00
	-7.45058000E-09	 5.00000000E-01	 4.00000000E+00
	-7.45058000E-09	 1.00000000E+00	 4.00000000E+00
	 2.50000000E-01	 5.00000000E-01	 4.00000000E+00
	 2.50000000E-01	 1.00000000E+00	 4.00000000E+00
	-7.45058000E-09	 5.00000000E-01	 3.50000000E+00
	-7.45058000E-09	 7.50000000E-01	 4.00000000E+00
	-7.45058000E-09	 1.00000000E+00	 3.50000000E+00
	-7.45058000E-09	-1.49012000E-08	 4.00000000E+00
	 2.50000000E-01	-1.49012000E-08	 4.00000000E+00
	-7.45058000E-09	-1.49012000E-08	 3.50000000E+00
	-7.45058000E-09	 2.50000000E-01	 4.00000000E+00
	 1.00000000E+00	 5.00000000E-01	 5.00000000E+00
	 1.00000000E+00	 1.00000000E+00	 5.00000000E+00
	 5.00000000E-01	 5.00000000E-01	 5.00000000E+00
	 5.00000000E-01	 1.00000000E+00	 5.00000000E+00
	 1.00000000E+00	 5.00000000E-01	 4.50000000E+00
	 1.00000000E+00	 7.50000000E-01	 5.00000000E+00
	 1.00000000E+00	 1.00000000E+00	 4.50000000E+00
	 7.50000000E-01	 5.00000000E-01	 5.00000000E+00
	 7.50000000E-01	 1.00000000E+00	 5.00000000E+00
	 5.00000000E-01	 5.00000000E-01	 4.50000000E+00
	 5.00000000E-01	 7.50000000E-01	 5.00000000E+00
	 5.00000000E-01	 1.00000000E+00	 4.50000000E+00
	 1.00000000E+00	-1.49012000E-08	 5.00000000E+00
	 5.00000000E-01	-1.49012000E-08	 5.00000000E+00
	 1.00000000E+00	-1.49012000E-08	 4.50000000E+00
	 1.00000000E+00	 2.50000000E-01	 5.00000000E+00
	 7.50000000E-01	-1.49012000E-08	 5.00000000E+00
	 5.00000000E-01	-1.49012000E-08	 4.50000000E+00
	 5.00000000E-01	 2.50000000E-01	 5.00000000E+00
	-7.45058000E-09	 5.00000000E-01	 5.00000000E+00
	-7.45058000E-09	 1.00000000E+00	 5.00000000E+00
	 2.50000000E-01	 5.00000000E-01	 5.00000000E+00
	 2.50000000E-01	 1.00000000E+00	 5.00000000E+00
	-7.45058000E-09	 5.00000000E-01	 4.50000000E+00
	-7.45058000E-09	 7.50000000E-01	 5.00000000E+00
	-7.45058000E-09	 1.00000000E+00	 4.50000000E+00
	-7.45058000E-09	-1.49012000E-08	 5.00000000E+00
	 2.50000000E-01	-1.49012000E-08	 5.00000000E+00
	-7.45058000E-09	-1.49012000E-08	 4.50000000E+00
	-7.45058000E-09	 2.50000000E-01	 5.00000000E+00
	 1.00000000E+00	 5.00000000E-01	 6.00000000E+00
	 1.00000000E+00	 1.00000000E+00	 6.00000000E+00
	 5.00000000E-01	 5.00000000E-01	 6.00000000E+00
	 5.00000000E-01	 1.00000000E+00	 6.00000000E+00
	 1.00000000E+00	 5.00000000E-01	 5.50000000E+00
	 1.00000000E+00	 7.50000000E-01	 6.00000000E+00
	 1.00000000E+00	 1.00000000E+00	 5.50000000E+00
	 7.50000000E-01	 5.00000000E-01	 6.00000000E+00
	 7.50000000E-01	 1.00000000E+00	 6.00000000E+00
	 5.00000000E-01	 5.00000000E-01	 5.50000000E+00
	 5.00000000E-01	 7.50000000E-01	 6.00000000E+00
	 5.00000000E-01	 1.00000000E+00	 5.50000000E+00
	 1.00000000E+00	-1.49012000E-08	 6.00000000E+00
	 5.00000000E-01	-1.49012000E-08	 6.00000000E+00
	 1.00000000E+00	-1.49012000E-08	 5.50000000E+00
	 1.00000000E+00	 2.50000000E-01	 6.00000000E+00
	 7.50000000E-01	-1.49012000E-08	 6.00000000E+00
	 5.00000000E-01	-1.49012000E-08	 5.50000000E+00
	 5.00000000E-01	 2.50000000E-01	 6.00000000E+00
	-7.45058000E-09	 5.00000000E-01	 6.00000000E+00
	-7.45058000E-09	 1.00000000E+00	 6.00000000E+00
	 2.50000000E-01	 5.00000000E-01	 6.00000000E+00
	 2.50000000E-01	 1.00000000E+00	 6.00000000E+00
	-7.45058000E-09	 5.00000000E-01	 5.50000000E+00
	-7.45058000E-09	 7.50000000E-01	 6.00000000E+00
	-7.45058000E-09	 1.00000000E+00	 5.50000000E+00
	-7.45058000E-09	-1.49012000E-08	 6.00000000E+00
	 2.50000000E-01	-1.49012000E-08	 6.00000000E+00
	-7.45058000E-09	-1.49012000E-08	 5.50000000E+00
	-7.45058000E-09	 2.50000000E-01	 6.00000000E+00
	 1.00000000E+00	 5.00000000E-01	 7.00000000E+00
[...]
POINT_DATA 522
FIELD U 1
	U 3 522 double
		 0.00000000E+00	 0.00000000E+00	 0.00000000E+00
		 0.00000000E+00	 0.00000000E+00	 0.00000000E+00
		 3.34472000E-06	-2.85955000E-03	-1.20706000E-05
		-4.47705000E-04	-3.05229000E-03	 2.95425000E-03
		 0.00000000E+00	 0.00000000E+00	 0.00000000E+00
		 0.00000000E+00	 0.00000000E+00	 0.00000000E+00
		 3.81218000E-06	-3.10445000E-03	-6.61956000E-06
		-4.88056000E-05	-3.31106000E-03	 2.99417000E-03
		 0.00000000E+00	 0.00000000E+00	 0.00000000E+00
		 4.42554000E-07	-5.21740000E-04	-3.94173000E-06
		-2.22670000E-04	-2.88560000E-03	 1.44727000E-03
		-4.51604000E-04	-7.73502000E-04	 1.46232000E-03
		 0.00000000E+00	 0.00000000E+00	 0.00000000E+00
		 0.00000000E+00	 0.00000000E+00	 0.00000000E+00
		 3.46382000E-06	-3.04847000E-03	-9.78917000E-06
		-2.45127000E-04	-3.24747000E-03	 2.96653000E-03
		 0.00000000E+00	 0.00000000E+00	 0.00000000E+00
		-3.63303000E-07	-7.24779000E-04	-2.41007000E-06
		-2.15539000E-05	-3.13446000E-03	 1.46089000E-03
		-5.20597000E-06	-9.80592000E-04	 1.42142000E-03
		 0.00000000E+00	 0.00000000E+00	 0.00000000E+00
		 4.50734000E-04	-3.03361000E-03	-2.97966000E-03
		 0.00000000E+00	 0.00000000E+00	 0.00000000E+00
		 5.50012000E-05	-3.28838000E-03	-3.01029000E-03
		 0.00000000E+00	 0.00000000E+00	 0.00000000E+00
		 4.48674000E-04	-7.70437000E-04	-1.47105000E-03
		 2.28326000E-04	-2.87658000E-03	-1.47213000E-03
		 0.00000000E+00	 0.00000000E+00	 0.00000000E+00
		 2.49515000E-04	-3.22633000E-03	-2.98744000E-03
		 0.00000000E+00	 0.00000000E+00	 0.00000000E+00
		 2.20966000E-06	-9.74003000E-04	-1.42601000E-03
		 2.89049000E-05	-3.12278000E-03	-1.47506000E-03
		 0.00000000E+00	 0.00000000E+00	 0.00000000E+00
		 0.00000000E+00	 0.00000000E+00	 0.00000000E+00
		 4.90579000E-06	-2.96510000E-03	 9.77095000E-07
		 3.60326000E-04	-3.15162000E-03	 2.96734000E-03
		 0.00000000E+00	 0.00000000E+00	 0.00000000E+00
		 0.00000000E+00	 0.00000000E+00	 0.00000000E+00
		 4.32321000E-06	-3.10110000E-03	-3.14128000E-06
		 1.52904000E-04	-3.29904000E-03	 2.99005000E-03
		 0.00000000E+00	 0.00000000E+00	 0.00000000E+00
		-4.37107000E-07	-5.29206000E-04	 1.23558000E-06
		 1.82547000E-04	-2.98800000E-03	 1.44366000E-03
		 4.46155000E-04	-7.81167000E-04	 1.46934000E-03
		 0.00000000E+00	 0.00000000E+00	 0.00000000E+00
		-3.49821000E-04	-3.12740000E-03	-2.96910000E-03
		 0.00000000E+00	 0.00000000E+00	 0.00000000E+00
		-1.44704000E-04	-3.27503000E-03	-3.00034000E-03
		 0.00000000E+00	 0.00000000E+00	 0.00000000E+00
		-4.47639000E-04	-7.71159000E-04	-1.46637000E-03
		-1.72275000E-04	-2.97558000E-03	-1.44253000E-03
		 1.91566000E-05	-1.14677000E-02	-4.05406000E-05
		-6.22943000E-04	-1.16272000E-02	 5.17074000E-03
		 1.93589000E-05	-1.20009000E-02	-4.07567000E-05
		-3.89639000E-04	-1.21488000E-02	 5.18778000E-03
		 1.22682000E-05	-6.63857000E-03	-2.42428000E-05
		-3.04279000E-04	-1.15228000E-02	 2.55903000E-03
		-4.84143000E-04	-6.83701000E-03	 4.21010000E-03
		 1.91860000E-05	-1.17616000E-02	-4.09516000E-05
		-5.05724000E-04	-1.19120000E-02	 5.14611000E-03
		 1.23253000E-05	-6.97823000E-03	-1.85272000E-05
		-1.84375000E-04	-1.20492000E-02	 2.53292000E-03
		-1.60233000E-04	-7.16791000E-03	 4.23595000E-03
		 6.68323000E-04	-1.15588000E-02	-5.25422000E-03
		 4.36445000E-04	-1.20894000E-02	-5.27149000E-03
		 5.10955000E-04	-6.79296000E-03	-4.26005000E-03
		 3.44596000E-04	-1.14873000E-02	-2.64077000E-03
		 5.52347000E-04	-1.18494000E-02	-5.22991000E-03
		 1.88759000E-04	-7.12745000E-03	-4.27693000E-03
		 2.26023000E-04	-1.20206000E-02	-2.61484000E-03
		 2.09009000E-05	-1.22947000E-02	-3.76587000E-05
		-1.36255000E-04	-1.24260000E-02	 5.17353000E-03
		 1.97179000E-05	-1.21734000E-02	-3.98498000E-05
		-2.62348000E-04	-1.23173000E-02	 5.23597000E-03
		 1.29192000E-05	-6.98992000E-03	-1.10756000E-05
		-6.05353000E-05	-1.23321000E-02	 2.47308000E-03
		 1.80040000E-04	-7.16837000E-03	 4.22122000E-03
		 1.85286000E-04	-1.23758000E-02	-5.25082000E-03
		 3.09742000E-04	-1.22608000E-02	-5.31825000E-03
		-1.49541000E-04	-7.13284000E-03	-4.24953000E-03
		 1.04522000E-04	-1.23107000E-02	-2.54845000E-03
		 2.94189000E-05	-2.26419000E-02	-8.30095000E-05
		-1.47963000E-03	-2.27392000E-02	 6.17915000E-03
		 3.49324000E-05	-2.41182000E-02	-9.85845000E-05
		-1.39493000E-03	-2.42058000E-02	 6.17858000E-03
		 2.36827000E-05	-1.69008000E-02	-6.13626000E-05
		-7.27867000E-04	-2.26817000E-02	 3.11855000E-03
		-9.49756000E-04	-1.70380000E-02	 5.79710000E-03
		 3.23611000E-05	-2.33921000E-02	-9.04138000E-05
		-1.43719000E-03	-2.34802000E-02	 6.08425000E-03
		 2.59559000E-05	-1.78118000E-02	-6.86604000E-05
		-6.79571000E-04	-2.41521000E-02	 3.01443000E-03
		-8.00165000E-04	-1.79314000E-02	 5.80794000E-03
		 1.53937000E-03	-2.26459000E-02	-6.34712000E-03
		 1.46697000E-03	-2.41145000E-02	-6.37689000E-03
		 1.00170000E-03	-1.69559000E-02	-5.92272000E-03
		 7.86858000E-04	-2.26330000E-02	-3.28530000E-03
		 1.50334000E-03	-2.33901000E-02	-6.26695000E-03
		 8.57987000E-04	-1.78545000E-02	-5.94593000E-03
		 7.50155000E-04	-2.41064000E-02	-3.21201000E-03
		 3.93326000E-05	-2.55034000E-02	-1.12840000E-04
		-1.29933000E-03	-2.55847000E-02	 6.14968000E-03
		 3.73361000E-05	-2.48211000E-02	-1.06326000E-04
		-1.34600000E-03	-2.49084000E-02	 6.27224000E-03
		 2.89855000E-05	-1.85590000E-02	-7.21416000E-05
		-6.30718000E-04	-2.55320000E-02	 2.88560000E-03
		-6.24665000E-04	-1.86643000E-02	 5.78820000E-03
		 1.38151000E-03	-2.54985000E-02	-6.37584000E-03
		 1.42376000E-03	-2.48161000E-02	-6.48531000E-03
		 6.88854000E-04	-1.85950000E-02	-5.93122000E-03
		 7.10328000E-04	-2.54918000E-02	-3.11149000E-03
		 1.43407000E-05	-3.43901000E-02	-1.22189000E-04
		-2.84686000E-03	-3.44395000E-02	 6.38906000E-03
		 2.49750000E-05	-3.72422000E-02	-1.69419000E-04
		-2.82985000E-03	-3.72963000E-02	 6.35158000E-03
		 2.85875000E-05	-2.84816000E-02	-1.00915000E-04
		-1.41473000E-03	-3.44141000E-02	 3.21950000E-03
		-2.14713000E-03	-2.85551000E-02	 6.35065000E-03
		 1.97689000E-05	-3.58165000E-02	-1.46997000E-04
		-2.83792000E-03	-3.58693000E-02	 6.26962000E-03
		 3.60835000E-05	-3.06407000E-02	-1.31622000E-04
		-1.40354000E-03	-3.72669000E-02	 3.07748000E-03
		-2.10452000E-03	-3.07108000E-02	 6.32940000E-03
		 2.87796000E-03	-3.43325000E-02	-6.63716000E-03
		 2.87992000E-03	-3.71928000E-02	-6.69356000E-03
		 2.20588000E-03	-2.84527000E-02	-6.55526000E-03
		 1.44394000E-03	-3.43584000E-02	-3.46487000E-03
		 2.87926000E-03	-3.57670000E-02	-6.56709000E-03
		 2.17790000E-03	-3.06121000E-02	-6.59526000E-03
		 1.45334000E-03	-3.72159000E-02	-3.41716000E-03
		 3.43538000E-05	-4.00974000E-02	-2.15466000E-04
		-2.82268000E-03	-4.01532000E-02	 6.29622000E-03
		 2.99473000E-05	-3.86706000E-02	-1.91432000E-04
		-2.82712000E-03	-3.87259000E-02	 6.43119000E-03
		 4.18603000E-05	-3.27624000E-02	-1.62580000E-04
		-1.39393000E-03	-4.01226000E-02	 2.92043000E-03
		-2.06349000E-03	-3.28316000E-02	 6.28855000E-03
		 2.88930000E-03	-4.00487000E-02	-6.72963000E-03
		 2.88530000E-03	-3.86198000E-02	-6.81638000E-03
		 2.14843000E-03	-3.27362000E-02	-6.61619000E-03
		 1.46215000E-03	-4.00732000E-02	-3.35245000E-03
		-1.27196000E-05	-4.65737000E-02	-1.93175000E-04
		-3.86648000E-03	-4.65453000E-02	 5.94225000E-03
		 6.78018000E-06	-5.05001000E-02	-2.51266000E-04
		-3.99720000E-03	-5.04760000E-02	 5.90566000E-03
		-2.45775000E-06	-4.04514000E-02	-1.54805000E-04
		-1.93905000E-03	-4.65778000E-02	 2.87689000E-03
		-3.44912000E-03	-4.04584000E-02	 6.28915000E-03
		-4.02032000E-06	-4.85175000E-02	-2.21447000E-04
		-3.93271000E-03	-4.84916000E-02	 5.87751000E-03
		 1.30177000E-05	-4.39115000E-02	-2.10196000E-04
		-1.99558000E-03	-5.05054000E-02	 2.77899000E-03
		-3.47952000E-03	-4.39306000E-02	 6.25094000E-03
		 3.84448000E-03	-4.64422000E-02	-6.32785000E-03
		 4.00885000E-03	-5.03742000E-02	-6.40831000E-03
		 3.44642000E-03	-4.03515000E-02	-6.60121000E-03
		 1.91459000E-03	-4.65269000E-02	-3.26327000E-03
		 3.92655000E-03	-4.83916000E-02	-6.31987000E-03
		 3.50385000E-03	-4.38249000E-02	-6.67389000E-03
		 2.00870000E-03	-5.04574000E-02	-3.28171000E-03
		 2.78873000E-05	-5.45784000E-02	-3.10000000E-04
		-4.13729000E-03	-5.45644000E-02	 5.82442000E-03
		 1.78789000E-05	-5.25209000E-02	-2.81084000E-04
		-4.06746000E-03	-5.25003000E-02	 5.94072000E-03
		 2.84173000E-05	-4.74326000E-02	-2.63933000E-04
		-2.05256000E-03	-5.45887000E-02	 2.63595000E-03
		-3.52893000E-03	-4.74604000E-02	 6.18027000E-03
		 4.18561000E-03	-5.44536000E-02	-6.44521000E-03
		 4.09745000E-03	-5.23935000E-02	-6.50335000E-03
		 3.57969000E-03	-4.73482000E-02	-6.71052000E-03
		 2.10649000E-03	-5.45371000E-02	-3.25644000E-03
		-4.24681000E-05	-5.70368000E-02	-2.50936000E-04
		-4.50821000E-03	-5.69364000E-02	 4.23955000E-03
		-1.81091000E-05	-6.16579000E-02	-3.12397000E-04
		-4.78178000E-03	-6.15511000E-02	 4.17634000E-03
		-2.30791000E-05	-5.22940000E-02	-2.26876000E-04
		-2.27905000E-03	-5.70281000E-02	 2.04897000E-03
		-4.17395000E-03	-5.22289000E-02	 5.19771000E-03
		-3.17632000E-05	-5.93093000E-02	-2.81345000E-04
		-4.64614000E-03	-5.92017000E-02	 4.15558000E-03
		-1.24664000E-06	-5.65758000E-02	-2.87678000E-04
		-2.40020000E-03	-6.16461000E-02	 1.93420000E-03
		-4.40502000E-03	-5.65054000E-02	 5.15265000E-03
		 4.42758000E-03	-5.68543000E-02	-4.73573000E-03
		 4.74498000E-03	-6.14698000E-02	-4.79537000E-03
		 4.13255000E-03	-5.21361000E-02	-5.64728000E-03
		 2.19553000E-03	-5.69858000E-02	-2.54905000E-03
		 4.58575000E-03	-5.91225000E-02	-4.71277000E-03
		 4.40180000E-03	-5.64148000E-02	-5.72430000E-03
		 2.36446000E-03	-6.16067000E-02	-2.55756000E-03
		 1.15024000E-05	-6.65583000E-02	-3.77128000E-04
		-5.05561000E-03	-6.64680000E-02	 4.11225000E-03
		-3.19393000E-06	-6.40691000E-02	-3.44308000E-04
		-4.91881000E-03	-6.39679000E-02	 4.19541000E-03
		 2.41731000E-05	-6.10992000E-02	-3.51044000E-04
		-2.51834000E-03	-6.65531000E-02	 1.81897000E-03
		-4.63735000E-03	-6.10418000E-02	 5.07141000E-03
		 5.07264000E-03	-6.63756000E-02	-4.86111000E-03
		 4.90825000E-03	-6.38809000E-02	-4.87837000E-03
		 4.67950000E-03	-6.09416000E-02	-5.77058000E-03
		 2.54004000E-03	-6.65088000E-02	-2.57203000E-03
		-9.54880000E-05	-6.31360000E-02	-2.74653000E-04
		-5.37888000E-03	-6.30954000E-02	 2.60981000E-03
		-6.64745000E-05	-6.84835000E-02	-3.27747000E-04
		-5.49117000E-03	-6.84483000E-02	 2.54514000E-03
		-6.86517000E-05	-6.05371000E-02	-2.65982000E-04
		-2.73774000E-03	-6.31355000E-02	 1.26091000E-03
		-4.94518000E-03	-6.04655000E-02	 3.31027000E-03
		-8.19852000E-05	-6.57934000E-02	-3.00481000E-04
		-5.43643000E-03	-6.57553000E-02	 2.52345000E-03
		-4.17225000E-05	-6.55339000E-02	-3.23618000E-04
		-2.78145000E-03	-6.84842000E-02	 1.15365000E-03
		-5.15975000E-03	-6.54595000E-02	 3.23643000E-03
		 5.19240000E-03	-6.30170000E-02	-3.16011000E-03
		 5.35921000E-03	-6.83720000E-02	-3.20175000E-03
		 4.81166000E-03	-6.03881000E-02	-3.83838000E-03
		 2.54818000E-03	-6.30936000E-02	-1.81085000E-03
		 5.27655000E-03	-6.56798000E-02	-3.12549000E-03
		 5.07641000E-03	-6.53820000E-02	-3.87998000E-03
		 2.64943000E-03	-6.84455000E-02	-1.80966000E-03
		-3.27453000E-05	-7.39770000E-02	-3.84233000E-04
		-5.61007000E-03	-7.39513000E-02	 2.51757000E-03
		-4.98925000E-05	-7.12103000E-02	-3.56014000E-04
		-5.55195000E-03	-7.11792000E-02	 2.55999000E-03
		-9.32170000E-06	-7.07630000E-02	-3.85254000E-04
		-2.82149000E-03	-7.39822000E-02	 1.08389000E-03
		-5.37420000E-03	-7.07012000E-02	 3.19394000E-03
		 5.54082000E-03	-7.38671000E-02	-3.28715000E-03
		 5.45002000E-03	-7.10993000E-02	-3.27288000E-03
		 5.35090000E-03	-7.06137000E-02	-3.96096000E-03
		 2.75538000E-03	-7.39396000E-02	-1.85295000E-03
		-1.48121000E-04	-6.76863000E-02	-2.86219000E-04
		-5.82555000E-03	-6.76921000E-02	 2.20836000E-03
		-1.11177000E-04	-7.33797000E-02	-3.39641000E-04
		-5.78311000E-03	-7.34017000E-02	 2.17383000E-03
		-1.21526000E-04	-6.53613000E-02	-2.79862000E-04
		-2.98061000E-03	-6.76849000E-02	 9.72896000E-04
		-5.69210000E-03	-6.53526000E-02	 2.29191000E-03
		-1.30150000E-04	-7.05270000E-02	-3.13311000E-04
		-5.80345000E-03	-7.05455000E-02	 2.18202000E-03
		-8.94536000E-05	-7.09529000E-02	-3.32072000E-04
		-2.94106000E-03	-7.33855000E-02	 9.26471000E-04
		-5.71208000E-03	-7.09565000E-02	 2.24592000E-03
		 5.53860000E-03	-6.76225000E-02	-2.79076000E-03
		 5.56071000E-03	-7.33390000E-02	-2.86147000E-03
		 5.45639000E-03	-6.52739000E-02	-2.85928000E-03
		 2.68688000E-03	-6.76513000E-02	-1.54825000E-03
		 5.54916000E-03	-7.04819000E-02	-2.81798000E-03
		 5.53363000E-03	-7.08838000E-02	-2.91696000E-03
		 2.71870000E-03	-7.33569000E-02	-1.60804000E-03
		-7.37827000E-05	-7.90918000E-02	-3.87843000E-04
		-5.74901000E-03	-7.91268000E-02	 2.17489000E-03
		-9.18533000E-05	-7.62452000E-02	-3.64620000E-04
		-5.76785000E-03	-7.62693000E-02	 2.17354000E-03
		-5.52619000E-05	-7.66024000E-02	-3.83531000E-04
		-2.90544000E-03	-7.91058000E-02	 9.07372000E-04
		-5.73894000E-03	-7.66193000E-02	 2.23534000E-03
		 5.59215000E-03	-7.90551000E-02	-2.95851000E-03
		 5.57801000E-03	-7.62040000E-02	-2.91022000E-03
		 5.62191000E-03	-7.65388000E-02	-3.00876000E-03
		 2.75507000E-03	-7.90709000E-02	-1.68549000E-03
		 0.00000000E+00	 0.00000000E+00	 0.00000000E+00
		 0.00000000E+00	 0.00000000E+00	 0.00000000E+00
		 2.12964000E-06	-6.22663000E-03	-2.36918000E-04
		-2.32097000E-03	-6.51086000E-03	 5.91038000E-03
		 0.00000000E+00	 0.00000000E+00	 0.00000000E+00
		 0.00000000E+00	 0.00000000E+00	 0.00000000E+00
		-2.61415000E-05	-8.22358000E-03	-2.74702000E-04
		-1.69832000E-03	-8.53146000E-03	 5.97180000E-03
		 0.00000000E+00	 0.00000000E+00	 0.00000000E+00
		 2.56545000E-05	-1.32961000E-03	-1.02772000E-04
		-1.16176000E-03	-6.24165000E-03	 2.83639000E-03
		-1.71073000E-03	-1.85197000E-03	 3.23222000E-03
		 0.00000000E+00	 0.00000000E+00	 0.00000000E+00
		 0.00000000E+00	 0.00000000E+00	 0.00000000E+00
		-1.11432000E-05	-7.34796000E-03	-2.58198000E-04
		-2.00329000E-03	-7.64011000E-03	 5.80519000E-03
		 0.00000000E+00	 0.00000000E+00	 0.00000000E+00
		-9.38187000E-06	-2.56590000E-03	-1.17335000E-04
		-8.62244000E-04	-8.24383000E-03	 2.70541000E-03
		-8.40751000E-04	-3.06610000E-03	 3.15006000E-03
		 0.00000000E+00	 0.00000000E+00	 0.00000000E+00
		 2.31655000E-03	-6.48414000E-03	-6.39207000E-03
		 0.00000000E+00	 0.00000000E+00	 0.00000000E+00
		 1.64589000E-03	-8.50161000E-03	-6.52862000E-03
		 0.00000000E+00	 0.00000000E+00	 0.00000000E+00
		 1.75939000E-03	-1.88329000E-03	-3.45817000E-03
		 1.16253000E-03	-6.22866000E-03	-3.31150000E-03
		 0.00000000E+00	 0.00000000E+00	 0.00000000E+00
		 1.97683000E-03	-7.61203000E-03	-6.32806000E-03
		 0.00000000E+00	 0.00000000E+00	 0.00000000E+00
		 8.23464000E-04	-3.10423000E-03	-3.40165000E-03
		 8.08313000E-04	-8.23073000E-03	-3.25610000E-03
		 0.00000000E+00	 0.00000000E+00	 0.00000000E+00
		 0.00000000E+00	 0.00000000E+00	 0.00000000E+00
		-5.62180000E-05	-9.56797000E-03	-2.97958000E-04
		-1.06572000E-03	-9.84261000E-03	 5.85137000E-03
		 0.00000000E+00	 0.00000000E+00	 0.00000000E+00
		 0.00000000E+00	 0.00000000E+00	 0.00000000E+00
		-4.05147000E-05	-9.01564000E-03	-2.86885000E-04
		-1.38574000E-03	-9.30739000E-03	 6.07922000E-03
		 0.00000000E+00	 0.00000000E+00	 0.00000000E+00
		-4.90865000E-05	-2.99292000E-03	-1.34899000E-04
		-5.62972000E-04	-9.57450000E-03	 2.47248000E-03
		 8.59745000E-05	-3.44761000E-03	 3.20186000E-03
		 0.00000000E+00	 0.00000000E+00	 0.00000000E+00
		 9.57222000E-04	-9.81111000E-03	-6.45088000E-03
		 0.00000000E+00	 0.00000000E+00	 0.00000000E+00
		 1.30516000E-03	-9.27807000E-03	-6.65992000E-03
		 0.00000000E+00	 0.00000000E+00	 0.00000000E+00
		-1.81318000E-04	-3.48874000E-03	-3.48747000E-03
		 4.53243000E-04	-9.56469000E-03	-3.06739000E-03
		-1.23386000E-05	-2.21343000E-02	-5.71420000E-04
		-3.47929000E-03	-2.23371000E-02	 8.82336000E-03
		-2.99933000E-05	-2.54451000E-02	-6.17118000E-04
		-3.19670000E-03	-2.56562000E-02	 8.81864000E-03
		-1.14098000E-05	-1.33179000E-02	-3.93025000E-04
		-1.74575000E-03	-2.22115000E-02	 4.11648000E-03
		-2.98375000E-03	-1.36199000E-02	 7.70325000E-03
		-2.23716000E-05	-2.38148000E-02	-5.97715000E-04
		-3.33968000E-03	-2.40212000E-02	 8.75678000E-03
		-3.62129000E-05	-1.60409000E-02	-4.36873000E-04
		-1.60977000E-03	-2.55252000E-02	 4.03025000E-03
		-2.51242000E-03	-1.63484000E-02	 7.70484000E-03
		 3.46065000E-03	-2.21826000E-02	-9.97095000E-03
		 3.13688000E-03	-2.55113000E-02	-1.00566000E-02
		 2.96018000E-03	-1.35275000E-02	-8.49801000E-03
		 1.72252000E-03	-2.21321000E-02	-5.26107000E-03
		 3.30094000E-03	-2.38794000E-02	-9.95423000E-03
		 2.44215000E-03	-1.62579000E-02	-8.58875000E-03
		 1.55555000E-03	-2.54557000E-02	-5.26305000E-03
		-4.71542000E-05	-2.84669000E-02	-6.52863000E-04
		-2.91378000E-03	-2.86697000E-02	 8.74148000E-03
		-3.96331000E-05	-2.69811000E-02	-6.34025000E-04
		-3.05547000E-03	-2.72166000E-02	 8.88320000E-03
		-6.03611000E-05	-1.82718000E-02	-4.70053000E-04
		-1.48295000E-03	-2.85375000E-02	 3.87382000E-03
		-2.06052000E-03	-1.85882000E-02	 7.62454000E-03
		 2.84706000E-03	-2.85444000E-02	-1.00510000E-02
		 2.99137000E-03	-2.70492000E-02	-1.01577000E-02
		 1.95306000E-03	-1.85091000E-02	-8.57475000E-03
		 1.39660000E-03	-2.84829000E-02	-5.17670000E-03
		 7.78576000E-05	-4.25018000E-02	-9.82699000E-04
		-3.87355000E-03	-4.25153000E-02	 9.19128000E-03
		 7.17157000E-05	-4.64268000E-02	-9.71735000E-04
		-3.89504000E-03	-4.65682000E-02	 9.23378000E-03
		 1.38132000E-05	-3.20420000E-02	-7.70343000E-04
		-1.88957000E-03	-4.25090000E-02	 4.04308000E-03
		-3.78913000E-03	-3.21734000E-02	 9.28154000E-03
		 7.48248000E-05	-4.44624000E-02	-9.73540000E-04
		-3.88821000E-03	-4.45564000E-02	 9.19611000E-03
		 1.47848000E-06	-3.57654000E-02	-7.99717000E-04
		-1.93509000E-03	-4.65035000E-02	 4.04020000E-03
		-3.66644000E-03	-3.59234000E-02	 9.29526000E-03
		 3.98126000E-03	-4.23807000E-02	-1.11375000E-02
		 4.02719000E-03	-4.63192000E-02	-1.11917000E-02
		 3.80789000E-03	-3.20006000E-02	-1.08231000E-02
		 2.03009000E-03	-4.24466000E-02	-5.99573000E-03
		 4.00109000E-03	-4.43434000E-02	-1.11535000E-02
		 3.67029000E-03	-3.57264000E-02	-1.08940000E-02
		 2.05261000E-03	-4.63829000E-02	-6.00257000E-03
		 6.87612000E-05	-5.04116000E-02	-9.62745000E-04
		-4.02339000E-03	-5.06881000E-02	 9.20935000E-03
		 6.95637000E-05	-4.84292000E-02	-9.69529000E-04
		-3.96356000E-03	-4.85070000E-02	 9.28259000E-03
		 3.53561000E-06	-3.93735000E-02	-8.22609000E-04
		-1.94388000E-03	-5.05610000E-02	 3.96881000E-03
		-3.59217000E-03	-3.95756000E-02	 9.23529000E-03
		 4.10923000E-03	-5.03309000E-02	-1.11749000E-02
		 4.06817000E-03	-4.83133000E-02	-1.12354000E-02
		 3.55922000E-03	-3.93428000E-02	-1.08800000E-02
		 2.08074000E-03	-5.03904000E-02	-5.93793000E-03
		 3.70499000E-04	-6.25433000E-02	-1.38121000E-03
		-3.46054000E-03	-6.23227000E-02	 7.28864000E-03
		 3.60890000E-04	-6.66196000E-02	-1.26494000E-03
		-3.96584000E-03	-6.68601000E-02	 7.41841000E-03
		 1.67328000E-04	-5.28907000E-02	-1.18921000E-03
		-1.54667000E-03	-6.24828000E-02	 2.89697000E-03
		-3.74938000E-03	-5.28810000E-02	 8.46273000E-03
		 3.65226000E-04	-6.44981000E-02	-1.32234000E-03
		-3.70538000E-03	-6.44516000E-02	 7.38331000E-03
		 1.54822000E-04	-5.69549000E-02	-1.17239000E-03
		-1.67698000E-03	-6.67771000E-02	 3.04538000E-03
		-4.03488000E-03	-5.69034000E-02	 8.59103000E-03
		 4.02317000E-03	-6.23173000E-02	-1.00455000E-02
		 4.37834000E-03	-6.62207000E-02	-9.93957000E-03
		 4.04682000E-03	-5.27070000E-02	-1.08325000E-02
		 2.20013000E-03	-6.24882000E-02	-5.65785000E-03
		 4.20335000E-03	-6.42120000E-02	-1.00213000E-02
		 4.26489000E-03	-5.67211000E-02	-1.08246000E-02
		 2.35845000E-03	-6.64511000E-02	-5.57430000E-03
		 2.22879000E-04	-7.10799000E-02	-1.15308000E-03
		-4.32601000E-03	-7.17021000E-02	 7.51979000E-03
		 2.92496000E-04	-6.87632000E-02	-1.20885000E-03
		-4.14527000E-03	-6.97135000E-02	 7.45709000E-03
		 1.27652000E-04	-6.12478000E-02	-1.18598000E-03
		-2.16452000E-03	-7.14133000E-02	 3.16500000E-03
		-4.16068000E-03	-6.10989000E-02	 8.60248000E-03
		 4.75863000E-03	-7.05184000E-02	-9.81409000E-03