<?xml version="1.0"?>
<VTKFile type="UnstructuredGrid" version="0.1" byte_order="LittleEndian">
	<UnstructuredGrid>
		<Piece NumberOfPoints="522" NumberOfCells="64">
			<Points>
				<DataArray type="Float64" NumberOfComponents="3" format="ascii">
					 1.00000000E+00	 1.00000000E+00	-5.96046000E-08
					 1.00000000E+00	 5.00000000E-01	-5.96046000E-08
					 1.00000000E+00	 5.00000000E-01	 1.00000000E+00
					 1.00000000E+00	 1.00000000E+00	 1.00000000E+00
					 5.00000000E-01	 1.00000000E+00	-5.96046000E-08
					 5.00000000E-01	 5.00000000E-01	-5.96046000E-08
					 5.00000000E-01	 5.00000000E-01	 1.00000000E+00
					 5.00000000E-01	 1.00000000E+00	 1.00000000E+00
					 1.00000000E+00	 7.50000000E-01	-5.96046000E-08
					 1.00000000E+00	 5.00000000E-01	 5.00000000E-01
					 1.00000000E+00	 7.50000000E-01	 1.00000000E+00
					 1.00000000E+00	 1.00000000E+00	 5.00000000E-01
					 7.50000000E-01	 1.00000000E+00	-5.96046000E-08
					 7.50000000E-01	 5.00000000E-01	-5.96046000E-08
					 7.50000000E-01	 5.00000000E-01	 1.00000000E+00
					 7.50000000E-01	 1.00000000E+00	 1.00000000E+00
					 5.00000000E-01	 7.50000000E-01	-5.96046000E-08
					 5.00000000E-01	 5.00000000E-01	 5.00000000E-01
					 5.00000000E-01	 7.50000000E-01	 1.00000000E+00
					 5.00000000E-01	 1.00000000E+00	 5.00000000E-01
					 1.00000000E+00	-1.49012000E-08	-5.96046000E-08
					 1.00000000E+00	-1.49012000E-08	 1.00000000E+00
					 5.00000000E-01	-1.49012000E-08	-5.96046000E-08
					 5.00000000E-01	-1.49012000E-08	 1.00000000E+00
					 1.00000000E+00	 2.50000000E-01	-5.96046000E-08
					 1.00000000E+00	-1.49012000E-08	 5.00000000E-01
					 1.00000000E+00	 2.50000000E-01	 1.00000000E+00
					 7.50000000E-01	-1.49012000E-08	-5.96046000E-08
					 7.50000000E-01	-1.49012000E-08	 1.00000000E+00
					 5.00000000E-01	 2.50000000E-01	-5.96046000E-08
					 5.00000000E-01	-1.49012000E-08	 5.00000000E-01
					 5.00000000E-01	 2.50000000E-01	 1.00000000E+00
					-7.45058000E-09	 1.00000000E+00	-5.96046000E-08
					-7.45058000E-09	 5.00000000E-01	-5.96046000E-08
					-7.45058000E-09	 5.00000000E-01	 1.00000000E+00
					-7.45058000E-09	 1.00000000E+00	 1.00000000E+00
					 2.50000000E-01	 1.00000000E+00	-5.96046000E-08
					 2.50000000E-01	 5.00000000E-01	-5.96046000E-08
					 2.50000000E-01	 5.00000000E-01	 1.00000000E+00
					 2.50000000E-01	 1.00000000E+00	 1.00000000E+00
					-7.45058000E-09	 7.50000000E-01	-5.96046000E-08
					-7.45058000E-09	 5.00000000E-01	 5.00000000E-01
					-7.45058000E-09	 7.50000000E-01	 1.00000000E+00
					-7.45058000E-09	 1.00000000E+00	 5.00000000E-01
					-7.45058000E-09	-1.49012000E-08	-5.96046000E-08
					-7.45058000E-09	-1.49012000E-08	 1.00000000E+00
					 2.50000000E-01	-1.49012000E-08	-5.96046000E-08
					 2.50000000E-01	-1.49012000E-08	 1.00000000E+00
					-7.45058000E-09	 2.50000000E-01	-5.96046000E-08
					-7.45058000E-09	-1.49012000E-08	 5.00000000E-01
					-7.45058000E-09	 2.50000000E-01	 1.00000000E+00
					 1.00000000E+00	 5.00000000E-01	 2.00000000E+00
					 1.00000000E+00	 1.00000000E+00	 2.00000000E+00
					 5.00000000E-01	 5.00000000E-01	 2.00000000E+00
					 5.00000000E-01	 1.00000000E+00	 2.00000000E+00
					 1.00000000E+00	 5.00000000E-01	 1.50000000E+00
					 1.00000000E+00	 7.50000000E-01	 2.00000000E+00
					 1.00000000E+00	 1.00000000E+00	 1.50000000E+00
					 7.50000000E-01	 5.00000000E-01	 2.00000000E+00
					 7.50000000E-01	 1.00000000E+00	 2.00000000E+00
					 5.00000000E-01	 5.00000000E-01	 1.50000000E+00
					 5.00000000E-01	 7.50000000E-01	 2.00000000E+00
					 5.00000000E-01	 1.00000000E+00	 1.50000000E+00
					 1.00000000E+00	-1.49012000E-08	 2.00000000E+00
					 5.00000000E-01	-1.49012000E-08	 2.00000000E+00
					 1.00000000E+00	-1.49012000E-08	 1.50000000E+00
					 1.00000000E+00	 2.50000000E-01	 2.00000000E+00
					 7.50000000E-01	-1.49012000E-08	 2.00000000E+00
					 5.00000000E-01	-1.49012000E-08	 1.50000000E+00
					 5.00000000E-01	 2.50000000E-01	 2.00000000E+00
					-7.45058000E-09	 5.00000000E-01	 2.00000000E+00
					-7.45058000E-09	 1.00000000E+00	 2.00000000E+00
					 2.50000000E-01	 5.00000000E-01	 2.00000000E+00
					 2.50000000E-01	 1.00000000E+00	 2.00000000E+00
					-7.45058000E-09	 5.00000000E-01	 1.50000000E+00
					-7.45058000E-09	 7.50000000E-01	 2.00000000E+00
					-7.45058000E-09	 1.00000000E+00	 1.50000000E+00
					-7.45058000E-09	-1.49012000E-08	 2.00000000E+00
					 2.50000000E-01	-1.49012000E-08	 2.00000000E+00
					-7.45058000E-09	-1.49012000E-08	 1.50000000E+00
					-7.45058000E-09	 2.50000000E-01	 2.00000000E+00
					 1.00000000E+00	 5.00000000E-01	 3.00000000E+00
					 1.00000000E+00	 1.00000000E+00	 3.00000000E+00
					 5.00000000E-01	 5.00000000E-01	 3.00000000E+00
					 5.00000000E-01	 1.00000000E+00	 3.00000000E+00
					 1.00000000E+00	 5.00000000E-01	 2.50000000E+00
					 1.00000000E+00	 7.50000000E-01	 3.00000000E+00
					 1.00000000E+00	 1.00000000E+00	 2.50000000E+00
					 7.50000000E-01	 5.00000000E-01	 3.00000000E+00
					 7.50000000E-01	 1.00000000E+00	 3.00000000E+00
					 5.00000000E-01	 5.00000000E-01	 2.50000000E+00
					 5.00000000E-01	 7.50000000E-01	 3.00000000E+00
					 5.00000000E-01	 1.00000000E+00	 2.50000000E+00
					 1.00000000E+00	-1.49012000E-08	 3.00000000E+00
					 5.00000000E-01	-1.49012000E-08	 3.00000000E+00
					 1.00000000E+00	-1.49012000E-08	 2.50000000E+00
					 1.00000000E+00	 2.50000000E-01	 3.00000000E+00
					 7.50000000E-01	-1.49012000E-08	 3.00000000E+00
					 5.00000000E-01	-1.49012000E-08	 2.50000000E+00
					 5.00000000E-01	 2.50000000E-01	 3.00000000E+00
					-7.45058000E-09	 5.00000000E-01	 3.00000000E+00
					-7.45058000E-09	 1.00000000E+00	 3.00000000E+00
					 2.50000000E-01	 5.00000000E-01	 3.00000000E+00
					 2.50000000E-01	 1.00000000E+00	 3.00000000E+00
					-7.45058000E-09	 5.00000000E-01	 2.50000000E+00
					-7.45058000E-09	 7.50000000E-01	 3.00000000E+00
					-7.45058000E-09	 1.00000000E+00	 2.50000000E+00
					-7.45058000E-09	-1.49012000E-08	 3.00000000E+00
					 2.50000000E-01	-1.49012000E-08	 3.00000000E+00
					-7.45058000E-09	-1.49012000E-08	 2.50000000E+00
					-7.45058000E-09	 2.50000000E-01	 3.00000000E+00
					 1.00000000E+00	 5.00000000E-01	 4.00000000E+00
					 1.00000000E+00	 1.00000000E+00	 4.00000000E+00
					 5.00000000E-01	 5.00000000E-01	 4.00000000E+00
					 5.00000000E-01	 1.00000000E+00	 4.00000000E+00
					 1.00000000E+00	 5.00000000E-01	 3.50000000E+00
					 1.00000000E+00	 7.50000000E-01	 4.00000000E+00
					 1.00000000E+00	 1.00000000E+00	 3.50000000E+00
					 7.50000000E-01	 5.00000000E-01	 4.00000000E+00
					 7.50000000E-01	 1.00000000E+00	 4.00000000E+00
					 5.00000000E-01	 5.00000000E-01	 3.50000000E+00
					 5.00000000E-01	 7.50000000E-01	 4.00000000E+00
					 5.00000000E-01	 1.00000000E+00	 3.50000000E+00
					 1.00000000E+00	-1.49012000E-08	 4.00000000E+00
					 5.00000000E-01	-1.49012000E-08	 4.00000000E+00
					 1.00000000E+00	-1.49012000E-08	 3.50000000E+00
					 1.00000000E+00	 2.50000000E-01	 4.00000000E+00
					 7.50000000E-01	-1.49012000E-08	 4.00000000E+00
					 5.00000000E-01	-1.49012000E-08	 3.50000000E+00
					 5.00000000E-01	 2.50000000E-01	 4.00000000E+00
					-7.45058000E-09	 5.00000000E-01	 4.00000000E+00
					-7.45058000E-09	 1.00000000E+00	 4.00000000E+00
					 2.50000000E-01	 5.00000000E-01	 4.00000000E+00
					 2.50000000E-01	 1.00000000E+00	 4.00000000E+00
					-7.45058000E-09	 5.00000000E-01	 3.50000000E+00
					-7.45058000E-09	 7.50000000E-01	 4.00000000E+00
					-7.45058000E-09	 1.00000000E+00	 3.50000000E+00
					-7.45058000E-09	-1.49012000E-08	 4.00000000E+00
					 2.50000000E-01	-1.49012000E-08	 4.00000000E+00
					-7.45058000E-09	-1.49012000E-08	 3.50000000E+00
					-7.45058000E-09	 2.50000000E-01	 4.00000000E+00
					 1.00000000E+00	 5.00000000E-01	 5.00000000E+00
					 1.00000000E+00	 1.00000000E+00	 5.00000000E+00
					 5.00000000E-01	 5.00000000E-01	 5.00000000E+00
					 5.00000000E-01	 1.00000000E+00	 5.00000000E+00
					 1.00000000E+00	 5.00000000E-01	 4.50000000E+00
					 1.00000000E+00	 7.50000000E-01	 5.00000000E+00
					 1.00000000E+00	 1.00000000E+00	 4.50000000E+00
					 7.50000000E-01	 5.00000000E-01	 5.00000000E+00
					 7.50000000E-01	 1.00000000E+00	 5.00000000E+00
					 5.00000000E-01	 5.00000000E-01	 4.50000000E+00
					 5.00000000E-01	 7.50000000E-01	 5.00000000E+00
					 5.00000000E-01	 1.00000000E+00	 4.50000000E+00
					 1.00000000E+00	-1.49012000E-08	 5.00000000E+00
					 5.00000000E-01	-1.49012000E-08	 5.00000000E+00
					 1.00000000E+00	-1.49012000E-08	 4.50000000E+00
					 1.00000000E+00	 2.50000000E-01	 5.00000000E+00
					 7.50000000E-01	-1.49012000E-08	 5.00000000E+00
					 5.00000000E-01	-1.49012000E-08	 4.50000000E+00
					 5.00000000E-01	 2.50000000E-01	 5.00000000E+00
					-7.45058000E-09	 5.00000000E-01	 5.00000000E+00
					-7.45058000E-09	 1.00000000E+00	 5.00000000E+00
					 2.50000000E-01	 5.00000000E-01	 5.00000000E+00
					 2.50000000E-01	 1.00000000E+00	 5.00000000E+00
					-7.45058000E-09	 5.00000000E-01	 4.50000000E+00
					-7.45058000E-09	 7.50000000E-01	 5.00000000E+00
					-7.45058000E-09	 1.00000000E+00	 4.50000000E+00
					-7.45058000E-09	-1.49012000E-08	 5.00000000E+00
					 2.50000000E-01	-1.49012000E-08	 5.00000000E+00
					-7.45058000E-09	-1.49012000E-08	 4.50000000E+00
					-7.45058000E-09	 2.50000000E-01	 5.00000000E+00
					 1.00000000E+00	 5.00000000E-01	 6.00000000E+00
					 1.00000000E+00	 1.00000000E+00	 6.00000000E+00
					 5.00000000E-01	 5.00000000E-01	 6.00000000E+00
					 5.00000000E-01	 1.00000000E+00	 6.00000000E+00
					 1.00000000E+00	 5.00000000E-01	 5.50000000E+00
					 1.00000000E+00	 7.50000000E-01	 6.00000000E+00
					 1.00000000E+00	 1.00000000E+00	 5.50000000E+00
					 7.50000000E-01	 5.00000000E-01	 6.00000000E+00
					 7.50000000E-01	 1.00000000E+00	 6.00000000E+00
					 5.00000000E-01	 5.00000000E-01	 5.50000000E+00
					 5.00000000E-01	 7.50000000E-01	 6.00000000E+00
					 5.00000000E-01	 1.00000000E+00	 5.50000000E+00
					 1.00000000E+00	-1.49012000E-08	 6.00000000E+00
[...]
			<PointData>
				<DataArray type="Float32" Name="U" NumberOfComponents="3" ComponentName0="D1" ComponentName1="D2" ComponentName2="D3" format="ascii">
					 0.00000000E+00	 0.00000000E+00	 0.00000000E+00
					 0.00000000E+00	 0.00000000E+00	 0.00000000E+00
					-5.99910000E-06	-1.48653000E-03	 6.09613000E-06
					-6.37274000E-04	-1.78156000E-03	 3.03365000E-03
					 0.00000000E+00	 0.00000000E+00	 0.00000000E+00
					 0.00000000E+00	 0.00000000E+00	 0.00000000E+00
					-9.59212000E-06	-1.81057000E-03	 1.15367000E-05
					-3.42316000E-05	-2.11923000E-03	 3.04387000E-03
					 0.00000000E+00	 0.00000000E+00	 0.00000000E+00
					-3.32083000E-06	 2.48641000E-04	 1.02855000E-06
					-3.20127000E-04	-1.54785000E-03	 1.56953000E-03
					-5.25268000E-04	-1.83023000E-05	 1.25988000E-03
					 0.00000000E+00	 0.00000000E+00	 0.00000000E+00
					 0.00000000E+00	 0.00000000E+00	 0.00000000E+00
					-7.97053000E-06	-1.73425000E-03	 7.33852000E-06
					-3.35802000E-04	-2.03944000E-03	 3.02569000E-03
					 0.00000000E+00	 0.00000000E+00	 0.00000000E+00
					-5.51115000E-06	-3.14833000E-05	 6.51805000E-06
					-2.36378000E-05	-1.87513000E-03	 1.56948000E-03
					-5.81178000E-05	-2.97491000E-04	 1.19725000E-03
					 0.00000000E+00	 0.00000000E+00	 0.00000000E+00
					 6.41283000E-04	-1.72963000E-03	-3.02145000E-03
					 0.00000000E+00	 0.00000000E+00	 0.00000000E+00
					 4.03787000E-05	-2.08953000E-03	-3.02147000E-03
					 0.00000000E+00	 0.00000000E+00	 0.00000000E+00
					 5.14664000E-04	-6.04451000E-06	-1.24713000E-03
					 3.13954000E-04	-1.51552000E-03	-1.55845000E-03
					 0.00000000E+00	 0.00000000E+00	 0.00000000E+00
					 3.40554000E-04	-1.99858000E-03	-3.01030000E-03
					 0.00000000E+00	 0.00000000E+00	 0.00000000E+00
					 5.69967000E-05	-2.83436000E-04	-1.17915000E-03
					 1.43168000E-05	-1.85706000E-03	-1.54652000E-03
					 0.00000000E+00	 0.00000000E+00	 0.00000000E+00
					 0.00000000E+00	 0.00000000E+00	 0.00000000E+00
					-5.32180000E-06	-1.56298000E-03	 1.61072000E-05
					 5.61393000E-04	-1.84600000E-03	 3.04931000E-03
					 0.00000000E+00	 0.00000000E+00	 0.00000000E+00
					 0.00000000E+00	 0.00000000E+00	 0.00000000E+00
					-9.68400000E-06	-1.77485000E-03	 1.44805000E-05
					 2.62059000E-04	-2.07124000E-03	 3.02322000E-03
					 0.00000000E+00	 0.00000000E+00	 0.00000000E+00
					-2.31936000E-06	 1.35213000E-04	 9.96830000E-06
					 2.75989000E-04	-1.61392000E-03	 1.59698000E-03
					 4.08740000E-04	-1.29233000E-04	 1.26705000E-03
					 0.00000000E+00	 0.00000000E+00	 0.00000000E+00
					-5.43258000E-04	-1.84566000E-03	-3.01622000E-03
					 0.00000000E+00	 0.00000000E+00	 0.00000000E+00
					-2.51167000E-04	-2.05256000E-03	-2.99391000E-03
					 0.00000000E+00	 0.00000000E+00	 0.00000000E+00
					-3.96372000E-04	-1.30988000E-04	-1.24691000E-03
					-2.77970000E-04	-1.61774000E-03	-1.56430000E-03
					 1.75601000E-06	-1.23541000E-02	-3.37041000E-05
					-4.25593000E-05	-1.26282000E-02	 6.88243000E-03
					 1.03509000E-05	-1.21311000E-02	-3.06826000E-05
					 4.72876000E-04	-1.24230000E-02	 6.91404000E-03
					-1.33583000E-06	-5.71024000E-03	 7.14582000E-07
					-1.54658000E-05	-1.24269000E-02	 3.29338000E-03
					-4.76554000E-04	-6.00085000E-03	 5.05503000E-03
					 5.65874000E-06	-1.23019000E-02	-3.30726000E-05
					 2.13752000E-04	-1.25910000E-02	 6.97816000E-03
					-2.29788000E-06	-5.87558000E-03	 3.09344000E-07
					 2.41555000E-04	-1.22156000E-02	 3.39046000E-03
					 1.33132000E-04	-6.18169000E-03	 5.07573000E-03
					 3.48954000E-05	-1.25350000E-02	-6.96293000E-03
					-4.64159000E-04	-1.23196000E-02	-6.98584000E-03
					 4.81586000E-04	-5.92502000E-03	-5.07033000E-03
					 1.42632000E-05	-1.23864000E-02	-3.36197000E-03
					-2.13372000E-04	-1.24902000E-02	-7.05978000E-03
					-1.27652000E-04	-6.11823000E-03	-5.08373000E-03
					-2.25565000E-04	-1.21658000E-02	-3.45433000E-03
					 1.43215000E-05	-1.14168000E-02	-1.37769000E-05
					 9.71650000E-04	-1.17169000E-02	 6.90754000E-03
					 1.39762000E-05	-1.18347000E-02	-2.40388000E-05
					 7.23531000E-04	-1.21301000E-02	 6.86752000E-03
					-7.76555000E-07	-5.45272000E-03	 1.04616000E-05
					 4.92648000E-04	-1.15080000E-02	 3.44228000E-03
					 7.20247000E-04	-5.75816000E-03	 5.07779000E-03
					-9.54626000E-04	-1.15972000E-02	-6.94329000E-03
					-7.09290000E-04	-1.20213000E-02	-6.92188000E-03
					-7.09729000E-04	-5.70371000E-03	-5.05593000E-03
					-4.66887000E-04	-1.14449000E-02	-3.47319000E-03
					 1.41794000E-06	-3.05205000E-02	-1.82268000E-04
					 1.13175000E-03	-3.07396000E-02	 9.14571000E-03
					 1.07135000E-06	-2.92651000E-02	-1.59833000E-04
					 1.37505000E-03	-2.94872000E-02	 9.18804000E-03
					 2.81420000E-06	-2.08532000E-02	-9.64214000E-05
					 5.65208000E-04	-3.05973000E-02	 4.37396000E-03
					 5.52681000E-04	-2.11052000E-02	 8.21252000E-03
					 2.20115000E-06	-2.99236000E-02	-1.70904000E-04
					 1.25540000E-03	-3.01441000E-02	 9.24211000E-03
					 1.01378000E-05	-2.01169000E-02	-8.30087000E-05
					 6.88305000E-04	-2.93457000E-02	 4.48023000E-03
					 9.16640000E-04	-2.03749000E-02	 8.25591000E-03
					-1.13661000E-03	-3.05605000E-02	-9.51359000E-03
					-1.37788000E-03	-2.92983000E-02	-9.51242000E-03
					-5.62174000E-04	-2.09743000E-02	-8.40735000E-03
					-5.63395000E-04	-3.05125000E-02	-4.73963000E-03
					-1.25909000E-03	-2.99553000E-02	-9.58673000E-03
					-9.08986000E-04	-2.02280000E-02	-8.42741000E-03
					-6.87566000E-04	-2.92508000E-02	-4.80125000E-03
					 4.89950000E-07	-2.77694000E-02	-1.36284000E-04
					 1.61679000E-03	-2.79936000E-02	 9.19289000E-03
					 3.30548000E-08	-2.85470000E-02	-1.47804000E-04
					 1.49373000E-03	-2.87682000E-02	 9.13446000E-03
					 1.33994000E-05	-1.90255000E-02	-6.52802000E-05
					 8.10170000E-04	-2.78520000E-02	 4.55292000E-03
					 1.27590000E-03	-1.92913000E-02	 8.24333000E-03
					-1.61393000E-03	-2.78045000E-02	-9.47127000E-03
					-1.49472000E-03	-2.85802000E-02	-9.43682000E-03
					-1.25798000E-03	-1.91337000E-02	-8.38473000E-03
					-8.08320000E-04	-2.77555000E-02	-4.82664000E-03
					 1.21806000E-07	-5.19328000E-02	-4.17359000E-04
					 2.19894000E-03	-5.21048000E-02	 1.00957000E-02
					 6.40572000E-06	-4.96750000E-02	-3.64341000E-04
					 2.32060000E-03	-4.98498000E-02	 1.01590000E-02
					 2.29741000E-06	-4.09341000E-02	-2.91106000E-04
					 1.09948000E-03	-5.20037000E-02	 4.73903000E-03
					 1.65292000E-03	-4.11283000E-02	 9.73654000E-03
					 2.07059000E-06	-5.08174000E-02	-3.91829000E-04
					 2.25935000E-03	-5.09927000E-02	 1.02052000E-02
					 1.68243000E-06	-3.91905000E-02	-2.57026000E-04
					 1.16291000E-03	-4.97483000E-02	 4.87379000E-03
					 1.82779000E-03	-3.93896000E-02	 9.78371000E-03
					-2.19624000E-03	-5.18713000E-02	-1.09357000E-02
					-2.30814000E-03	-4.96160000E-02	-1.08924000E-02
					-1.65504000E-03	-4.09227000E-02	-1.03261000E-02
					-1.09945000E-03	-5.18897000E-02	-5.57671000E-03
					-2.25264000E-03	-5.07576000E-02	-1.09930000E-02
					-1.82894000E-03	-3.91744000E-02	-1.03043000E-02
					-1.14998000E-03	-4.96329000E-02	-5.60360000E-03
					 1.72462000E-05	-4.73025000E-02	-3.03529000E-04
					 2.43848000E-03	-4.74847000E-02	 1.02078000E-02
					 1.16951000E-05	-4.85023000E-02	-3.35155000E-04
					 2.37860000E-03	-4.86782000E-02	 1.01149000E-02
					 3.61542000E-06	-3.72772000E-02	-2.16111000E-04
					 1.22883000E-03	-4.73812000E-02	 4.99604000E-03
					 2.00178000E-03	-3.74796000E-02	 9.81168000E-03
					-2.40772000E-03	-4.72442000E-02	-1.08188000E-02
					-2.35795000E-03	-4.84440000E-02	-1.07886000E-02
					-1.99495000E-03	-3.72599000E-02	-1.02478000E-02
					-1.19550000E-03	-4.72593000E-02	-5.60382000E-03
					 1.34682000E-05	-7.49768000E-02	-6.80362000E-04
					 3.45736000E-03	-7.51360000E-02	 1.03430000E-02
					 3.03204000E-05	-7.15125000E-02	-5.93176000E-04
					 3.52353000E-03	-7.16674000E-02	 1.04329000E-02
					 2.18321000E-06	-6.33186000E-02	-5.47460000E-04
					 1.73446000E-03	-7.50470000E-02	 4.72086000E-03
					 2.79823000E-03	-6.34847000E-02	 1.02713000E-02
					 2.06599000E-05	-7.32512000E-02	-6.36954000E-04
					 3.48938000E-03	-7.34099000E-02	 1.04876000E-02
					 1.46460000E-05	-6.04900000E-02	-4.74859000E-04
					 1.77690000E-03	-7.15822000E-02	 4.90862000E-03
					 2.88715000E-03	-6.06539000E-02	 1.03488000E-02
					-3.42154000E-03	-7.48691000E-02	-1.17117000E-02
					-3.46268000E-03	-7.14083000E-02	-1.16251000E-02
					-2.77890000E-03	-6.32234000E-02	-1.13730000E-02
					-1.70492000E-03	-7.49193000E-02	-6.08242000E-03
					-3.44155000E-03	-7.31443000E-02	-1.17705000E-02
					-2.85201000E-03	-6.04057000E-02	-1.13031000E-02
					-1.71608000E-03	-7.14555000E-02	-6.09630000E-03
					 4.70195000E-05	-6.79927000E-02	-5.03552000E-04
					 3.58743000E-03	-6.81546000E-02	 1.05164000E-02
					 3.97900000E-05	-6.97600000E-02	-5.48638000E-04
					 3.55630000E-03	-6.99138000E-02	 1.03782000E-02
					 3.02120000E-05	-5.75832000E-02	-3.98609000E-04
					 1.81970000E-03	-6.80688000E-02	 5.09105000E-03
					 2.96689000E-03	-5.77566000E-02	 1.04175000E-02
					-3.50352000E-03	-6.78861000E-02	-1.15274000E-02
					-3.48355000E-03	-6.96567000E-02	-1.14793000E-02
					-2.90962000E-03	-5.75048000E-02	-1.12192000E-02
					-1.72830000E-03	-6.79316000E-02	-6.09936000E-03
					 3.27793000E-05	-9.87346000E-02	-9.82422000E-04
					 4.81025000E-03	-9.88854000E-02	 1.02120000E-02
					 5.77198000E-05	-9.39705000E-02	-8.49449000E-04
					 4.82034000E-03	-9.41102000E-02	 1.03488000E-02
					 1.83994000E-05	-8.68329000E-02	-8.27584000E-04
					 2.41866000E-03	-9.88090000E-02	 4.51870000E-03
					 4.14655000E-03	-8.69825000E-02	 1.03278000E-02
					 4.42495000E-05	-9.63533000E-02	-9.14056000E-04
					 4.81379000E-03	-9.64973000E-02	 1.03677000E-02
					 4.13234000E-05	-8.26932000E-02	-7.20626000E-04
					 2.43855000E-03	-9.40418000E-02	 4.73717000E-03
					 4.19344000E-03	-8.28396000E-02	 1.04400000E-02
					-4.74418000E-03	-9.85950000E-02	-1.21615000E-02
					-4.70198000E-03	-9.38207000E-02	-1.20344000E-02
					-4.11313000E-03	-8.67177000E-02	-1.19814000E-02
					-2.35193000E-03	-9.86702000E-02	-6.47905000E-03
					-4.72458000E-03	-9.62027000E-02	-1.21803000E-02
					-4.11486000E-03	-8.25703000E-02	-1.18805000E-02
					-2.32155000E-03	-9.38986000E-02	-6.43202000E-03
					 8.46501000E-05	-8.92099000E-02	-7.31341000E-04
					 4.84534000E-03	-8.93421000E-02	 1.04574000E-02
					 7.19989000E-05	-9.15870000E-02	-7.90099000E-04
					 4.83477000E-03	-9.17245000E-02	 1.03249000E-02
					 6.45620000E-05	-7.85233000E-02	-6.15376000E-04
					 2.46252000E-03	-8.92780000E-02	 4.92903000E-03
					 4.24730000E-03	-7.86707000E-02	 1.05356000E-02
					-4.67100000E-03	-8.90558000E-02	-1.19093000E-02
					-4.68572000E-03	-9.14387000E-02	-1.18953000E-02
					-4.12529000E-03	-7.83920000E-02	-1.17646000E-02
					-2.29160000E-03	-8.91337000E-02	-6.38698000E-03
					 7.50421000E-05	-1.21742000E-01	-1.23839000E-03
					 5.63591000E-03	-1.21922000E-01	 9.82610000E-03
					 8.70485000E-05	-1.16191000E-01	-1.09804000E-03
					 5.63637000E-03	-1.16358000E-01	 9.96627000E-03
					 6.05622000E-05	-1.10389000E-01	-1.11834000E-03
					 2.85073000E-03	-1.21837000E-01	 4.26985000E-03
					 5.31773000E-03	-1.10558000E-01	 1.00104000E-02
					 8.40450000E-05	-1.18969000E-01	-1.16910000E-03
					 5.64079000E-03	-1.19138000E-01	 9.92797000E-03
					 7.84071000E-05	-1.05152000E-01	-9.73702000E-04
					 2.85959000E-03	-1.16277000E-01	 4.44541000E-03
					 5.30711000E-03	-1.05306000E-01	 1.01529000E-02
					-5.47485000E-03	-1.21581000E-01	-1.22990000E-02
					-5.44698000E-03	-1.16025000E-01	-1.21612000E-02
					-5.19296000E-03	-1.10237000E-01	-1.22305000E-02
					-2.69735000E-03	-1.21660000E-01	-6.74704000E-03
					-5.45731000E-03	-1.18802000E-01	-1.22611000E-02
					-5.14097000E-03	-1.04989000E-01	-1.20851000E-02
					-2.67937000E-03	-1.16107000E-01	-6.64167000E-03
					 1.04611000E-04	-1.10651000E-01	-9.57416000E-04
					 5.65588000E-03	-1.10802000E-01	 1.01146000E-02
					 9.13130000E-05	-1.13417000E-01	-1.02517000E-03
					 5.64129000E-03	-1.13577000E-01	 1.00058000E-02
					 9.94209000E-05	-9.99345000E-02	-8.49196000E-04
					 2.87793000E-03	-1.10729000E-01	 4.62730000E-03
					 5.31778000E-03	-1.00072000E-01	 1.02761000E-02
					-5.43048000E-03	-1.10488000E-01	-1.20301000E-02
					-5.44284000E-03	-1.13254000E-01	-1.20564000E-02
					-5.10483000E-03	-9.97721000E-02	-1.19626000E-02
					-2.66405000E-03	-1.10567000E-01	-6.54357000E-03
					 7.51221000E-05	-1.44125000E-01	-1.46707000E-03
					 5.93544000E-03	-1.44297000E-01	 9.59999000E-03
					 1.30577000E-04	-1.38316000E-01	-1.34904000E-03
					 5.97599000E-03	-1.38454000E-01	 9.74141000E-03
					 8.40194000E-05	-1.32972000E-01	-1.35402000E-03
					 3.00233000E-03	-1.44211000E-01	 4.06188000E-03
					 5.84495000E-03	-1.33154000E-01	 9.70719000E-03
					 9.91026000E-05	-1.41219000E-01	-1.41259000E-03
					 5.95405000E-03	-1.41371000E-01	 9.67233000E-03
					 1.05044000E-04	-1.27224000E-01	-1.22565000E-03
					 3.05532000E-03	-1.38382000E-01	 4.20053000E-03
					 5.86119000E-03	-1.27388000E-01	 9.84795000E-03
					-5.74532000E-03	-1.43973000E-01	-1.25742000E-02
					-5.68185000E-03	-1.38181000E-01	-1.24806000E-02
					-5.64757000E-03	-1.32799000E-01	-1.24346000E-02
					-2.84150000E-03	-1.44046000E-01	-7.00894000E-03
					-5.71596000E-03	-1.41078000E-01	-1.25370000E-02
					-5.62576000E-03	-1.27064000E-01	-1.23242000E-02
					-2.78118000E-03	-1.38247000E-01	-6.90959000E-03
					 1.96660000E-04	-1.32508000E-01	-1.16771000E-03
					 6.04558000E-03	-1.32634000E-01	 9.94659000E-03
					 1.64540000E-04	-1.35416000E-01	-1.26685000E-03
					 6.01179000E-03	-1.35546000E-01	 9.83314000E-03
					 1.32719000E-04	-1.21481000E-01	-1.05540000E-03
					 3.12389000E-03	-1.32565000E-01	 4.40088000E-03
					 5.89396000E-03	-1.21635000E-01	 1.00332000E-02
					-5.63663000E-03	-1.32370000E-01	-1.23134000E-02
					-5.65790000E-03	-1.35280000E-01	-1.24039000E-02
					-5.61549000E-03	-1.21323000E-01	-1.21689000E-02
					-2.72197000E-03	-1.32440000E-01	-6.74254000E-03
					 0.00000000E+00	 0.00000000E+00	 0.00000000E+00
					 0.00000000E+00	 0.00000000E+00	 0.00000000E+00
					 1.95666000E-05	-1.65914000E-02	-1.17935000E-04
					-1.68542000E-03	-1.75199000E-02	 1.37838000E-02
					 0.00000000E+00	 0.00000000E+00	 0.00000000E+00
					 0.00000000E+00	 0.00000000E+00	 0.00000000E+00
					 2.81541000E-05	-1.74914000E-02	-1.11556000E-04
					-7.73951000E-05	-1.84761000E-02	 1.39771000E-02
					 0.00000000E+00	 0.00000000E+00	 0.00000000E+00
					 1.49977000E-05	-4.26479000E-03	-1.79864000E-05
					-8.37292000E-04	-1.67557000E-02	 6.59206000E-03
					-2.11215000E-03	-5.52498000E-03	 7.35951000E-03
					 0.00000000E+00	 0.00000000E+00	 0.00000000E+00
					 0.00000000E+00	 0.00000000E+00	 0.00000000E+00
					 2.39061000E-05	-1.73256000E-02	-1.23314000E-04
					-8.65333000E-04	-1.82816000E-02	 1.38767000E-02
					 0.00000000E+00	 0.00000000E+00	 0.00000000E+00
					 6.07152000E-06	-5.19374000E-03	-1.78809000E-05
					-2.61556000E-05	-1.76702000E-02	 6.68078000E-03
					-6.61575000E-06	-6.47726000E-03	 7.19032000E-03
					 0.00000000E+00	 0.00000000E+00	 0.00000000E+00
					 1.71373000E-03	-1.70309000E-02	-1.40799000E-02
					 0.00000000E+00	 0.00000000E+00	 0.00000000E+00
					 1.55866000E-04	-1.79862000E-02	-1.42710000E-02
					 0.00000000E+00	 0.00000000E+00	 0.00000000E+00
					 2.11595000E-03	-5.33667000E-03	-7.41231000E-03
					 8.73988000E-04	-1.65131000E-02	-6.84634000E-03
					 0.00000000E+00	 0.00000000E+00	 0.00000000E+00
					 9.22259000E-04	-1.77847000E-02	-1.41888000E-02
					 0.00000000E+00	 0.00000000E+00	 0.00000000E+00
					 2.38950000E-05	-6.28209000E-03	-7.24189000E-03
					 9.07063000E-05	-1.74285000E-02	-6.92682000E-03
					 0.00000000E+00	 0.00000000E+00	 0.00000000E+00
					 0.00000000E+00	 0.00000000E+00	 0.00000000E+00
					 4.74101000E-05	-1.68233000E-02	-5.57013000E-05
					 1.55036000E-03	-1.77221000E-02	 1.38424000E-02
					 0.00000000E+00	 0.00000000E+00	 0.00000000E+00
					 0.00000000E+00	 0.00000000E+00	 0.00000000E+00
					 3.45000000E-05	-1.74397000E-02	-9.22753000E-05
					 7.19161000E-04	-1.83813000E-02	 1.39463000E-02
					 0.00000000E+00	 0.00000000E+00	 0.00000000E+00
					 7.11947000E-06	-4.29791000E-03	 2.10078000E-05
					 7.98071000E-04	-1.69665000E-02	 6.60934000E-03
					 2.11141000E-03	-5.55301000E-03	 7.39020000E-03
					 0.00000000E+00	 0.00000000E+00	 0.00000000E+00
					-1.40989000E-03	-1.72681000E-02	-1.40126000E-02
					 0.00000000E+00	 0.00000000E+00	 0.00000000E+00
					-6.17388000E-04	-1.79033000E-02	-1.41967000E-02
					 0.00000000E+00	 0.00000000E+00	 0.00000000E+00
					-2.07059000E-03	-5.35686000E-03	-7.37378000E-03
					-6.87809000E-04	-1.67536000E-02	-6.73738000E-03
					 1.05342000E-04	-5.56773000E-02	-7.76208000E-04
					-1.80221000E-03	-5.67569000E-02	 2.21795000E-02
					 1.30935000E-04	-5.70436000E-02	-7.86249000E-04
					-7.13865000E-04	-5.81291000E-02	 2.22182000E-02
					 6.23620000E-05	-3.40499000E-02	-3.61395000E-04
					-8.53162000E-04	-5.61039000E-02	 1.06666000E-02
					-1.63775000E-03	-3.51952000E-02	 1.85605000E-02
					 1.17380000E-04	-5.64746000E-02	-7.89167000E-04
					-1.25802000E-03	-5.75482000E-02	 2.21366000E-02
					 7.11518000E-05	-3.50987000E-02	-3.62902000E-04
					-2.83391000E-04	-5.74741000E-02	 1.06247000E-02
					-3.06085000E-04	-3.62182000E-02	 1.86333000E-02
					 1.99390000E-03	-5.56567000E-02	-2.38014000E-02
					 9.52071000E-04	-5.70148000E-02	-2.38536000E-02
					 1.74396000E-03	-3.44067000E-02	-1.93766000E-02
					 1.05583000E-03	-5.55633000E-02	-1.22354000E-02
					 1.47362000E-03	-5.64487000E-02	-2.37796000E-02
					 4.53629000E-04	-3.54253000E-02	-1.94412000E-02
					 5.41412000E-04	-5.69283000E-02	-1.22093000E-02
					 1.48458000E-04	-5.73489000E-02	-7.35789000E-04
					 4.09575000E-04	-5.84131000E-02	 2.22194000E-02
					 1.41100000E-04	-5.73061000E-02	-7.66250000E-04
					-1.49542000E-04	-5.84182000E-02	 2.23183000E-02
					 8.37823000E-05	-3.48113000E-02	-3.05123000E-04
					 2.75330000E-04	-5.77601000E-02	 1.05455000E-02
					 1.06552000E-03	-3.59140000E-02	 1.86249000E-02
					-1.03134000E-04	-5.72935000E-02	-2.37501000E-02
					 4.23526000E-04	-5.72651000E-02	-2.39118000E-02
					-8.58062000E-04	-3.51453000E-02	-1.93028000E-02
					 2.46830000E-05	-5.72167000E-02	-1.20280000E-02
					 2.79398000E-04	-1.08395000E-01	-2.08926000E-03
					-2.40266000E-03	-1.09496000E-01	 2.65335000E-02
					 2.96831000E-04	-1.10731000E-01	-2.09165000E-03
					-1.73907000E-03	-1.11950000E-01	 2.65781000E-02
					 1.76135000E-04	-8.06227000E-02	-1.35378000E-03
					-1.05260000E-03	-1.08860000E-01	 1.21765000E-02
					-2.11481000E-03	-8.17417000E-02	 2.48107000E-02
					 2.89766000E-04	-1.09649000E-01	-2.09102000E-03
					-2.07593000E-03	-1.10821000E-01	 2.64863000E-02
					 1.99090000E-04	-8.24705000E-02	-1.36444000E-03
					-7.43713000E-04	-1.11257000E-01	 1.21172000E-02
					-1.22390000E-03	-8.36114000E-02	 2.48472000E-02
					 2.91004000E-03	-1.07859000E-01	-3.07319000E-02
					 2.32213000E-03	-1.10195000E-01	-3.08182000E-02
					 2.43600000E-03	-8.03476000E-02	-2.75609000E-02
					 1.59672000E-03	-1.08048000E-01	-1.63535000E-02
					 2.61647000E-03	-1.09109000E-01	-3.07164000E-02
					 1.60499000E-03	-8.21731000E-02	-2.76218000E-02
					 1.31213000E-03	-1.10392000E-01	-1.63294000E-02
					 3.13072000E-04	-1.12449000E-01	-2.06299000E-03
					-1.16510000E-03	-1.13786000E-01	 2.65472000E-02
					 3.03917000E-04	-1.11686000E-01	-2.08326000E-03
					-1.45425000E-03	-1.12843000E-01	 2.66888000E-02
					 2.26869000E-04	-8.34547000E-02	-1.32961000E-03
					-3.95331000E-04	-1.13031000E-01	 1.19858000E-02
					-3.60546000E-04	-8.46305000E-02	 2.48261000E-02
					 1.74657000E-03	-1.11936000E-01	-3.07582000E-02
					 2.03125000E-03	-1.11135000E-01	-3.09182000E-02
					 7.62373000E-04	-8.31461000E-02	-2.75390000E-02
					 1.02291000E-03	-1.12136000E-01	-1.61626000E-02
					 6.80397000E-04	-1.68882000E-01	-3.88744000E-03
					-2.75620000E-03	-1.69826000E-01	 2.70471000E-02