<?xml version="1.0"?>
<VTKFile type="UnstructuredGrid" version="0.1" byte_order="LittleEndian">
	<UnstructuredGrid>
		<Piece NumberOfPoints="522" NumberOfCells="64">
			<Points>
				<DataArray type="Float64" NumberOfComponents="3" format="ascii">
					 1.00000000E+00	 1.00000000E+00	-5.96046000E-08
					 1.00000000E+00	 5.00000000E-01	-5.96046000E-08
					 1.00000000E+00	 5.00000000E-01	 1.00000000E+00
					 1.00000000E+00	 1.00000000E+00	 1.00000000E+00
					 5.00000000E-01	 1.00000000E+00	-5.96046000E-08
					 5.00000000E-01	 5.00000000E-01	-5.96046000E-08
					 5.00000000E-01	 5.00000000E-01	 1.00000000E+00
					 5.00000000E-01	 1.00000000E+00	 1.00000000E+00
					 1.00000000E+00	 7.50000000E-01	-5.96046000E-08
					 1.00000000E+00	 5.00000000E-01	 5.00000000E-01
					 1.00000000E+00	 7.50000000E-01	 1.00000000E+00
					 1.00000000E+00	 1.00000000E+00	 5.00000000E-01
					 7.50000000E-01	 1.00000000E+00	-5.96046000E-08
					 7.50000000E-01	 5.00000000E-01	-5.96046000E-08
					 7.50000000E-01	 5.00000000E-01	 1.00000000E+00
					 7.50000000E-01	 1.00000000E+00	 1.00000000E+00
					 5.00000000E-01	 7.50000000E-01	-5.96046000E-08
					 5.00000000E-01	 5.00000000E-01	 5.00000000E-01
					 5.00000000E-01	 7.50000000E-01	 1.00000000E+00
					 5.00000000E-01	 1.00000000E+00	 5.00000000E-01
					 1.00000000E+00	-1.49012000E-08	-5.96046000E-08
					 1.00000000E+00	-1.49012000E-08	 1.00000000E+00
					 5.00000000E-01	-1.49012000E-08	-5.96046000E-08
					 5.00000000E-01	-1.49012000E-08	 1.00000000E+00
					 1.00000000E+00	 2.50000000E-01	-5.96046000E-08
					 1.00000000E+00	-1.49012000E-08	 5.00000000E-01
					 1.00000000E+00	 2.50000000E-01	 1.00000000E+00
					 7.50000000E-01	-1.49012000E-08	-5.96046000E-08
					 7.50000000E-01	-1.49012000E-08	 1.00000000E+00
					 5.00000000E-01	 2.50000000E-01	-5.96046000E-08
					 5.00000000E-01	-1.49012000E-08	 5.00000000E-01
					 5.00000000E-01	 2.50000000E-01	 1.00000000E+00
					-7.45058000E-09	 1.00000000E+00	-5.96046000E-08
					-7.45058000E-09	 5.00000000E-01	-5.96046000E-08
					-7.45058000E-09	 5.00000000E-01	 1.00000000E+00
					-7.45058000E-09	 1.00000000E+00	 1.00000000E+00
					 2.50000000E-01	 1.00000000E+00	-5.96046000E-08
					 2.50000000E-01	 5.00000000E-01	-5.96046000E-08
					 2.50000000E-01	 5.00000000E-01	 1.00000000E+00
					 2.50000000E-01	 1.00000000E+00	 1.00000000E+00
					-7.45058000E-09	 7.50000000E-01	-5.96046000E-08
					-7.45058000E-09	 5.00000000E-01	 5.00000000E-01
					-7.45058000E-09	 7.50000000E-01	 1.00000000E+00
					-7.45058000E-09	 1.00000000E+00	 5.00000000E-01
					-7.45058000E-09	-1.49012000E-08	-5.96046000E-08
					-7.45058000E-09	-1.49012000E-08	 1.00000000E+00
					 2.50000000E-01	-1.49012000E-08	-5.96046000E-08
					 2.50000000E-01	-1.49012000E-08	 1.00000000E+00
					-7.45058000E-09	 2.50000000E-01	-5.96046000E-08
					-7.45058000E-09	-1.49012000E-08	 5.00000000E-01
					-7.45058000E-09	 2.50000000E-01	 1.00000000E+00
					 1.00000000E+00	 5.00000000E-01	 2.00000000E+00
					 1.00000000E+00	 1.00000000E+00	 2.00000000E+00
					 5.00000000E-01	 5.00000000E-01	 2.00000000E+00
					 5.00000000E-01	 1.00000000E+00	 2.00000000E+00
					 1.00000000E+00	 5.00000000E-01	 1.50000000E+00
					 1.00000000E+00	 7.50000000E-01	 2.00000000E+00
					 1.00000000E+00	 1.00000000E+00	 1.50000000E+00
					 7.50000000E-01	 5.00000000E-01	 2.00000000E+00
					 7.50000000E-01	 1.00000000E+00	 2.00000000E+00
					 5.00000000E-01	 5.00000000E-01	 1.50000000E+00
					 5.00000000E-01	 7.50000000E-01	 2.00000000E+00
					 5.00000000E-01	 1.00000000E+00	 1.50000000E+00
					 1.00000000E+00	-1.49012000E-08	 2.00000000E+00
					 5.00000000E-01	-1.49012000E-08	 2.00000000E+00
					 1.00000000E+00	-1.49012000E-08	 1.50000000E+00
					 1.00000000E+00	 2.50000000E-01	 2.00000000E+00
					 7.50000000E-01	-1.49012000E-08	 2.00000000E+00
					 5.00000000E-01	-1.49012000E-08	 1.50000000E+00
					 5.00000000E-01	 2.50000000E-01	 2.00000000E+00
					-7.45058000E-09	 5.00000000E-01	 2.00000000E+00
					-7.45058000E-09	 1.00000000E+00	 2.00000000E+00
					 2.50000000E-01	 5.00000000E-01	 2.00000000E+00
					 2.50000000E-01	 1.00000000E+00	 2.00000000E+00
					-7.45058000E-09	 5.00000000E-01	 1.50000000E+00
					-7.45058000E-09	 7.50000000E-01	 2.00000000E+00
					-7.45058000E-09	 1.00000000E+00	 1.50000000E+00
					-7.45058000E-09	-1.49012000E-08	 2.00000000E+00
					 2.50000000E-01	-1.49012000E-08	 2.00000000E+00
					-7.45058000E-09	-1.49012000E-08	 1.50000000E+00
					-7.45058000E-09	 2.50000000E-01	 2.00000000E+00
					 1.00000000E+00	 5.00000000E-01	 3.00000000E+00
					 1.00000000E+00	 1.00000000E+00	 3.00000000E+00
					 5.00000000E-01	 5.00000000E-01	 3.00000000E+00
					 5.00000000E-01	 1.00000000E+00	 3.00000000E+00
					 1.00000000E+00	 5.00000000E-01	 2.50000000E+00
					 1.00000000E+00	 7.50000000E-01	 3.00000000E+00
					 1.00000000E+00	 1.00000000E+00	 2.50000000E+00
					 7.50000000E-01	 5.00000000E-01	 3.00000000E+00
					 7.50000000E-01	 1.00000000E+00	 3.00000000E+00
					 5.00000000E-01	 5.00000000E-01	 2.50000000E+00
					 5.00000000E-01	 7.50000000E-01	 3.00000000E+00
					 5.00000000E-01	 1.00000000E+00	 2.50000000E+00
					 1.00000000E+00	-1.49012000E-08	 3.00000000E+00
					 5.00000000E-01	-1.49012000E-08	 3.00000000E+00
					 1.00000000E+00	-1.49012000E-08	 2.50000000E+00
					 1.00000000E+00	 2.50000000E-01	 3.00000000E+00
					 7.50000000E-01	-1.49012000E-08	 3.00000000E+00
					 5.00000000E-01	-1.49012000E-08	 2.50000000E+00
					 5.00000000E-01	 2.50000000E-01	 3.00000000E+00
					-7.45058000E-09	 5.00000000E-01	 3.00000000E+00
					-7.45058000E-09	 1.00000000E+00	 3.00000000E+00
					 2.50000000E-01	 5.00000000E-01	 3.00000000E+00
					 2.50000000E-01	 1.00000000E+00	 3.00000000E+00
					-7.45058000E-09	 5.00000000E-01	 2.50000000E+00
					-7.45058000E-09	 7.50000000E-01	 3.00000000E+00
					-7.45058000E-09	 1.00000000E+00	 2.50000000E+00
					-7.45058000E-09	-1.49012000E-08	 3.00000000E+00
					 2.50000000E-01	-1.49012000E-08	 3.00000000E+00
					-7.45058000E-09	-1.49012000E-08	 2.50000000E+00
					-7.45058000E-09	 2.50000000E-01	 3.00000000E+00
					 1.00000000E+00	 5.00000000E-01	 4.00000000E+00
					 1.00000000E+00	 1.00000000E+00	 4.00000000E+00
					 5.00000000E-01	 5.00000000E-01	 4.00000000E+00
					 5.00000000E-01	 1.00000000E+00	 4.00000000E+00
					 1.00000000E+00	 5.00000000E-01	 3.50000000E+00
					 1.00000000E+00	 7.50000000E-01	 4.00000000E+00
					 1.00000000E+00	 1.00000000E+00	 3.50000000E+00
					 7.50000000E-01	 5.00000000E-01	 4.00000000E+00
					 7.50000000E-01	 1.00000000E+00	 4.00000000E+00
					 5.00000000E-01	 5.00000000E-01	 3.50000000E+00
					 5.00000000E-01	 7.50000000E-01	 4.00000000E+00
					 5.00000000E-01	 1.00000000E+00	 3.50000000E+00
					 1.00000000E+00	-1.49012000E-08	 4.00000000E+00
					 5.00000000E-01	-1.49012000E-08	 4.00000000E+00
					 1.00000000E+00	-1.49012000E-08	 3.50000000E+00
					 1.00000000E+00	 2.50000000E-01	 4.00000000E+00
					 7.50000000E-01	-1.49012000E-08	 4.00000000E+00
					 5.00000000E-01	-1.49012000E-08	 3.50000000E+00
					 5.00000000E-01	 2.50000000E-01	 4.00000000E+00
					-7.45058000E-09	 5.00000000E-01	 4.00000000E+00
					-7.45058000E-09	 1.00000000E+00	 4.00000000E+00
					 2.50000000E-01	 5.00000000E-01	 4.00000000E+00
					 2.50000000E-01	 1.00000000E+00	 4.00000000E+00
					-7.45058000E-09	 5.00000000E-01	 3.50000000E+00
					-7.45058000E-09	 7.50000000E-01	 4.00000000E+00
					-7.45058000E-09	 1.00000000E+00	 3.50000000E+00
					-7.45058000E-09	-1.49012000E-08	 4.00000000E+00
					 2.50000000E-01	-1.49012000E-08	 4.00000000E+00
					-7.45058000E-09	-1.49012000E-08	 3.50000000E+00
					-7.45058000E-09	 2.50000000E-01	 4.00000000E+00
					 1.00000000E+00	 5.00000000E-01	 5.00000000E+00
					 1.00000000E+00	 1.00000000E+00	 5.00000000E+00
					 5.00000000E-01	 5.00000000E-01	 5.00000000E+00
					 5.00000000E-01	 1.00000000E+00	 5.00000000E+00
					 1.00000000E+00	 5.00000000E-01	 4.50000000E+00
					 1.00000000E+00	 7.50000000E-01	 5.00000000E+00
					 1.00000000E+00	 1.00000000E+00	 4.50000000E+00
					 7.50000000E-01	 5.00000000E-01	 5.00000000E+00
					 7.50000000E-01	 1.00000000E+00	 5.00000000E+00
					 5.00000000E-01	 5.00000000E-01	 4.50000000E+00
					 5.00000000E-01	 7.50000000E-01	 5.00000000E+00
					 5.00000000E-01	 1.00000000E+00	 4.50000000E+00
					 1.00000000E+00	-1.49012000E-08	 5.00000000E+00
					 5.00000000E-01	-1.49012000E-08	 5.00000000E+00
					 1.00000000E+00	-1.49012000E-08	 4.50000000E+00
					 1.00000000E+00	 2.50000000E-01	 5.00000000E+00
					 7.50000000E-01	-1.49012000E-08	 5.00000000E+00
					 5.00000000E-01	-1.49012000E-08	 4.50000000E+00
					 5.00000000E-01	 2.50000000E-01	 5.00000000E+00
					-7.45058000E-09	 5.00000000E-01	 5.00000000E+00
					-7.45058000E-09	 1.00000000E+00	 5.00000000E+00
					 2.50000000E-01	 5.00000000E-01	 5.00000000E+00
					 2.50000000E-01	 1.00000000E+00	 5.00000000E+00
					-7.45058000E-09	 5.00000000E-01	 4.50000000E+00
					-7.45058000E-09	 7.50000000E-01	 5.00000000E+00
					-7.45058000E-09	 1.00000000E+00	 4.50000000E+00
					-7.45058000E-09	-1.49012000E-08	 5.00000000E+00
					 2.50000000E-01	-1.49012000E-08	 5.00000000E+00
					-7.45058000E-09	-1.49012000E-08	 4.50000000E+00
					-7.45058000E-09	 2.50000000E-01	 5.00000000E+00
					 1.00000000E+00	 5.00000000E-01	 6.00000000E+00
					 1.00000000E+00	 1.00000000E+00	 6.00000000E+00
					 5.00000000E-01	 5.00000000E-01	 6.00000000E+00
					 5.00000000E-01	 1.00000000E+00	 6.00000000E+00
					 1.00000000E+00	 5.00000000E-01	 5.50000000E+00
					 1.00000000E+00	 7.50000000E-01	 6.00000000E+00
					 1.00000000E+00	 1.00000000E+00	 5.50000000E+00
					 7.50000000E-01	 5.00000000E-01	 6.00000000E+00
					 7.50000000E-01	 1.00000000E+00	 6.00000000E+00
					 5.00000000E-01	 5.00000000E-01	 5.50000000E+00
					 5.00000000E-01	 7.50000000E-01	 6.00000000E+00
					 5.00000000E-01	 1.00000000E+00	 5.50000000E+00
					 1.00000000E+00	-1.49012000E-08	 6.00000000E+00
[...]
			<PointData>
				<DataArray type="Float32" Name="U" NumberOfComponents="3" ComponentName0="D1" ComponentName1="D2" ComponentName2="D3" format="ascii">
					 0.00000000E+00	 0.00000000E+00	 0.00000000E+00
					 0.00000000E+00	 0.00000000E+00	 0.00000000E+00
					-1.51390000E-06	-3.47172000E-03	 6.61044000E-06
					-1.23068000E-04	-3.65486000E-03	 3.00528000E-03
					 0.00000000E+00	 0.00000000E+00	 0.00000000E+00
					 0.00000000E+00	 0.00000000E+00	 0.00000000E+00
					-7.36483000E-08	-3.39563000E-03	 2.39276000E-06
					 2.68957000E-04	-3.59320000E-03	 3.03389000E-03
					 0.00000000E+00	 0.00000000E+00	 0.00000000E+00
					 1.00601000E-06	-8.46992000E-04	 4.52943000E-06
					-6.24296000E-05	-3.49454000E-03	 1.44751000E-03
					-3.32286000E-04	-1.10021000E-03	 1.52989000E-03
					 0.00000000E+00	 0.00000000E+00	 0.00000000E+00
					 0.00000000E+00	 0.00000000E+00	 0.00000000E+00
					-9.26899000E-07	-3.49832000E-03	 4.75752000E-06
					 7.57902000E-05	-3.68966000E-03	 3.04638000E-03
					 0.00000000E+00	 0.00000000E+00	 0.00000000E+00
					 2.16151000E-06	-9.23287000E-04	 1.91040000E-06
					 1.34345000E-04	-3.42305000E-03	 1.48401000E-03
					 1.28973000E-04	-1.18429000E-03	 1.48592000E-03
					 0.00000000E+00	 0.00000000E+00	 0.00000000E+00
					 1.21435000E-04	-3.62581000E-03	-2.99385000E-03
					 0.00000000E+00	 0.00000000E+00	 0.00000000E+00
					-2.67226000E-04	-3.56667000E-03	-3.03095000E-03
					 0.00000000E+00	 0.00000000E+00	 0.00000000E+00
					 3.34750000E-04	-1.08741000E-03	-1.51951000E-03
					 5.95333000E-05	-3.47953000E-03	-1.43483000E-03
					 0.00000000E+00	 0.00000000E+00	 0.00000000E+00
					-7.51765000E-05	-3.66169000E-03	-3.03892000E-03
					 0.00000000E+00	 0.00000000E+00	 0.00000000E+00
					-1.23108000E-04	-1.17413000E-03	-1.48126000E-03
					-1.33904000E-04	-3.40990000E-03	-1.47998000E-03
					 0.00000000E+00	 0.00000000E+00	 0.00000000E+00
					 0.00000000E+00	 0.00000000E+00	 0.00000000E+00
					 2.05852000E-06	-2.93787000E-03	 5.91199000E-07
					 6.57449000E-04	-3.12375000E-03	 2.99946000E-03
					 0.00000000E+00	 0.00000000E+00	 0.00000000E+00
					 0.00000000E+00	 0.00000000E+00	 0.00000000E+00
					 9.86954000E-07	-3.23309000E-03	 3.90090000E-07
					 4.60043000E-04	-3.42319000E-03	 2.99019000E-03
					 0.00000000E+00	 0.00000000E+00	 0.00000000E+00
					 2.64801000E-06	-5.95723000E-04	 1.28407000E-06
					 3.31368000E-04	-2.96236000E-03	 1.49304000E-03
					 5.78525000E-04	-8.58223000E-04	 1.52641000E-03
					 0.00000000E+00	 0.00000000E+00	 0.00000000E+00
					-6.51259000E-04	-3.09878000E-03	-2.99932000E-03
					 0.00000000E+00	 0.00000000E+00	 0.00000000E+00
					-4.56678000E-04	-3.39751000E-03	-2.99042000E-03
					 0.00000000E+00	 0.00000000E+00	 0.00000000E+00
					-5.71115000E-04	-8.49627000E-04	-1.52422000E-03
					-3.26568000E-04	-2.94984000E-03	-1.49268000E-03
					-5.05531000E-06	-1.25932000E-02	-2.64469000E-05
					 2.51045000E-04	-1.27818000E-02	 5.39221000E-03
					-3.95091000E-06	-1.21767000E-02	-2.27203000E-05
					 5.72703000E-04	-1.23679000E-02	 5.40002000E-03
					-3.78339000E-06	-7.43440000E-03	-2.30619000E-06
					 1.22353000E-04	-1.26523000E-02	 2.64226000E-03
					 6.30112000E-05	-7.64715000E-03	 4.27903000E-03
					-4.97416000E-06	-1.24212000E-02	-2.49327000E-05
					 4.11109000E-04	-1.26103000E-02	 5.42176000E-03
					-2.95074000E-06	-7.19243000E-03	-4.56562000E-06
					 2.85378000E-04	-1.22382000E-02	 2.67325000E-03
					 4.19643000E-04	-7.40250000E-03	 4.28643000E-03
					-2.64097000E-04	-1.27210000E-02	-5.45216000E-03
					-5.85207000E-04	-1.23026000E-02	-5.45233000E-03
					-7.05790000E-05	-7.60231000E-03	-4.28911000E-03
					-1.33460000E-04	-1.26229000E-02	-2.69653000E-03
					-4.24211000E-04	-1.25470000E-02	-5.47905000E-03
					-4.26488000E-04	-7.35735000E-03	-4.29958000E-03
					-2.94636000E-04	-1.22058000E-02	-2.72031000E-03
					-1.48440000E-06	-1.14361000E-02	-1.56282000E-05
					 8.98452000E-04	-1.16299000E-02	 5.40032000E-03
					-2.55846000E-06	-1.18426000E-02	-1.96221000E-05
					 7.36215000E-04	-1.20351000E-02	 5.38301000E-03
					-5.12884000E-07	-6.59108000E-03	-3.61766000E-06
					 4.49445000E-04	-1.14987000E-02	 2.69360000E-03
					 7.80097000E-04	-6.80442000E-03	 4.27716000E-03
					-9.06787000E-04	-1.15558000E-02	-5.43816000E-03
					-7.47259000E-04	-1.19662000E-02	-5.42855000E-03
					-7.82606000E-04	-6.75535000E-03	-4.28685000E-03
					-4.53570000E-04	-1.14602000E-02	-2.72661000E-03
					-4.86575000E-06	-2.58365000E-02	-1.17786000E-04
					 5.60217000E-04	-2.60343000E-02	 7.25906000E-03
					-4.32768000E-06	-2.51330000E-02	-1.05629000E-04
					 8.43803000E-04	-2.53284000E-02	 7.26834000E-03
					-4.98151000E-06	-1.87661000E-02	-6.57199000E-05
					 2.76577000E-04	-2.59002000E-02	 3.56027000E-03
					 4.19760000E-04	-1.89596000E-02	 6.36048000E-03
					-4.50330000E-06	-2.55204000E-02	-1.12743000E-04
					 7.01700000E-04	-2.57166000E-02	 7.27869000E-03
					-3.96511000E-06	-1.81963000E-02	-5.58934000E-05
					 4.19301000E-04	-2.51964000E-02	 3.58704000E-03
					 7.15137000E-04	-1.83875000E-02	 6.37342000E-03
					-5.71684000E-04	-2.59272000E-02	-7.49819000E-03
					-8.54609000E-04	-2.52200000E-02	-7.48338000E-03
					-4.33198000E-04	-1.88802000E-02	-6.49791000E-03
					-2.86980000E-04	-2.58477000E-02	-3.79703000E-03
					-7.12637000E-04	-2.56082000E-02	-7.50756000E-03
					-7.27279000E-04	-1.83040000E-02	-6.49232000E-03
					-4.28919000E-04	-2.51428000E-02	-3.79939000E-03
					-4.04175000E-06	-2.41374000E-02	-9.07956000E-05
					 1.12468000E-03	-2.43395000E-02	 7.28416000E-03
					-4.06812000E-06	-2.46710000E-02	-9.78405000E-05
					 9.84271000E-04	-2.48672000E-02	 7.25776000E-03
					-2.35464000E-06	-1.73232000E-02	-4.34192000E-05
					 5.62304000E-04	-2.42041000E-02	 3.62089000E-03
					 1.01350000E-03	-1.75203000E-02	 6.37916000E-03
					-1.13453000E-03	-2.42288000E-02	-7.47014000E-03
					-9.94668000E-04	-2.47585000E-02	-7.45806000E-03
					-1.02272000E-03	-1.74302000E-02	-6.47441000E-03
					-5.71013000E-04	-2.41486000E-02	-3.80326000E-03
					-1.08207000E-05	-4.26661000E-02	-2.67524000E-04
					 7.84577000E-04	-4.29515000E-02	 9.29668000E-03
					-1.28909000E-05	-4.16616000E-02	-2.48970000E-04
					 1.18148000E-03	-4.19557000E-02	 9.30429000E-03
					-6.72109000E-06	-3.37246000E-02	-1.82221000E-04
					 3.88671000E-04	-4.27582000E-02	 4.51619000E-03
					 6.60348000E-04	-3.39605000E-02	 8.20117000E-03
					-1.15856000E-05	-4.22138000E-02	-2.59489000E-04
					 9.83071000E-04	-4.25056000E-02	 9.32467000E-03
					-7.63886000E-06	-3.28893000E-02	-1.69117000E-04
					 5.84281000E-04	-4.17589000E-02	 4.55695000E-03
					 9.88811000E-04	-3.31293000E-02	 8.20158000E-03
					-8.18348000E-04	-4.27752000E-02	-9.83788000E-03
					-1.21333000E-03	-4.17660000E-02	-9.80693000E-03
					-6.79227000E-04	-3.38227000E-02	-8.56913000E-03
					-4.13832000E-04	-4.26702000E-02	-5.05167000E-03
					-1.01671000E-03	-4.23198000E-02	-9.85069000E-03
					-1.00708000E-03	-3.29864000E-02	-8.54254000E-03
					-6.12130000E-04	-4.16614000E-02	-5.05593000E-03
					-1.34241000E-05	-4.02691000E-02	-2.24575000E-04
					 1.58212000E-03	-4.05604000E-02	 9.34135000E-03
					-1.39401000E-05	-4.10145000E-02	-2.37051000E-04
					 1.38090000E-03	-4.13076000E-02	 9.27851000E-03
					-8.30725000E-06	-3.17270000E-02	-1.51637000E-04
					 7.83338000E-04	-4.03657000E-02	 4.62962000E-03
					 1.30945000E-03	-3.19740000E-02	 8.23158000E-03
					-1.60814000E-03	-4.03671000E-02	-9.79361000E-03
					-1.41043000E-03	-4.11167000E-02	-9.75550000E-03
					-1.32535000E-03	-3.18301000E-02	-8.53711000E-03
					-8.09970000E-04	-4.02660000E-02	-5.07985000E-03
					-3.27562000E-07	-6.49595000E-02	-5.43504000E-04
					 1.11331000E-03	-6.53107000E-02	 1.18651000E-02
					-3.55730000E-06	-6.36346000E-02	-4.99516000E-04
					 1.51315000E-03	-6.39961000E-02	 1.19227000E-02
					-9.79635000E-06	-5.30408000E-02	-3.87131000E-04
					 5.59270000E-04	-6.50804000E-02	 5.62013000E-03
					 9.61744000E-04	-5.33603000E-02	 1.05952000E-02
					-1.29608000E-06	-6.43501000E-02	-5.22195000E-04
					 1.31375000E-03	-6.47072000E-02	 1.19088000E-02
					-1.28887000E-05	-5.18440000E-02	-3.56317000E-04
					 7.56953000E-04	-6.37612000E-02	 5.68495000E-03
					 1.38859000E-03	-5.21745000E-02	 1.06259000E-02
					-1.13354000E-03	-6.50134000E-02	-1.29616000E-02
					-1.53393000E-03	-6.36748000E-02	-1.29318000E-02
					-9.98807000E-04	-5.31297000E-02	-1.13784000E-02
					-5.65715000E-04	-6.49349000E-02	-6.70948000E-03
					-1.33435000E-03	-6.43949000E-02	-1.29623000E-02
					-1.42509000E-03	-5.19230000E-02	-1.13456000E-02
					-7.68716000E-04	-6.35999000E-02	-6.68588000E-03
					-5.99249000E-06	-6.19142000E-02	-4.47908000E-04
					 1.93167000E-03	-6.22666000E-02	 1.19616000E-02
					-5.54330000E-06	-6.28253000E-02	-4.75492000E-04
					 1.72219000E-03	-6.31879000E-02	 1.19414000E-02
					-1.45012000E-05	-5.02268000E-02	-3.18505000E-04
					 9.58882000E-04	-6.20371000E-02	 5.73108000E-03
					 1.83006000E-03	-5.05484000E-02	 1.06670000E-02
					-1.94873000E-03	-6.19344000E-02	-1.28673000E-02
					-1.74262000E-03	-6.28607000E-02	-1.29026000E-02
					-1.86155000E-03	-5.02881000E-02	-1.13085000E-02
					-9.71904000E-04	-6.18692000E-02	-6.62868000E-03
					 2.22959000E-05	-9.24803000E-02	-9.40379000E-04
					 1.07395000E-03	-9.27968000E-02	 1.35502000E-02
					 1.72063000E-05	-9.13294000E-02	-8.96235000E-04
					 1.27026000E-03	-9.16457000E-02	 1.36185000E-02
					 1.29238000E-05	-7.82413000E-02	-7.29909000E-04
					 5.47866000E-04	-9.26134000E-02	 6.28713000E-03
					 1.17198000E-03	-7.85848000E-02	 1.28742000E-02
					 2.03447000E-05	-9.19300000E-02	-9.19168000E-04
					 1.17287000E-03	-9.22450000E-02	 1.35534000E-02
					 8.86796000E-06	-7.69290000E-02	-6.81249000E-04
					 6.44368000E-04	-9.14614000E-02	 6.31163000E-03
					 1.47177000E-03	-7.72722000E-02	 1.29461000E-02
					-1.03581000E-03	-9.23756000E-02	-1.54337000E-02
					-1.23696000E-03	-9.12169000E-02	-1.54143000E-02
					-1.15911000E-03	-7.82191000E-02	-1.43412000E-02
					-5.04886000E-04	-9.24038000E-02	-8.16849000E-03
					-1.13664000E-03	-9.18200000E-02	-1.53943000E-02
					-1.46222000E-03	-7.68908000E-02	-1.43183000E-02
					-6.10503000E-04	-9.12494000E-02	-8.10481000E-03
					 1.26432000E-05	-8.99764000E-02	-8.47768000E-04
					 1.47458000E-03	-9.02870000E-02	 1.36465000E-02
					 1.41909000E-05	-9.06777000E-02	-8.72189000E-04
					 1.37181000E-03	-9.09943000E-02	 1.36887000E-02
					 5.20533000E-06	-7.53081000E-02	-6.25977000E-04
					 7.42627000E-04	-9.01031000E-02	 6.29679000E-03
					 1.79595000E-03	-7.56393000E-02	 1.29784000E-02
					-1.44453000E-03	-8.98636000E-02	-1.53458000E-02
					-1.34095000E-03	-9.05632000E-02	-1.54385000E-02
					-1.78761000E-03	-7.52541000E-02	-1.42423000E-02
					-7.16571000E-04	-8.98981000E-02	-7.99174000E-03
					 4.53615000E-05	-1.22491000E-01	-1.39120000E-03
					 7.71641000E-04	-1.22740000E-01	 1.38014000E-02
					 3.91330000E-05	-1.21753000E-01	-1.36775000E-03
					 7.94721000E-04	-1.22005000E-01	 1.38280000E-02
					 3.38666000E-05	-1.07327000E-01	-1.16624000E-03
					 4.10304000E-04	-1.22615000E-01	 6.20226000E-03
					 9.08073000E-04	-1.07610000E-01	 1.38152000E-02
					 4.44205000E-05	-1.22122000E-01	-1.37877000E-03
					 7.85136000E-04	-1.22374000E-01	 1.37951000E-02
					 2.68579000E-05	-1.06400000E-01	-1.12983000E-03
					 4.18737000E-04	-1.21880000E-01	 6.20253000E-03
					 1.01079000E-03	-1.06689000E-01	 1.38722000E-02
					-6.89806000E-04	-1.22268000E-01	-1.65968000E-02
					-7.22454000E-04	-1.21525000E-01	-1.65743000E-02
					-8.50364000E-04	-1.07155000E-01	-1.61476000E-02
					-3.22651000E-04	-1.22375000E-01	-8.99154000E-03
					-7.04579000E-04	-1.21898000E-01	-1.65644000E-02
					-9.58236000E-04	-1.06224000E-01	-1.61305000E-02
					-3.43194000E-04	-1.21637000E-01	-8.94325000E-03
					 2.91066000E-05	-1.20984000E-01	-1.33630000E-03
					 8.03742000E-04	-1.21242000E-01	 1.38384000E-02
					 3.28646000E-05	-1.21374000E-01	-1.35327000E-03
					 7.98634000E-04	-1.21626000E-01	 1.38659000E-02
					 1.85812000E-05	-1.05369000E-01	-1.09140000E-03
					 4.20157000E-04	-1.21114000E-01	 6.18763000E-03
					 1.10540000E-03	-1.05658000E-01	 1.38914000E-02
					-7.46302000E-04	-1.20764000E-01	-1.65205000E-02
					-7.36360000E-04	-1.21145000E-01	-1.65792000E-02
					-1.05865000E-03	-1.05204000E-01	-1.60720000E-02
					-3.62497000E-04	-1.20872000E-01	-8.86741000E-03
					 3.24496000E-06	-1.52855000E-01	-1.83382000E-03
					 5.41626000E-04	-1.53055000E-01	 1.33494000E-02
					 3.90487000E-05	-1.52282000E-01	-1.83999000E-03
					 5.62911000E-04	-1.52467000E-01	 1.33024000E-02
					 3.68182000E-05	-1.37677000E-01	-1.60721000E-03
					 2.60709000E-04	-1.52954000E-01	 5.77544000E-03
					 6.45558000E-04	-1.37918000E-01	 1.36005000E-02
					 1.80214000E-05	-1.52576000E-01	-1.84319000E-03
					 5.50739000E-04	-1.52760000E-01	 1.33183000E-02
					 4.19617000E-05	-1.37071000E-01	-1.60399000E-03
					 2.91829000E-04	-1.52372000E-01	 5.74105000E-03
					 6.44555000E-04	-1.37301000E-01	 1.35794000E-02
					-5.04315000E-04	-1.52646000E-01	-1.70720000E-02
					-4.99520000E-04	-1.52085000E-01	-1.70377000E-02
					-5.58557000E-04	-1.37452000E-01	-1.68595000E-02
					-2.46548000E-04	-1.52756000E-01	-9.45980000E-03
					-5.02290000E-04	-1.52375000E-01	-1.70578000E-02
					-5.72101000E-04	-1.36847000E-01	-1.68293000E-02
					-2.19192000E-04	-1.52192000E-01	-9.43660000E-03
					 6.95011000E-05	-1.51710000E-01	-1.80098000E-03
					 5.51236000E-04	-1.51925000E-01	 1.32965000E-02
					 5.88299000E-05	-1.51985000E-01	-1.82449000E-03
					 5.58856000E-04	-1.52181000E-01	 1.32955000E-02
					 4.31598000E-05	-1.36462000E-01	-1.57109000E-03
					 3.12201000E-04	-1.51819000E-01	 5.75062000E-03
					 6.20087000E-04	-1.36710000E-01	 1.35812000E-02
					-4.67322000E-04	-1.51492000E-01	-1.69564000E-02
					-4.82484000E-04	-1.51785000E-01	-1.69991000E-02
					-5.66428000E-04	-1.36227000E-01	-1.67634000E-02
					-1.88293000E-04	-1.51605000E-01	-9.37150000E-03
					 0.00000000E+00	 0.00000000E+00	 0.00000000E+00
					 0.00000000E+00	 0.00000000E+00	 0.00000000E+00
					 1.36568000E-04	-5.47445000E-03	-2.26808000E-04
					-2.13156000E-03	-5.99039000E-03	 6.90102000E-03
					 0.00000000E+00	 0.00000000E+00	 0.00000000E+00
					 0.00000000E+00	 0.00000000E+00	 0.00000000E+00
					 1.13896000E-04	-7.21431000E-03	-1.71800000E-04
					-1.12181000E-03	-7.76051000E-03	 7.01338000E-03
					 0.00000000E+00	 0.00000000E+00	 0.00000000E+00
					 6.74541000E-05	-6.57632000E-04	-1.06454000E-04
					-1.00087000E-03	-5.56183000E-03	 3.42891000E-03
					-1.57889000E-03	-1.28033000E-03	 3.36276000E-03
					 0.00000000E+00	 0.00000000E+00	 0.00000000E+00
					 0.00000000E+00	 0.00000000E+00	 0.00000000E+00
					 1.24631000E-04	-6.51353000E-03	-1.97944000E-04
					-1.62033000E-03	-7.03915000E-03	 6.83186000E-03
					 0.00000000E+00	 0.00000000E+00	 0.00000000E+00
					 3.68449000E-05	-1.73120000E-03	-6.94172000E-05
					-5.02989000E-04	-7.30876000E-03	 3.38314000E-03
					-5.55769000E-04	-2.34200000E-03	 3.28906000E-03
					 0.00000000E+00	 0.00000000E+00	 0.00000000E+00
					 2.38918000E-03	-5.90772000E-03	-7.36359000E-03
					 0.00000000E+00	 0.00000000E+00	 0.00000000E+00
					 1.34701000E-03	-7.66626000E-03	-7.36886000E-03
					 0.00000000E+00	 0.00000000E+00	 0.00000000E+00
					 1.69817000E-03	-1.29905000E-03	-3.58501000E-03
					 1.26965000E-03	-5.51579000E-03	-3.88625000E-03
					 0.00000000E+00	 0.00000000E+00	 0.00000000E+00
					 1.86221000E-03	-6.95063000E-03	-7.23615000E-03
					 0.00000000E+00	 0.00000000E+00	 0.00000000E+00
					 6.22830000E-04	-2.34187000E-03	-3.43267000E-03
					 7.30139000E-04	-7.25998000E-03	-3.73099000E-03
					 0.00000000E+00	 0.00000000E+00	 0.00000000E+00
					 0.00000000E+00	 0.00000000E+00	 0.00000000E+00
					 9.62553000E-05	-7.94257000E-03	-9.70830000E-05
					-9.22267000E-05	-8.45353000E-03	 7.03061000E-03
					 0.00000000E+00	 0.00000000E+00	 0.00000000E+00
					 0.00000000E+00	 0.00000000E+00	 0.00000000E+00
					 1.03295000E-04	-7.74444000E-03	-1.40246000E-04
					-6.14374000E-04	-8.27152000E-03	 7.12223000E-03
					 0.00000000E+00	 0.00000000E+00	 0.00000000E+00
					 1.68269000E-05	-1.83563000E-03	-3.18692000E-05
					 3.10734000E-06	-8.02300000E-03	 3.32491000E-03
					 5.23931000E-04	-2.43004000E-03	 3.43908000E-03
					 0.00000000E+00	 0.00000000E+00	 0.00000000E+00
					 2.88175000E-04	-8.34855000E-03	-7.23532000E-03
					 0.00000000E+00	 0.00000000E+00	 0.00000000E+00
					 8.19403000E-04	-8.17346000E-03	-7.41550000E-03
					 0.00000000E+00	 0.00000000E+00	 0.00000000E+00
					-4.93080000E-04	-2.40919000E-03	-3.50757000E-03
					 1.93229000E-04	-7.97287000E-03	-3.52163000E-03
					 3.68077000E-04	-2.58313000E-02	-5.57868000E-04
					-3.18822000E-03	-2.64603000E-02	 1.32474000E-02
					 3.67392000E-04	-2.89296000E-02	-5.06784000E-04
					-2.29263000E-03	-2.95635000E-02	 1.33250000E-02
					 2.42103000E-04	-1.39114000E-02	-3.68279000E-04
					-1.40809000E-03	-2.60438000E-02	 6.38203000E-03
					-2.69673000E-03	-1.45242000E-02	 1.02507000E-02
					 3.67523000E-04	-2.74832000E-02	-5.36446000E-04
					-2.73935000E-03	-2.81131000E-02	 1.31985000E-02
					 2.25471000E-04	-1.63446000E-02	-3.10351000E-04
					-9.57638000E-04	-2.91420000E-02	 6.36317000E-03
					-1.70889000E-03	-1.69608000E-02	 1.03328000E-02
					 3.92123000E-03	-2.60592000E-02	-1.43892000E-02
					 3.02151000E-03	-2.91710000E-02	-1.43646000E-02
					 3.17271000E-03	-1.42999000E-02	-1.10085000E-02
					 2.14132000E-03	-2.58393000E-02	-7.50512000E-03
					 3.47322000E-03	-2.77255000E-02	-1.42941000E-02
					 2.15795000E-03	-1.67352000E-02	-1.09746000E-02
					 1.69500000E-03	-2.89468000E-02	-7.38033000E-03
					 3.59510000E-04	-3.11512000E-02	-4.22690000E-04
					-1.37961000E-03	-3.17585000E-02	 1.33829000E-02
					 3.64072000E-04	-3.01405000E-02	-4.69009000E-04
					-1.83566000E-03	-3.07980000E-02	 1.34654000E-02
					 2.11317000E-04	-1.77821000E-02	-2.23689000E-04
					-5.19082000E-04	-3.13452000E-02	 6.32034000E-03
					-7.14940000E-04	-1.83914000E-02	 1.03972000E-02
					 2.12619000E-03	-3.13835000E-02	-1.42546000E-02
					 2.57393000E-03	-3.03798000E-02	-1.44338000E-02
					 1.15207000E-03	-1.81710000E-02	-1.08631000E-02
					 1.24644000E-03	-3.11636000E-02	-7.16712000E-03
					 6.98567000E-04	-5.84606000E-02	-1.13349000E-03
					-4.02548000E-03	-5.90838000E-02	 1.76934000E-02
					 7.20728000E-04	-6.28501000E-02	-1.10581000E-03
					-3.38683000E-03	-6.35818000E-02	 1.77596000E-02
					 5.22504000E-04	-4.08239000E-02	-8.09759000E-04
					-1.65768000E-03	-5.86927000E-02	 8.28018000E-03
					-3.62430000E-03	-4.14761000E-02	 1.57457000E-02
					 7.11707000E-04	-6.07353000E-02	-1.11837000E-03
					-3.70737000E-03	-6.14245000E-02	 1.76355000E-02
					 5.31935000E-04	-4.45824000E-02	-7.70319000E-04
					-1.35734000E-03	-6.31374000E-02	 8.22537000E-03
					-2.85277000E-03	-4.52472000E-02	 1.58212000E-02
					 5.38696000E-03	-5.83726000E-02	-1.99662000E-02
					 4.83043000E-03	-6.27859000E-02	-2.00133000E-02
					 4.65976000E-03	-4.09045000E-02	-1.73905000E-02
					 3.04220000E-03	-5.83400000E-02	-1.05420000E-02
					 5.10719000E-03	-6.06552000E-02	-1.99062000E-02
					 3.91933000E-03	-4.46652000E-02	-1.73894000E-02
					 2.77576000E-03	-6.27474000E-02	-1.04621000E-02
					 7.28929000E-04	-6.66734000E-02	-1.05782000E-03
					-2.85323000E-03	-6.75079000E-02	 1.77642000E-02
					 7.26641000E-04	-6.48511000E-02	-1.08788000E-03
					-3.12184000E-03	-6.55118000E-02	 1.78983000E-02
					 5.42246000E-04	-4.75987000E-02	-7.01106000E-04
					-1.03444000E-03	-6.70133000E-02	 8.11016000E-03
					-2.11607000E-03	-4.82814000E-02	 1.58572000E-02
					 4.27401000E-03	-6.66354000E-02	-1.99496000E-02
					 4.55379000E-03	-6.47787000E-02	-2.01203000E-02
					 3.16613000E-03	-4.76764000E-02	-1.72905000E-02
					 2.49494000E-03	-6.65974000E-02	-1.02734000E-02
					 1.15245000E-03	-9.91215000E-02	-1.96184000E-03
					-4.55234000E-03	-9.95191000E-02	 1.90527000E-02