# vtk DataFile Version 3.0

ASCII
DATASET UNSTRUCTURED_GRID

POINTS 522 double
	 1.00000000E+00	 1.00000000E+00	-5.96046000E-08
	 1.00000000E+00	 5.00000000E-01	-5.96046000E-08
	 1.00000000E+00	 5.00000000E-01	 1.00000000E+00
	 1.00000000E+00	 1.00000000E+00	 1.00000000E+00
	 5.00000000E-01	 1.00000000E+00	-5.96046000E-08
	 5.00000000E-01	 5.00000000E-01	-5.96046000E-08
	 5.00000000E-01	 5.00000000E-01	 1.00000000E+00
	 5.00000000E-01	 1.00000000E+00	 1.00000000E+00
	 1.00000000E+00	 7.50000000E-01	-5.96046000E-08
	 1.00000000E+00	 5.00000000E-01	 5.00000000E-01
	 1.00000000E+00	 7.50000000E-01	 1.00000000E+00
	 1.00000000E+00	 1.00000000E+00	 5.00000000E-01
	 7.50000000E-01	 1.00000000E+00	-5.96046000E-08
	 7.50000000E-01	 5.00000000E-01	-5.96046000E-08
	 7.50000000E-01	 5.00000000E-01	 1.00000000E+00
	 7.50000000E-01	 1.00000000E+00	 1.00000000E+00
	 5.00000000E-01	 7.50000000E-01	-5.96046000E-08
	 5.00000000E-01	 5.00000000E-01	 5.00000000E-01
	 5.00000000E-01	 7.50000000E-01	 1.00000000E+00
	 5.00000000E-01	 1.00000000E+00	 5.00000000E-01
	 1.00000000E+00	-1.49012000E-08	-5.96046000E-08
	 1.00000000E+00	-1.49012000E-08	 1.00000000E+00
	 5.00000000E-01	-1.49012000E-08	-5.96046000E-08
	 5.00000000E-01	-1.49012000E-08	 1.00000000E+00
	 1.00000000E+00	 2.50000000E-01	-5.96046000E-08
	 1.00000000E+00	-1.49012000E-08	 5.00000000E-01
	 1.00000000E+00	 2.50000000E-01	 1.00000000E+00
	 7.50000000E-01	-1.49012000E-08	-5.96046000E-08
	 7.50000000E-01	-1.49012000E-08	 1.00000000E+00
	 5.00000000E-01	 2.50000000E-01	-5.96046000E-08
	 5.00000000E-01	-1.49012000E-08	 5.00000000E-01
	 5.00000000E-01	 2.50000000E-01	 1.00000000E+00
	-7.45058000E-09	 1.00000000E+00	-5.96046000E-08
	-7.45058000E-09	 5.00000000E-01	-5.96046000E-08
	-7.45058000E-09	 5.00000000E-01	 1.00000000E+00
	-7.45058000E-09	 1.00000000E+00	 1.00000000E+00
	 2.50000000E-01	 1.00000000E+00	-5.96046000E-08
	 2.50000000E-01	 5.00000000E-01	-5.96046000E-08
	 2.50000000E-01	 5.00000000E-01	 1.00000000E+00
	 2.50000000E-01	 1.00000000E+00	 1.00000000E+00
	-7.45058000E-09	 7.50000000E-01	-5.96046000E-08
	-7.45058000E-09	 5.00000000E-01	 5.00000000E-01
	-7.45058000E-09	 7.50000000E-01	 1.00000000E+00
	-7.45058000E-09	 1.00000000E+00	 5.00000000E-01
	-7.45058000E-09	-1.49012000E-08	-5.96046000E-08
	-7.45058000E-09	-1.49012000E-08	 1.00000000E+00
	 2.50000000E-01	-1.49012000E-08	-5.96046000E-08
	 2.50000000E-01	-1.49012000E-08	 1.00000000E+00
	-7.45058000E-09	 2.50000000E-01	-5.96046000E-08
	-7.45058000E-09	-1.49012000E-08	 5.00000000E-01
	-7.45058000E-09	 2.50000000E-01	 1.00000000E+00
	 1.00000000E+00	 5.00000000E-01	 2.00000000E+00
	 1.00000000E+00	 1.00000000E+00	 2.00000000E+00
	 5.00000000E-01	 5.00000000E-01	 2.00000000E+00
	 5.00000000E-01	 1.00000000E+00	 2.00000000E+00
	 1.00000000E+00	 5.00000000E-01	 1.50000000E+00
	 1.00000000E+00	 7.50000000E-01	 2.00000000E+00
	 1.00000000E+00	 1.00000000E+00	 1.50000000E+00
	 7.50000000E-01	 5.00000000E-01	 2.00000000E+00
	 7.50000000E-01	 1.00000000E+00	 2.00000000E+00
	 5.00000000E-01	 5.00000000E-01	 1.50000000E+00
	 5.00000000E-01	 7.50000000E-01	 2.00000000E+00
	 5.00000000E-01	 1.00000000E+00	 1.50000000E+00
	 1.00000000E+00	-1.49012000E-08	 2.00000000E+00
	 5.00000000E-01	-1.49012000E-08	 2.00000000E+00
	 1.00000000E+00	-1.49012000E-08	 1.50000000E+00
	 1.00000000E+00	 2.50000000E-01	 2.00000000E+00
	 7.50000000E-01	-1.49012000E-08	 2.00000000E+00
	 5.00000000E-01	-1.49012000E-08	 1.50000000E+00
	 5.00000000E-01	 2.50000000E-01	 2.00000000E+00
	-7.45058000E-09	 5.00000000E-01	 2.00000000E+00
	-7.45058000E-09	 1.00000000E+00	 2.00000000E+00
	 2.50000000E-01	 5.00000000E-01	 2.00000000E+00
	 2.50000000E-01	 1.00000000E+00	 2.00000000E+00
	-7.45058000E-09	 5.00000000E-01	 1.50000000E+00
	-7.45058000E-09	 7.50000000E-01	 2.00000000E+00
	-7.45058000E-09	 1.00000000E+00	 1.50000000E+00
	-7.45058000E-09	-1.49012000E-08	 2.00000000E+00
	 2.50000000E-01	-1.49012000E-08	 2.00000000E+00
	-7.45058000E-09	-1.49012000E-08	 1.50000000E+00
	-7.45058000E-09	 2.50000000E-01	 2.00000000E+00
	 1.00000000E+00	 5.00000000E-01	 3.00000000E+00
	 1.00000000E+00	 1.00000000E+00	 3.00000000E+00
	 5.00000000E-01	 5.00000000E-01	 3.00000000E+00
	 5.00000000E-01	 1.00000000E+00	 3.00000000E+00
	 1.00000000E+00	 5.00000000E-01	 2.50000000E+00
	 1.00000000E+00	 7.50000000E-01	 3.00000000E+00
	 1.00000000E+00	 1.00000000E+00	 2.50000000E+00
	 7.50000000E-01	 5.00000000E-01	 3.00000000E+00
	 7.50000000E-01	 1.00000000E+00	 3.00000000E+00
	 5.00000000E-01	 5.00000000E-01	 2.50000000E+00
	 5.00000000E-01	 7.50000000E-01	 3.00000000E+00
	 5.00000000E-01	 1.00000000E+00	 2.50000000E+00
	 1.00000000E+00	-1.49012000E-08	 3.00000000E+00
	 5.00000000E-01	-1.49012000E-08	 3.00000000E+00
	 1.00000000E+00	-1.49012000E-08	 2.50000000E+00
	 1.00000000E+00	 2.50000000E-01	 3.00000000E+00
	 7.50000000E-01	-1.49012000E-08	 3.00000000E+00
	 5.00000000E-01	-1.49012000E-08	 2.50000000E+00
	 5.00000000E-01	 2.50000000E-01	 3.00000000E+00
	-7.45058000E-09	 5.00000000E-01	 3.00000000E+00
	-7.45058000E-09	 1.00000000E+00	 3.00000000E+00
	 2.50000000E-01	 5.00000000E-01	 3.00000000E+00
	 2.50000000E-01	 1.00000000E+00	 3.00000000E+00
	-7.45058000E-09	 5.00000000E-01	 2.50000000E+00
	-7.45058000E-09	 7.50000000E-01	 3.00000000E+00
	-7.45058000E-09	 1.00000000E+00	 2.50000000E+00
	-7.45058000E-09	-1.49012000E-08	 3.00000000E+00
	 2.50000000E-01	-1.49012000E-08	 3.00000000E+00
	-7.45058000E-09	-1.49012000E-08	 2.50000000E+00
	-7.45058000E-09	 2.50000000E-01	 3.00000000E+00
	 1.00000000E+00	 5.00000000E-01	 4.00000000E+00
	 1.00000000E+00	 1.00000000E+00	 4.00000000E+00
	 5.00000000E-01	 5.00000000E-01	 4.00000000E+00
	 5.00000000E-01	 1.00000000E+00	 4.00000000E+00
	 1.00000000E+00	 5.00000000E-01	 3.50000000E+00
	 1.00000000E+00	 7.50000000E-01	 4.00000000E+00
	 1.00000000E+00	 1.00000000E+00	 3.50000000E+00
	 7.50000000E-01	 5.00000000E-01	 4.00000000E+00
	 7.50000000E-01	 1.00000000E+00	 4.00000000E+00
	 5.00000000E-01	 5.00000000E-01	 3.50000000E+00
	 5.00000000E-01	 7.50000000E-01	 4.00000000E+00
	 5.00000000E-01	 1.00000000E+00	 3.50000000E+00
	 1.00000000E+00	-1.49012000E-08	 4.00000000E+00
	 5.00000000E-01	-1.49012000E-08	 4.00000000E+00
	 1.00000000E+00	-1.49012000E-08	 3.50000000E+00
	 1.00000000E+00	 2.50000000E-01	 4.00000000E+00
	 7.50000000E-01	-1.49012000E-08	 4.00000000E+00
	 5.00000000E-01	-1.49012000E-08	 3.50000000E+00
	 5.00000000E-01	 2.50000000E-01	 4.00000000E+00
	-7.45058000E-09	 5.00000000E-01	 4.00000000E+00
	-7.45058000E-09	 1.00000000E+00	 4.00000000E+00
	 2.50000000E-01	 5.00000000E-01	 4.00000000E+00
	 2.50000000E-01	 1.00000000E+00	 4.00000000E+00
	-7.45058000E-09	 5.00000000E-01	 3.50000000E+00
	-7.45058000E-09	 7.50000000E-01	 4.00000000E+00
	-7.45058000E-09	 1.00000000E+00	 3.50000000E+00
	-7.45058000E-09	-1.49012000E-08	 4.00000000E+00
	 2.50000000E-01	-1.49012000E-08	 4.00000000E+00
	-7.45058000E-09	-1.49012000E-08	 3.50000000E+00
	-7.45058000E-09	 2.50000000E-01	 4.00000000E+00
	 1.00000000E+00	 5.00000000E-01	 5.00000000E+00
	 1.00000000E+00	 1.00000000E+00	 5.00000000E+00
	 5.00000000E-01	 5.00000000E-01	 5.00000000E+00
	 5.00000000E-01	 1.00000000E+00	 5.00000000E+00
	 1.00000000E+00	 5.00000000E-01	 4.50000000E+00
	 1.00000000E+00	 7.50000000E-01	 5.00000000E+00
	 1.00000000E+00	 1.00000000E+00	 4.50000000E+00
	 7.50000000E-01	 5.00000000E-01	 5.00000000E+00
	 7.50000000E-01	 1.00000000E+00	 5.00000000E+00
	 5.00000000E-01	 5.00000000E-01	 4.50000000E+00
	 5.00000000E-01	 7.50000000E-01	 5.00000000E+00
	 5.00000000E-01	 1.00000000E+00	 4.50000000E+00
	 1.00000000E+00	-1.49012000E-08	 5.00000000E+00
	 5.00000000E-01	-1.49012000E-08	 5.00000000E+00
	 1.00000000E+00	-1.49012000E-08	 4.50000000E+00
	 1.00000000E+00	 2.50000000E-01	 5.00000000E+00
	 7.50000000E-01	-1.49012000E-08	 5.00000000E+00
	 5.00000000E-01	-1.49012000E-08	 4.50000000E+00
	 5.00000000E-01	 2.50000000E-01	 5.00000000E+00
	-7.45058000E-09	 5.00000000E-01	 5.00000000E+00
	-7.45058000E-09	 1.00000000E+00	 5.00000000E+00
	 2.50000000E-01	 5.00000000E-01	 5.00000000E+00
	 2.50000000E-01	 1.00000000E+00	 5.00000000E+00
	-7.45058000E-09	 5.00000000E-01	 4.50000000E+00
	-7.45058000E-09	 7.50000000E-01	 5.00000000E+00
	-7.45058000E-09	 1.00000000E+00	 4.50000000E+00
	-7.45058000E-09	-1.49012000E-08	 5.00000000E+00
	 2.50000000E-01	-1.49012000E-08	 5.00000000E+00
	-7.45058000E-09	-1.49012000E-08	 4.50000000E+00
	-7.45058000E-09	 2.50000000E-01	 5.00000000E+00
	 1.00000000E+00	 5.00000000E-01	 6.00000000E+00
	 1.00000000E+00	 1.00000000E+00	 6.00000000E+00
	 5.00000000E-01	 5.00000000E-01	 6.00000000E+00
	 5.00000000E-01	 1.00000000E+00	 6.00000000E+00
	 1.00000000E+00	 5.00000000E-01	 5.50000000E+00
	 1.00000000E+00	 7.50000000E-01	 6.00000000E+00
	 1.00000000E+00	 1.00000000E+00	 5.50000000E+00
	 7.50000000E-01	 5.00000000E-01	 6.00000000E+00
	 7.50000000E-01	 1.00000000E+00	 6.00000000E+00
	 5.00000000E-01	 5.00000000E-01	 5.50000000E+00
	 5.00000000E-01	 7.50000000E-01	 6.00000000E+00
	 5.00000000E-01	 1.00000000E+00	 5.50000000E+00
	 1.00000000E+00	-1.49012000E-08	 6.00000000E+00
	 5.00000000E-01	-1.49012000E-08	 6.00000000E+00
	 1.00000000E+00	-1.49012000E-08	 5.50000000E+00
	 1.00000000E+00	 2.50000000E-01	 6.00000000E+00
	 7.50000000E-01	-1.49012000E-08	 6.00000000E+00
	 5.00000000E-01	-1.49012000E-08	 5.50000000E+00
	 5.00000000E-01	 2.50000000E-01	 6.00000000E+00
	-7.45058000E-09	 5.00000000E-01	 6.00000000E+00
	-7.45058000E-09	 1.00000000E+00	 6.00000000E+00
	 2.50000000E-01	 5.00000000E-01	 6.00000000E+00
	 2.50000000E-01	 1.00000000E+00	 6.00000000E+00
	-7.45058000E-09	 5.00000000E-01	 5.50000000E+00
	-7.45058000E-09	 7.50000000E-01	 6.00000000E+00
	-7.45058000E-09	 1.00000000E+00	 5.50000000E+00
	-7.45058000E-09	-1.49012000E-08	 6.00000000E+00
	 2.50000000E-01	-1.49012000E-08	 6.00000000E+00
	-7.45058000E-09	-1.49012000E-08	 5.50000000E+00
	-7.45058000E-09	 2.50000000E-01	 6.00000000E+00
	 1.00000000E+00	 5.00000000E-01	 7.00000000E+00
[...]
POINT_DATA 522
FIELD U 1
	U 3 522 double
		 0.00000000E+00	 0.00000000E+00	 0.00000000E+00
		 0.00000000E+00	 0.00000000E+00	 0.00000000E+00
		-1.23738000E-05	-4.90530000E-03	-1.18993000E-05
		 4.62490000E-04	-5.04952000E-03	 3.13888000E-03
		 0.00000000E+00	 0.00000000E+00	 0.00000000E+00
		 0.00000000E+00	 0.00000000E+00	 0.00000000E+00
		-1.37098000E-05	-4.27067000E-03	-1.09339000E-05
		 7.81663000E-04	-4.42745000E-03	 3.19022000E-03
		 0.00000000E+00	 0.00000000E+00	 0.00000000E+00
		-5.38434000E-06	-1.54419000E-03	-2.39378000E-06
		 2.24337000E-04	-4.91381000E-03	 1.41568000E-03
		-8.14471000E-05	-1.79746000E-03	 1.72622000E-03
		 0.00000000E+00	 0.00000000E+00	 0.00000000E+00
		 0.00000000E+00	 0.00000000E+00	 0.00000000E+00
		-1.32209000E-05	-4.64806000E-03	-1.27420000E-05
		 6.24658000E-04	-4.79948000E-03	 3.23950000E-03
		 0.00000000E+00	 0.00000000E+00	 0.00000000E+00
		-7.72485000E-06	-1.33399000E-03	-2.91689000E-06
		 3.82871000E-04	-4.28288000E-03	 1.51309000E-03
		 4.10068000E-04	-1.60623000E-03	 1.69098000E-03
		 0.00000000E+00	 0.00000000E+00	 0.00000000E+00
		-4.85441000E-04	-5.02131000E-03	-3.16787000E-03
		 0.00000000E+00	 0.00000000E+00	 0.00000000E+00
		-8.05351000E-04	-4.40129000E-03	-3.21786000E-03
		 0.00000000E+00	 0.00000000E+00	 0.00000000E+00
		 7.25637000E-05	-1.78310000E-03	-1.73158000E-03
		-2.48781000E-04	-4.89982000E-03	-1.44077000E-03
		 0.00000000E+00	 0.00000000E+00	 0.00000000E+00
		-6.47723000E-04	-4.77153000E-03	-3.27095000E-03
		 0.00000000E+00	 0.00000000E+00	 0.00000000E+00
		-4.22363000E-04	-1.59446000E-03	-1.69829000E-03
		-4.08905000E-04	-4.26994000E-03	-1.53677000E-03
		 0.00000000E+00	 0.00000000E+00	 0.00000000E+00
		 0.00000000E+00	 0.00000000E+00	 0.00000000E+00
		-1.30696000E-05	-3.31557000E-03	-7.51300000E-06
		 1.10010000E-03	-3.45790000E-03	 3.14108000E-03
		 0.00000000E+00	 0.00000000E+00	 0.00000000E+00
		 0.00000000E+00	 0.00000000E+00	 0.00000000E+00
		-1.37755000E-05	-3.85287000E-03	-8.60210000E-06
		 9.37574000E-04	-4.00169000E-03	 3.11125000E-03
		 0.00000000E+00	 0.00000000E+00	 0.00000000E+00
		-8.30652000E-06	-7.11580000E-04	-1.90574000E-06
		 5.43829000E-04	-3.32329000E-03	 1.54956000E-03
		 8.74933000E-04	-9.88876000E-04	 1.72331000E-03
		 0.00000000E+00	 0.00000000E+00	 0.00000000E+00
		-1.12123000E-03	-3.43636000E-03	-3.16140000E-03
		 0.00000000E+00	 0.00000000E+00	 0.00000000E+00
		-9.60740000E-04	-3.97744000E-03	-3.13372000E-03
		 0.00000000E+00	 0.00000000E+00	 0.00000000E+00
		-8.87849000E-04	-9.79384000E-04	-1.73019000E-03
		-5.68634000E-04	-3.31293000E-03	-1.56627000E-03
		-2.76605000E-05	-1.39803000E-02	-5.99168000E-05
		 1.01608000E-03	-1.41103000E-02	 4.77104000E-03
		-2.80004000E-05	-1.28444000E-02	-5.32704000E-05
		 1.20729000E-03	-1.29686000E-02	 4.78191000E-03
		-2.00202000E-05	-9.15812000E-03	-3.12563000E-05
		 4.89572000E-04	-1.40285000E-02	 2.33804000E-03
		 8.24256000E-04	-9.33705000E-03	 4.07316000E-03
		-2.78863000E-05	-1.34325000E-02	-5.70243000E-05
		 1.11216000E-03	-1.35549000E-02	 4.78685000E-03
		-2.06746000E-05	-8.20781000E-03	-2.76648000E-05
		 5.90494000E-04	-1.28907000E-02	 2.35840000E-03
		 1.05464000E-03	-8.36845000E-03	 4.09413000E-03
		-1.07291000E-03	-1.40654000E-02	-4.89434000E-03
		-1.26538000E-03	-1.29207000E-02	-4.89080000E-03
		-8.64704000E-04	-9.30134000E-03	-4.14285000E-03
		-5.45139000E-04	-1.40071000E-02	-2.45874000E-03
		-1.16957000E-03	-1.35081000E-02	-4.90424000E-03
		-1.09463000E-03	-8.33245000E-03	-4.15517000E-03
		-6.47087000E-04	-1.28676000E-02	-2.46564000E-03
		-2.73435000E-05	-1.15070000E-02	-4.41221000E-05
		 1.40881000E-03	-1.16309000E-02	 4.78868000E-03
		-2.78907000E-05	-1.21938000E-02	-4.87974000E-05
		 1.30809000E-03	-1.23173000E-02	 4.77730000E-03
		-2.03133000E-05	-7.00589000E-03	-2.22309000E-05
		 6.92887000E-04	-1.15517000E-02	 2.37326000E-03
		 1.30912000E-03	-7.16034000E-03	 4.08322000E-03
		-1.46648000E-03	-1.15787000E-02	-4.87824000E-03
		-1.36664000E-03	-1.22679000E-02	-4.87586000E-03
		-1.34707000E-03	-7.12620000E-03	-4.13195000E-03
		-7.48306000E-04	-1.15257000E-02	-2.46232000E-03
		-3.17971000E-05	-2.51622000E-02	-1.33301000E-04
		 1.17573000E-03	-2.53203000E-02	 6.11351000E-03
		-2.92708000E-05	-2.38330000E-02	-1.17940000E-04
		 1.41957000E-03	-2.39942000E-02	 6.12327000E-03
		-3.12219000E-05	-1.92471000E-02	-9.40989000E-05
		 5.74005000E-04	-2.52084000E-02	 2.98596000E-03
		 1.09129000E-03	-1.93871000E-02	 5.41611000E-03
		-3.09074000E-05	-2.45287000E-02	-1.25808000E-04
		 1.29716000E-03	-2.46904000E-02	 6.13479000E-03
		-3.03589000E-05	-1.80181000E-02	-8.35817000E-05
		 6.95481000E-04	-2.38810000E-02	 3.01579000E-03
		 1.30319000E-03	-1.81592000E-02	 5.42188000E-03
		-1.24138000E-03	-2.52416000E-02	-6.38333000E-03
		-1.48115000E-03	-2.39123000E-02	-6.36314000E-03
		-1.15669000E-03	-1.93281000E-02	-5.60612000E-03
		-6.38170000E-04	-2.51692000E-02	-3.25352000E-03
		-1.36136000E-03	-2.46098000E-02	-6.38963000E-03
		-1.36784000E-03	-1.80959000E-02	-5.59074000E-03
		-7.54934000E-04	-2.38396000E-02	-3.25278000E-03
		-2.59202000E-05	-2.22627000E-02	-9.80997000E-05
		 1.66611000E-03	-2.24251000E-02	 6.14877000E-03
		-2.74152000E-05	-2.30804000E-02	-1.08826000E-04
		 1.54266000E-03	-2.32414000E-02	 6.10794000E-03
		-2.87955000E-05	-1.65769000E-02	-6.86314000E-05
		 8.20497000E-04	-2.23125000E-02	 3.06492000E-03
		 1.51093000E-03	-1.67277000E-02	 5.44249000E-03
		-1.72157000E-03	-2.23371000E-02	-6.34974000E-03
		-1.60129000E-03	-2.31575000E-02	-6.33038000E-03
		-1.57371000E-03	-1.66572000E-02	-5.58147000E-03
		-8.73130000E-04	-2.22667000E-02	-3.26240000E-03
		-3.17912000E-05	-3.95967000E-02	-2.50944000E-04
		 1.38955000E-03	-3.97864000E-02	 7.71447000E-03
		-3.08038000E-05	-3.80614000E-02	-2.23149000E-04
		 1.62897000E-03	-3.82456000E-02	 7.75143000E-03
		-3.22935000E-05	-3.19203000E-02	-1.83405000E-04
		 6.78538000E-04	-3.96601000E-02	 3.70219000E-03
		 1.29170000E-03	-3.20940000E-02	 6.92178000E-03
		-3.22210000E-05	-3.88608000E-02	-2.37450000E-04
		 1.50844000E-03	-3.90463000E-02	 7.74398000E-03
		-3.04682000E-05	-3.04681000E-02	-1.62372000E-04
		 8.00602000E-04	-3.81206000E-02	 3.74489000E-03
		 1.55416000E-03	-3.06424000E-02	 6.94123000E-03
		-1.44803000E-03	-3.96570000E-02	-8.22075000E-03
		-1.68752000E-03	-3.81187000E-02	-8.20301000E-03
		-1.35469000E-03	-3.19913000E-02	-7.29332000E-03
		-7.40462000E-04	-3.95958000E-02	-4.20554000E-03
		-1.56779000E-03	-3.89190000E-02	-8.22299000E-03
		-1.61495000E-03	-3.05394000E-02	-7.27186000E-03
		-8.60532000E-04	-3.80588000E-02	-4.19255000E-03
		-2.47086000E-05	-3.62836000E-02	-1.90745000E-04
		 1.88868000E-03	-3.64589000E-02	 7.77342000E-03
		-2.81978000E-05	-3.72034000E-02	-2.07579000E-04
		 1.75979000E-03	-3.73870000E-02	 7.76365000E-03
		-2.55770000E-05	-2.87542000E-02	-1.37577000E-04
		 9.29305000E-04	-3.63379000E-02	 3.77122000E-03
		 1.82715000E-03	-2.89236000E-02	 6.96709000E-03
		-1.93892000E-03	-3.63284000E-02	-8.16077000E-03
		-1.81520000E-03	-3.72584000E-02	-8.18498000E-03
		-1.88016000E-03	-2.88161000E-02	-7.24916000E-03
		-9.78673000E-04	-3.62749000E-02	-4.15408000E-03
		-1.73326000E-05	-5.69266000E-02	-4.08267000E-04
		 1.21844000E-03	-5.70803000E-02	 8.72121000E-03
		-1.25704000E-05	-5.56572000E-02	-3.81841000E-04
		 1.31449000E-03	-5.57933000E-02	 8.75732000E-03
		-2.50944000E-05	-4.80580000E-02	-3.30128000E-04
		 5.95876000E-04	-5.69938000E-02	 4.18358000E-03
		 1.39706000E-03	-4.82366000E-02	 8.32340000E-03
		-1.58575000E-05	-5.63044000E-02	-3.95157000E-04
		 1.26762000E-03	-5.64435000E-02	 8.69487000E-03
		-2.23878000E-05	-4.65665000E-02	-2.98809000E-04
		 6.51477000E-04	-5.57139000E-02	 4.16921000E-03
		 1.56025000E-03	-4.67287000E-02	 8.37217000E-03
		-1.24200000E-03	-5.69022000E-02	-9.54070000E-03
		-1.33261000E-03	-5.56278000E-02	-9.52323000E-03
		-1.43842000E-03	-4.80792000E-02	-8.98608000E-03
		-6.27538000E-04	-5.69029000E-02	-5.00111000E-03
		-1.28896000E-03	-5.62750000E-02	-9.48757000E-03
		-1.59933000E-03	-4.65793000E-02	-8.97283000E-03
		-6.74058000E-04	-5.56329000E-02	-4.93330000E-03
		-6.77964000E-06	-5.42804000E-02	-3.51953000E-04
		 1.42593000E-03	-5.44114000E-02	 8.77736000E-03
		-9.04417000E-06	-5.49797000E-02	-3.67900000E-04
		 1.37010000E-03	-5.51147000E-02	 8.82314000E-03
		-1.64267000E-05	-4.49004000E-02	-2.62325000E-04
		 7.09844000E-04	-5.43323000E-02	 4.13862000E-03
		 1.75097000E-03	-4.50504000E-02	 8.38965000E-03
		-1.43809000E-03	-5.42492000E-02	-9.48313000E-03
		-1.38446000E-03	-5.49494000E-02	-9.56084000E-03
		-1.78308000E-03	-4.49014000E-02	-8.91792000E-03
		-7.22804000E-04	-5.42554000E-02	-4.84274000E-03
		-1.45185000E-05	-7.49570000E-02	-5.70000000E-04
		 3.55310000E-04	-7.51191000E-02	 9.24151000E-03
		-1.33927000E-05	-7.45169000E-02	-5.59467000E-04
		 4.92417000E-04	-7.46796000E-02	 9.24354000E-03
		-1.56560000E-05	-6.58725000E-02	-4.84841000E-04
		 1.70737000E-04	-7.50216000E-02	 4.42767000E-03
		 8.41134000E-04	-6.60290000E-02	 8.96164000E-03
		-1.46762000E-05	-7.47545000E-02	-5.64442000E-04
		 4.23517000E-04	-7.49157000E-02	 9.16647000E-03
		-1.11760000E-05	-6.49797000E-02	-4.67695000E-04
		 2.39091000E-04	-7.45799000E-02	 4.35922000E-03
		 9.33237000E-04	-6.51236000E-02	 8.97410000E-03
		-3.81788000E-04	-7.49285000E-02	-1.03776000E-02
		-5.18223000E-04	-7.44915000E-02	-1.03578000E-02
		-8.64261000E-04	-6.58466000E-02	-9.93449000E-03
		-1.98717000E-04	-7.49238000E-02	-5.56512000E-03
		-4.50496000E-04	-7.47296000E-02	-1.02924000E-02
		-9.51082000E-04	-6.49506000E-02	-9.91062000E-03
		-2.65314000E-04	-7.44866000E-02	-5.47645000E-03
		-1.13393000E-05	-7.39434000E-02	-5.54385000E-04
		 6.29283000E-04	-7.41063000E-02	 9.25667000E-03
		-1.18228000E-05	-7.42471000E-02	-5.56208000E-04
		 5.61007000E-04	-7.44114000E-02	 9.31185000E-03
		-5.78169000E-06	-6.39888000E-02	-4.50987000E-04
		 3.08560000E-04	-7.40058000E-02	 4.30544000E-03
		 1.03354000E-03	-6.41320000E-02	 8.99583000E-03
		-6.53088000E-04	-7.39158000E-02	-1.03598000E-02
		-5.85221000E-04	-7.42197000E-02	-1.04192000E-02
		-1.04509000E-03	-6.39597000E-02	-9.89724000E-03
		-3.31566000E-04	-7.39134000E-02	-5.41200000E-03
		-4.01040000E-06	-9.48792000E-02	-7.73813000E-04
		-4.52293000E-04	-9.50552000E-02	 1.00489000E-02
		-1.44731000E-05	-9.52521000E-02	-7.78472000E-04
		-3.27926000E-04	-9.54402000E-02	 1.00657000E-02
		-9.05291000E-06	-8.45380000E-02	-6.67181000E-04
		-2.26534000E-04	-9.49530000E-02	 4.64515000E-03
		-1.15786000E-04	-8.47055000E-02	 9.66814000E-03
		-7.44926000E-06	-9.50837000E-02	-7.76371000E-04
		-3.90049000E-04	-9.52677000E-02	 1.00175000E-02
		-1.52400000E-05	-8.45486000E-02	-6.62403000E-04
		-1.74169000E-04	-9.53306000E-02	 4.61347000E-03
		 4.66325000E-05	-8.47287000E-02	 9.67507000E-03
		 4.41462000E-04	-9.48056000E-02	-1.15992000E-02
		 3.02296000E-04	-9.51862000E-02	-1.16276000E-02
		 9.30686000E-05	-8.44882000E-02	-1.09948000E-02
		 2.17900000E-04	-9.48232000E-02	-6.19545000E-03
		 3.75298000E-04	-9.50169000E-02	-1.15723000E-02
		-7.68238000E-05	-8.45060000E-02	-1.09928000E-02
		 1.46819000E-04	-9.52002000E-02	-6.17270000E-03
		-2.30109000E-05	-9.55014000E-02	-7.78695000E-04
		-2.15401000E-04	-9.56918000E-02	 1.00613000E-02
		-2.10808000E-05	-9.53918000E-02	-7.78691000E-04
		-2.74057000E-04	-9.55831000E-02	 1.01202000E-02
		-2.01716000E-05	-8.44053000E-02	-6.63573000E-04
		-1.20914000E-04	-9.55795000E-02	 4.55987000E-03
		 2.00552000E-04	-8.45843000E-02	 9.67424000E-03
		 1.77265000E-04	-9.54447000E-02	-1.16255000E-02
		 2.38168000E-04	-9.53286000E-02	-1.16840000E-02
		-2.37007000E-04	-8.43641000E-02	-1.09946000E-02
		 7.76053000E-05	-9.54557000E-02	-6.12024000E-03
		-2.02760000E-05	-1.17052000E-01	-1.00398000E-03
		-5.95779000E-04	-1.17173000E-01	 1.01004000E-02
		-3.05371000E-06	-1.17690000E-01	-1.03183000E-03
		-5.88738000E-04	-1.17806000E-01	 1.01263000E-02
		-4.72624000E-06	-1.05871000E-01	-8.86074000E-04
		-3.03644000E-04	-1.17115000E-01	 4.53056000E-03
		-5.96248000E-04	-1.06016000E-01	 1.01682000E-02
		-1.39670000E-05	-1.17360000E-01	-1.02110000E-03
		-5.94603000E-04	-1.17481000E-01	 1.01144000E-02
		-8.23881000E-06	-1.06439000E-01	-9.04224000E-04
		-2.89619000E-04	-1.17749000E-01	 4.53873000E-03
		-5.45745000E-04	-1.06591000E-01	 1.01912000E-02
		 5.86611000E-04	-1.16932000E-01	-1.21450000E-02
		 5.97543000E-04	-1.17597000E-01	-1.22264000E-02
		 6.03353000E-04	-1.05749000E-01	-1.19631000E-02
		 2.71661000E-04	-1.16995000E-01	-6.55066000E-03
		 5.92435000E-04	-1.17261000E-01	-1.21915000E-02
		 5.39562000E-04	-1.06340000E-01	-1.20261000E-02
		 2.88939000E-04	-1.17649000E-01	-6.61273000E-03
		 1.82441000E-05	-1.18311000E-01	-1.02624000E-03
		-5.86378000E-04	-1.18448000E-01	 1.01541000E-02
		 8.90264000E-06	-1.18008000E-01	-1.03332000E-03
		-5.86488000E-04	-1.18126000E-01	 1.01447000E-02
		-9.18906000E-06	-1.06954000E-01	-8.98984000E-04
		-2.75829000E-04	-1.18380000E-01	 4.55382000E-03
		-5.06160000E-04	-1.07121000E-01	 1.02041000E-02
		 6.17967000E-04	-1.18236000E-01	-1.22438000E-02
		 6.08536000E-04	-1.17919000E-01	-1.22476000E-02
		 4.88678000E-04	-1.06871000E-01	-1.20322000E-02
		 3.11735000E-04	-1.18280000E-01	-6.61728000E-03
		 0.00000000E+00	 0.00000000E+00	 0.00000000E+00
		 0.00000000E+00	 0.00000000E+00	 0.00000000E+00
		-3.46011000E-05	-5.32133000E-03	 1.64144000E-04
		-2.47159000E-03	-5.80577000E-03	 6.83432000E-03
		 0.00000000E+00	 0.00000000E+00	 0.00000000E+00
		 0.00000000E+00	 0.00000000E+00	 0.00000000E+00
		-5.55201000E-06	-7.29913000E-03	 1.51356000E-04
		-1.54175000E-03	-7.81577000E-03	 6.89697000E-03
		 0.00000000E+00	 0.00000000E+00	 0.00000000E+00
		-3.20180000E-05	-6.53541000E-04	 8.55668000E-05
		-1.25475000E-03	-5.40904000E-03	 3.56515000E-03
		-1.79475000E-03	-1.29513000E-03	 3.43491000E-03
		 0.00000000E+00	 0.00000000E+00	 0.00000000E+00
		 0.00000000E+00	 0.00000000E+00	 0.00000000E+00
		-1.98207000E-05	-6.46082000E-03	 1.54273000E-04
		-1.99990000E-03	-6.95847000E-03	 6.72798000E-03
		 0.00000000E+00	 0.00000000E+00	 0.00000000E+00
		-7.44457000E-06	-1.88402000E-03	 7.31131000E-05
		-7.73513000E-04	-7.39472000E-03	 3.45138000E-03
		-7.84968000E-04	-2.50278000E-03	 3.32794000E-03
		 0.00000000E+00	 0.00000000E+00	 0.00000000E+00
		 2.39926000E-03	-5.63399000E-03	-6.52766000E-03
		 0.00000000E+00	 0.00000000E+00	 0.00000000E+00
		 1.53511000E-03	-7.64070000E-03	-6.61536000E-03
		 0.00000000E+00	 0.00000000E+00	 0.00000000E+00
		 1.72955000E-03	-1.19053000E-03	-3.25809000E-03
		 1.18472000E-03	-5.31833000E-03	-3.24560000E-03
		 0.00000000E+00	 0.00000000E+00	 0.00000000E+00
		 1.96193000E-03	-6.78583000E-03	-6.43998000E-03
		 0.00000000E+00	 0.00000000E+00	 0.00000000E+00
		 7.75228000E-04	-2.40393000E-03	-3.17226000E-03
		 7.62804000E-04	-7.30613000E-03	-3.15753000E-03
		 0.00000000E+00	 0.00000000E+00	 0.00000000E+00
		 0.00000000E+00	 0.00000000E+00	 0.00000000E+00
		 2.53678000E-05	-8.40016000E-03	 1.51157000E-04
		-6.03320000E-04	-8.87776000E-03	 6.82707000E-03
		 0.00000000E+00	 0.00000000E+00	 0.00000000E+00
		 0.00000000E+00	 0.00000000E+00	 0.00000000E+00
		 9.58783000E-06	-7.99996000E-03	 1.49525000E-04
		-1.07822000E-03	-8.49530000E-03	 6.99362000E-03
		 0.00000000E+00	 0.00000000E+00	 0.00000000E+00
		 1.80212000E-05	-2.21332000E-03	 7.86101000E-05
		-2.89258000E-04	-8.47999000E-03	 3.28650000E-03
		 2.79432000E-04	-2.79726000E-03	 3.43172000E-03
		 0.00000000E+00	 0.00000000E+00	 0.00000000E+00
		 6.59620000E-04	-8.70692000E-03	-6.54067000E-03
		 0.00000000E+00	 0.00000000E+00	 0.00000000E+00
		 1.10121000E-03	-8.32352000E-03	-6.71398000E-03
		 0.00000000E+00	 0.00000000E+00	 0.00000000E+00
		-2.36373000E-04	-2.70074000E-03	-3.26608000E-03
		 3.42323000E-04	-8.39819000E-03	-2.99039000E-03
		 2.99560000E-05	-2.43319000E-02	 1.47503000E-04
		-3.30470000E-03	-2.47807000E-02	 1.20522000E-02
		 6.69579000E-05	-2.73584000E-02	 1.39858000E-04
		-2.67313000E-03	-2.78209000E-02	 1.20899000E-02
		-1.56688000E-05	-1.33498000E-02	 1.87628000E-04
		-1.63308000E-03	-2.44893000E-02	 6.04400000E-03
		-3.02203000E-03	-1.38580000E-02	 9.76341000E-03
		 4.75389000E-05	-2.59093000E-02	 1.40691000E-04
		-2.99025000E-03	-2.63672000E-02	 1.20378000E-02
		 1.57433000E-05	-1.59476000E-02	 1.73788000E-04
		-1.29774000E-03	-2.75220000E-02	 6.02688000E-03
		-2.18941000E-03	-1.64728000E-02	 9.79138000E-03
		 3.36254000E-03	-2.44190000E-02	-1.17787000E-02
		 2.79825000E-03	-2.74600000E-02	-1.18303000E-02
		 2.98418000E-03	-1.35955000E-02	-9.41430000E-03
		 1.69175000E-03	-2.43105000E-02	-5.75427000E-03
		 3.08277000E-03	-2.60119000E-02	-1.17754000E-02
		 2.22041000E-03	-1.62091000E-02	-9.46886000E-03
		 1.43390000E-03	-2.73458000E-02	-5.74885000E-03
		 1.00800000E-04	-2.98062000E-02	 1.46674000E-04
		-2.03132000E-03	-3.02520000E-02	 1.20486000E-02
		 8.36906000E-05	-2.86459000E-02	 1.42911000E-04
		-2.35131000E-03	-2.91340000E-02	 1.21533000E-02
		 4.81612000E-05	-1.77657000E-02	 1.76066000E-04
		-9.72546000E-04	-2.99574000E-02	 5.92937000E-03
		-1.37846000E-03	-1.82953000E-02	 9.75353000E-03
		 2.25248000E-03	-2.99023000E-02	-1.17753000E-02
		 2.52412000E-03	-2.87472000E-02	-1.18900000E-02
		 1.48871000E-03	-1.80393000E-02	-9.42229000E-03
		 1.18000000E-03	-2.97897000E-02	-5.63656000E-03
		 2.34961000E-04	-5.17625000E-02	-9.21544000E-05
		-3.53227000E-03	-5.19993000E-02	 1.41117000E-02
		 2.74493000E-04	-5.54415000E-02	-6.22931000E-05
		-3.37150000E-03	-5.57935000E-02	 1.41901000E-02
		 1.16834000E-04	-3.74473000E-02	 5.01039000E-05
		-1.64499000E-03	-5.18651000E-02	 6.94759000E-03
		-3.42901000E-03	-3.78273000E-02	 1.34860000E-02
		 2.55384000E-04	-5.36192000E-02	-7.32581000E-05
		-3.45514000E-03	-5.39243000E-02	 1.41044000E-02
		 1.53707000E-04	-4.08093000E-02	 5.63314000E-05
		-1.57208000E-03	-5.56058000E-02	 6.93989000E-03
		-3.03802000E-03	-4.12047000E-02	 1.35495000E-02
		 3.95814000E-03	-5.15794000E-02	-1.42873000E-02
		 3.90987000E-03	-5.52659000E-02	-1.43412000E-02
		 3.64968000E-03	-3.74038000E-02	-1.34005000E-02
		 2.10066000E-03	-5.16620000E-02	-7.12279000E-03
		 3.93158000E-03	-5.34316000E-02	-1.42706000E-02
		 3.33986000E-03	-4.07552000E-02	-1.34523000E-02
		 2.09476000E-03	-5.53502000E-02	-7.08658000E-03
		 3.11100000E-04	-5.90318000E-02	-3.37405000E-05
		-3.31249000E-03	-5.95123000E-02	 1.41636000E-02
		 2.93186000E-04	-5.72623000E-02	-5.06782000E-05
		-3.34485000E-03	-5.75504000E-02	 1.42909000E-02
		 1.98841000E-04	-4.38214000E-02	 7.11296000E-05
		-1.46787000E-03	-5.92632000E-02	 6.82585000E-03
		-2.67089000E-03	-4.42446000E-02	 1.35080000E-02
		 3.88142000E-03	-5.88818000E-02	-1.42857000E-02
		 3.89538000E-03	-5.70778000E-02	-1.44213000E-02
		 3.02089000E-03	-4.37553000E-02	-1.33832000E-02
		 2.08865000E-03	-5.89629000E-02	-6.93982000E-03
		 6.02512000E-04	-8.02740000E-02	-4.18493000E-04
		-3.51809000E-03	-8.02085000E-02	 1.28086000E-02
		 6.31345000E-04	-8.46070000E-02	-3.16182000E-04
		-3.92839000E-03	-8.50080000E-02	 1.29273000E-02
		 3.65576000E-04	-6.63053000E-02	-2.53783000E-04
		-1.45832000E-03	-8.02841000E-02	 6.17231000E-03
		-3.59760000E-03	-6.64885000E-02	 1.37642000E-02
		 6.16166000E-04	-8.23622000E-02	-3.65121000E-04
		-3.71460000E-03	-8.24761000E-02	 1.28647000E-02
		 3.95608000E-04	-7.03826000E-02	-2.37243000E-04
		-1.52586000E-03	-8.48370000E-02	 6.27347000E-03
		-3.77088000E-03	-7.05181000E-02	 1.39047000E-02
		 4.55355000E-03	-7.99240000E-02	-1.36382000E-02
		 4.89029000E-03	-8.41001000E-02	-1.35496000E-02
		 4.29917000E-03	-6.60244000E-02	-1.42685000E-02
		 2.57833000E-03	-8.01492000E-02	-7.00645000E-03
		 4.72357000E-03	-8.19650000E-02	-1.35873000E-02
		 4.48744000E-03	-7.00544000E-02	-1.42741000E-02
		 2.75129000E-03	-8.43785000E-02	-6.90511000E-03
		 5.32540000E-04	-8.92834000E-02	-2.26120000E-04
		-4.21539000E-03	-9.00704000E-02	 1.30047000E-02
		 5.82612000E-04	-8.68647000E-02	-2.70670000E-04
		-4.07324000E-03	-8.79749000E-02	 1.29852000E-02
		 4.08484000E-04	-7.46163000E-02	-2.54907000E-04
		-1.95300000E-03	-8.96908000E-02	 6.33767000E-03
		-3.79006000E-03	-7.46561000E-02	 1.38998000E-02
		 5.27354000E-03	-8.86273000E-02	-1.34436000E-02