<?xml version="1.0"?>
<VTKFile type="UnstructuredGrid" version="0.1" byte_order="LittleEndian">
	<UnstructuredGrid>
		<Piece NumberOfPoints="522" NumberOfCells="64">
			<Points>
				<DataArray type="Float64" NumberOfComponents="3" format="ascii">
					 1.00000000E+00	 1.00000000E+00	-5.96046000E-08
					 1.00000000E+00	 5.00000000E-01	-5.96046000E-08
					 1.00000000E+00	 5.00000000E-01	 1.00000000E+00
					 1.00000000E+00	 1.00000000E+00	 1.00000000E+00
					 5.00000000E-01	 1.00000000E+00	-5.96046000E-08
					 5.00000000E-01	 5.00000000E-01	-5.96046000E-08
					 5.00000000E-01	 5.00000000E-01	 1.00000000E+00
					 5.00000000E-01	 1.00000000E+00	 1.00000000E+00
					 1.00000000E+00	 7.50000000E-01	-5.96046000E-08
					 1.00000000E+00	 5.00000000E-01	 5.00000000E-01
					 1.00000000E+00	 7.50000000E-01	 1.00000000E+00
					 1.00000000E+00	 1.00000000E+00	 5.00000000E-01
					 7.50000000E-01	 1.00000000E+00	-5.96046000E-08
					 7.50000000E-01	 5.00000000E-01	-5.96046000E-08
					 7.50000000E-01	 5.00000000E-01	 1.00000000E+00
					 7.50000000E-01	 1.00000000E+00	 1.00000000E+00
					 5.00000000E-01	 7.50000000E-01	-5.96046000E-08
					 5.00000000E-01	 5.00000000E-01	 5.00000000E-01
					 5.00000000E-01	 7.50000000E-01	 1.00000000E+00
					 5.00000000E-01	 1.00000000E+00	 5.00000000E-01
					 1.00000000E+00	-1.49012000E-08	-5.96046000E-08
					 1.00000000E+00	-1.49012000E-08	 1.00000000E+00
					 5.00000000E-01	-1.49012000E-08	-5.96046000E-08
					 5.00000000E-01	-1.49012000E-08	 1.00000000E+00
					 1.00000000E+00	 2.50000000E-01	-5.96046000E-08
					 1.00000000E+00	-1.49012000E-08	 5.00000000E-01
					 1.00000000E+00	 2.50000000E-01	 1.00000000E+00
					 7.50000000E-01	-1.49012000E-08	-5.96046000E-08
					 7.50000000E-01	-1.49012000E-08	 1.00000000E+00
					 5.00000000E-01	 2.50000000E-01	-5.96046000E-08
					 5.00000000E-01	-1.49012000E-08	 5.00000000E-01
					 5.00000000E-01	 2.50000000E-01	 1.00000000E+00
					-7.45058000E-09	 1.00000000E+00	-5.96046000E-08
					-7.45058000E-09	 5.00000000E-01	-5.96046000E-08
					-7.45058000E-09	 5.00000000E-01	 1.00000000E+00
					-7.45058000E-09	 1.00000000E+00	 1.00000000E+00
					 2.50000000E-01	 1.00000000E+00	-5.96046000E-08
					 2.50000000E-01	 5.00000000E-01	-5.96046000E-08
					 2.50000000E-01	 5.00000000E-01	 1.00000000E+00
					 2.50000000E-01	 1.00000000E+00	 1.00000000E+00
					-7.45058000E-09	 7.50000000E-01	-5.96046000E-08
					-7.45058000E-09	 5.00000000E-01	 5.00000000E-01
					-7.45058000E-09	 7.50000000E-01	 1.00000000E+00
					-7.45058000E-09	 1.00000000E+00	 5.00000000E-01
					-7.45058000E-09	-1.49012000E-08	-5.96046000E-08
					-7.45058000E-09	-1.49012000E-08	 1.00000000E+00
					 2.50000000E-01	-1.49012000E-08	-5.96046000E-08
					 2.50000000E-01	-1.49012000E-08	 1.00000000E+00
					-7.45058000E-09	 2.50000000E-01	-5.96046000E-08
					-7.45058000E-09	-1.49012000E-08	 5.00000000E-01
					-7.45058000E-09	 2.50000000E-01	 1.00000000E+00
					 1.00000000E+00	 5.00000000E-01	 2.00000000E+00
					 1.00000000E+00	 1.00000000E+00	 2.00000000E+00
					 5.00000000E-01	 5.00000000E-01	 2.00000000E+00
					 5.00000000E-01	 1.00000000E+00	 2.00000000E+00
					 1.00000000E+00	 5.00000000E-01	 1.50000000E+00
					 1.00000000E+00	 7.50000000E-01	 2.00000000E+00
					 1.00000000E+00	 1.00000000E+00	 1.50000000E+00
					 7.50000000E-01	 5.00000000E-01	 2.00000000E+00
					 7.50000000E-01	 1.00000000E+00	 2.00000000E+00
					 5.00000000E-01	 5.00000000E-01	 1.50000000E+00
					 5.00000000E-01	 7.50000000E-01	 2.00000000E+00
					 5.00000000E-01	 1.00000000E+00	 1.50000000E+00
					 1.00000000E+00	-1.49012000E-08	 2.00000000E+00
					 5.00000000E-01	-1.49012000E-08	 2.00000000E+00
					 1.00000000E+00	-1.49012000E-08	 1.50000000E+00
					 1.00000000E+00	 2.50000000E-01	 2.00000000E+00
					 7.50000000E-01	-1.49012000E-08	 2.00000000E+00
					 5.00000000E-01	-1.49012000E-08	 1.50000000E+00
					 5.00000000E-01	 2.50000000E-01	 2.00000000E+00
					-7.45058000E-09	 5.00000000E-01	 2.00000000E+00
					-7.45058000E-09	 1.00000000E+00	 2.00000000E+00
					 2.50000000E-01	 5.00000000E-01	 2.00000000E+00
					 2.50000000E-01	 1.00000000E+00	 2.00000000E+00
					-7.45058000E-09	 5.00000000E-01	 1.50000000E+00
					-7.45058000E-09	 7.50000000E-01	 2.00000000E+00
					-7.45058000E-09	 1.00000000E+00	 1.50000000E+00
					-7.45058000E-09	-1.49012000E-08	 2.00000000E+00
					 2.50000000E-01	-1.49012000E-08	 2.00000000E+00
					-7.45058000E-09	-1.49012000E-08	 1.50000000E+00
					-7.45058000E-09	 2.50000000E-01	 2.00000000E+00
					 1.00000000E+00	 5.00000000E-01	 3.00000000E+00
					 1.00000000E+00	 1.00000000E+00	 3.00000000E+00
					 5.00000000E-01	 5.00000000E-01	 3.00000000E+00
					 5.00000000E-01	 1.00000000E+00	 3.00000000E+00
					 1.00000000E+00	 5.00000000E-01	 2.50000000E+00
					 1.00000000E+00	 7.50000000E-01	 3.00000000E+00
					 1.00000000E+00	 1.00000000E+00	 2.50000000E+00
					 7.50000000E-01	 5.00000000E-01	 3.00000000E+00
					 7.50000000E-01	 1.00000000E+00	 3.00000000E+00
					 5.00000000E-01	 5.00000000E-01	 2.50000000E+00
					 5.00000000E-01	 7.50000000E-01	 3.00000000E+00
					 5.00000000E-01	 1.00000000E+00	 2.50000000E+00
					 1.00000000E+00	-1.49012000E-08	 3.00000000E+00
					 5.00000000E-01	-1.49012000E-08	 3.00000000E+00
					 1.00000000E+00	-1.49012000E-08	 2.50000000E+00
					 1.00000000E+00	 2.50000000E-01	 3.00000000E+00
					 7.50000000E-01	-1.49012000E-08	 3.00000000E+00
					 5.00000000E-01	-1.49012000E-08	 2.50000000E+00
					 5.00000000E-01	 2.50000000E-01	 3.00000000E+00
					-7.45058000E-09	 5.00000000E-01	 3.00000000E+00
					-7.45058000E-09	 1.00000000E+00	 3.00000000E+00
					 2.50000000E-01	 5.00000000E-01	 3.00000000E+00
					 2.50000000E-01	 1.00000000E+00	 3.00000000E+00
					-7.45058000E-09	 5.00000000E-01	 2.50000000E+00
					-7.45058000E-09	 7.50000000E-01	 3.00000000E+00
					-7.45058000E-09	 1.00000000E+00	 2.50000000E+00
					-7.45058000E-09	-1.49012000E-08	 3.00000000E+00
					 2.50000000E-01	-1.49012000E-08	 3.00000000E+00
					-7.45058000E-09	-1.49012000E-08	 2.50000000E+00
					-7.45058000E-09	 2.50000000E-01	 3.00000000E+00
					 1.00000000E+00	 5.00000000E-01	 4.00000000E+00
					 1.00000000E+00	 1.00000000E+00	 4.00000000E+00
					 5.00000000E-01	 5.00000000E-01	 4.00000000E+00
					 5.00000000E-01	 1.00000000E+00	 4.00000000E+00
					 1.00000000E+00	 5.00000000E-01	 3.50000000E+00
					 1.00000000E+00	 7.50000000E-01	 4.00000000E+00
					 1.00000000E+00	 1.00000000E+00	 3.50000000E+00
					 7.50000000E-01	 5.00000000E-01	 4.00000000E+00
					 7.50000000E-01	 1.00000000E+00	 4.00000000E+00
					 5.00000000E-01	 5.00000000E-01	 3.50000000E+00
					 5.00000000E-01	 7.50000000E-01	 4.00000000E+00
					 5.00000000E-01	 1.00000000E+00	 3.50000000E+00
					 1.00000000E+00	-1.49012000E-08	 4.00000000E+00
					 5.00000000E-01	-1.49012000E-08	 4.00000000E+00
					 1.00000000E+00	-1.49012000E-08	 3.50000000E+00
					 1.00000000E+00	 2.50000000E-01	 4.00000000E+00
					 7.50000000E-01	-1.49012000E-08	 4.00000000E+00
					 5.00000000E-01	-1.49012000E-08	 3.50000000E+00
					 5.00000000E-01	 2.50000000E-01	 4.00000000E+00
					-7.45058000E-09	 5.00000000E-01	 4.00000000E+00
					-7.45058000E-09	 1.00000000E+00	 4.00000000E+00
					 2.50000000E-01	 5.00000000E-01	 4.00000000E+00
					 2.50000000E-01	 1.00000000E+00	 4.00000000E+00
					-7.45058000E-09	 5.00000000E-01	 3.50000000E+00
					-7.45058000E-09	 7.50000000E-01	 4.00000000E+00
					-7.45058000E-09	 1.00000000E+00	 3.50000000E+00
					-7.45058000E-09	-1.49012000E-08	 4.00000000E+00
					 2.50000000E-01	-1.49012000E-08	 4.00000000E+00
					-7.45058000E-09	-1.49012000E-08	 3.50000000E+00
					-7.45058000E-09	 2.50000000E-01	 4.00000000E+00
					 1.00000000E+00	 5.00000000E-01	 5.00000000E+00
					 1.00000000E+00	 1.00000000E+00	 5.00000000E+00
					 5.00000000E-01	 5.00000000E-01	 5.00000000E+00
					 5.00000000E-01	 1.00000000E+00	 5.00000000E+00
					 1.00000000E+00	 5.00000000E-01	 4.50000000E+00
					 1.00000000E+00	 7.50000000E-01	 5.00000000E+00
					 1.00000000E+00	 1.00000000E+00	 4.50000000E+00
					 7.50000000E-01	 5.00000000E-01	 5.00000000E+00
					 7.50000000E-01	 1.00000000E+00	 5.00000000E+00
					 5.00000000E-01	 5.00000000E-01	 4.50000000E+00
					 5.00000000E-01	 7.50000000E-01	 5.00000000E+00
					 5.00000000E-01	 1.00000000E+00	 4.50000000E+00
					 1.00000000E+00	-1.49012000E-08	 5.00000000E+00
					 5.00000000E-01	-1.49012000E-08	 5.00000000E+00
					 1.00000000E+00	-1.49012000E-08	 4.50000000E+00
					 1.00000000E+00	 2.50000000E-01	 5.00000000E+00
					 7.50000000E-01	-1.49012000E-08	 5.00000000E+00
					 5.00000000E-01	-1.49012000E-08	 4.50000000E+00
					 5.00000000E-01	 2.50000000E-01	 5.00000000E+00
					-7.45058000E-09	 5.00000000E-01	 5.00000000E+00
					-7.45058000E-09	 1.00000000E+00	 5.00000000E+00
					 2.50000000E-01	 5.00000000E-01	 5.00000000E+00
					 2.50000000E-01	 1.00000000E+00	 5.00000000E+00
					-7.45058000E-09	 5.00000000E-01	 4.50000000E+00
					-7.45058000E-09	 7.50000000E-01	 5.00000000E+00
					-7.45058000E-09	 1.00000000E+00	 4.50000000E+00
					-7.45058000E-09	-1.49012000E-08	 5.00000000E+00
					 2.50000000E-01	-1.49012000E-08	 5.00000000E+00
					-7.45058000E-09	-1.49012000E-08	 4.50000000E+00
					-7.45058000E-09	 2.50000000E-01	 5.00000000E+00
					 1.00000000E+00	 5.00000000E-01	 6.00000000E+00
					 1.00000000E+00	 1.00000000E+00	 6.00000000E+00
					 5.00000000E-01	 5.00000000E-01	 6.00000000E+00
					 5.00000000E-01	 1.00000000E+00	 6.00000000E+00
					 1.00000000E+00	 5.00000000E-01	 5.50000000E+00
					 1.00000000E+00	 7.50000000E-01	 6.00000000E+00
					 1.00000000E+00	 1.00000000E+00	 5.50000000E+00
					 7.50000000E-01	 5.00000000E-01	 6.00000000E+00
					 7.50000000E-01	 1.00000000E+00	 6.00000000E+00
					 5.00000000E-01	 5.00000000E-01	 5.50000000E+00
					 5.00000000E-01	 7.50000000E-01	 6.00000000E+00
					 5.00000000E-01	 1.00000000E+00	 5.50000000E+00
					 1.00000000E+00	-1.49012000E-08	 6.00000000E+00
[...]
			<PointData>
				<DataArray type="Float32" Name="U" NumberOfComponents="3" ComponentName0="D1" ComponentName1="D2" ComponentName2="D3" format="ascii">
					 0.00000000E+00	 0.00000000E+00	 0.00000000E+00
					 0.00000000E+00	 0.00000000E+00	 0.00000000E+00
					 1.15320000E-06	 5.80739000E-03	-6.81660000E-05
					-5.17529000E-04	 6.03837000E-03	-4.56180000E-03
					 0.00000000E+00	 0.00000000E+00	 0.00000000E+00
					 0.00000000E+00	 0.00000000E+00	 0.00000000E+00
					-6.53523000E-06	 4.97721000E-03	-6.54417000E-05
					-1.12063000E-03	 5.23924000E-03	-4.61718000E-03
					 0.00000000E+00	 0.00000000E+00	 0.00000000E+00
					 6.39460000E-06	 1.53017000E-03	-2.59636000E-05
					-2.61099000E-04	 5.81740000E-03	-2.15154000E-03
					 1.50254000E-04	 1.88194000E-03	-2.29135000E-03
					 0.00000000E+00	 0.00000000E+00	 0.00000000E+00
					 0.00000000E+00	 0.00000000E+00	 0.00000000E+00
					-2.85891000E-06	 5.49074000E-03	-6.77061000E-05
					-8.21874000E-04	 5.74079000E-03	-4.69380000E-03
					 0.00000000E+00	 0.00000000E+00	 0.00000000E+00
					-2.84073000E-06	 1.27596000E-03	-2.47834000E-05
					-5.62367000E-04	 4.99782000E-03	-2.27784000E-03
					-5.58883000E-04	 1.65500000E-03	-2.22611000E-03
					 0.00000000E+00	 0.00000000E+00	 0.00000000E+00
					 5.16320000E-04	 6.07239000E-03	 4.41895000E-03
					 0.00000000E+00	 0.00000000E+00	 0.00000000E+00
					 1.10747000E-03	 5.27483000E-03	 4.47759000E-03
					 0.00000000E+00	 0.00000000E+00	 0.00000000E+00
					-1.40201000E-04	 1.88387000E-03	 2.23600000E-03
					 2.61816000E-04	 5.83290000E-03	 2.01418000E-03
					 0.00000000E+00	 0.00000000E+00	 0.00000000E+00
					 8.15141000E-04	 5.77770000E-03	 4.54995000E-03
					 0.00000000E+00	 0.00000000E+00	 0.00000000E+00
					 5.52609000E-04	 1.65776000E-03	 2.17288000E-03
					 5.49351000E-04	 5.01585000E-03	 2.14462000E-03
					 0.00000000E+00	 0.00000000E+00	 0.00000000E+00
					 0.00000000E+00	 0.00000000E+00	 0.00000000E+00
					-1.28938000E-05	 3.57926000E-03	-5.67391000E-05
					-1.71046000E-03	 3.82107000E-03	-4.55176000E-03
					 0.00000000E+00	 0.00000000E+00	 0.00000000E+00
					 0.00000000E+00	 0.00000000E+00	 0.00000000E+00
					-9.93740000E-06	 4.37899000E-03	-6.16395000E-05
					-1.41183000E-03	 4.62932000E-03	-4.48842000E-03
					 0.00000000E+00	 0.00000000E+00	 0.00000000E+00
					-1.10403000E-05	 4.18575000E-04	-2.28388000E-05
					-8.63001000E-04	 3.59445000E-03	-2.34051000E-03
					-1.22476000E-03	 8.11180000E-04	-2.28949000E-03
					 0.00000000E+00	 0.00000000E+00	 0.00000000E+00
					 1.68832000E-03	 3.85702000E-03	 4.42950000E-03
					 0.00000000E+00	 0.00000000E+00	 0.00000000E+00
					 1.39306000E-03	 4.66462000E-03	 4.35711000E-03
					 0.00000000E+00	 0.00000000E+00	 0.00000000E+00
					 1.20436000E-03	 8.15935000E-04	 2.23822000E-03
					 8.38602000E-04	 3.61385000E-03	 2.22431000E-03
					-2.89927000E-05	 2.04054000E-02	-2.24816000E-04
					-1.88601000E-03	 2.04840000E-02	-7.78382000E-03
					-3.28931000E-05	 1.84239000E-02	-2.11233000E-04
					-2.14476000E-03	 1.84966000E-02	-7.81078000E-03
					-8.94694000E-06	 1.22877000E-02	-1.33403000E-04
					-9.55007000E-04	 2.04228000E-02	-3.83417000E-03
					-1.20219000E-03	 1.24862000E-02	-6.44543000E-03
					-3.12325000E-05	 1.94426000E-02	-2.19046000E-04
					-2.01541000E-03	 1.95136000E-02	-7.88430000E-03
					-1.56126000E-05	 1.08704000E-02	-1.26295000E-04
					-1.08982000E-03	 1.84379000E-02	-3.92277000E-03
					-1.65986000E-03	 1.10632000E-02	-6.48047000E-03
					 1.82817000E-03	 2.05911000E-02	 7.32647000E-03
					 2.07872000E-03	 1.86054000E-02	 7.38105000E-03
					 1.18289000E-03	 1.25582000E-02	 6.16802000E-03
					 8.97093000E-04	 2.04708000E-02	 3.38300000E-03
					 1.95317000E-03	 1.96243000E-02	 7.43837000E-03
					 1.62901000E-03	 1.11369000E-02	 6.21701000E-03
					 1.02414000E-03	 1.84892000E-02	 3.49859000E-03
					-3.54108000E-05	 1.61816000E-02	-1.92833000E-04
					-2.41712000E-03	 1.62436000E-02	-7.75143000E-03
					-3.42567000E-05	 1.73284000E-02	-2.02325000E-04
					-2.28249000E-03	 1.73995000E-02	-7.74869000E-03
					-2.09886000E-05	 8.99868000E-03	-1.13012000E-04
					-1.22440000E-03	 1.61877000E-02	-3.92091000E-03
					-2.13226000E-03	 9.18046000E-03	-6.42526000E-03
					 2.34532000E-03	 1.63541000E-02	 7.35952000E-03
					 2.21319000E-03	 1.75078000E-02	 7.33776000E-03
					 2.09249000E-03	 9.25368000E-03	 6.18878000E-03
					 1.15352000E-03	 1.62411000E-02	 3.53356000E-03
					-6.84445000E-05	 3.80195000E-02	-4.40678000E-04
					-2.87397000E-03	 3.79566000E-02	-8.56546000E-03
					-6.82960000E-05	 3.52498000E-02	-4.07801000E-04
					-2.82911000E-03	 3.51706000E-02	-8.54692000E-03
					-5.14105000E-05	 2.92417000E-02	-3.32438000E-04
					-1.46644000E-03	 3.79960000E-02	-4.44314000E-03
					-2.47242000E-03	 2.92485000E-02	-8.40037000E-03
					-6.85873000E-05	 3.66309000E-02	-4.23877000E-04
					-2.85209000E-03	 3.65543000E-02	-8.59205000E-03
					-5.30386000E-05	 2.67947000E-02	-3.08772000E-04
					-1.44923000E-03	 3.52181000E-02	-4.45265000E-03
					-2.54703000E-03	 2.67846000E-02	-8.41017000E-03
					 2.73726000E-03	 3.80853000E-02	 7.68486000E-03
					 2.69141000E-03	 3.53000000E-02	 7.73240000E-03
					 2.36911000E-03	 2.93711000E-02	 7.73179000E-03
					 1.32955000E-03	 3.80579000E-02	 3.56147000E-03
					 2.71474000E-03	 3.66843000E-02	 7.74551000E-03
					 2.43974000E-03	 2.69099000E-02	 7.78973000E-03
					 1.31226000E-03	 3.52815000E-02	 3.63704000E-03
					-6.75700000E-05	 3.24993000E-02	-3.75153000E-04
					-2.79866000E-03	 3.24195000E-02	-8.50001000E-03
					-6.77871000E-05	 3.38694000E-02	-3.91647000E-04
					-2.81405000E-03	 3.37891000E-02	-8.50006000E-03
					-5.35805000E-05	 2.42549000E-02	-2.83209000E-04
					-1.43519000E-03	 3.24656000E-02	-4.43754000E-03
					-2.63469000E-03	 2.42450000E-02	-8.35091000E-03
					 2.66111000E-03	 3.25516000E-02	 7.75060000E-03
					 2.67642000E-03	 3.39189000E-02	 7.71769000E-03
					 2.52505000E-03	 2.43730000E-02	 7.78188000E-03
					 1.29933000E-03	 3.25315000E-02	 3.68733000E-03
					-9.13368000E-05	 5.40657000E-02	-6.22268000E-04
					-2.97635000E-03	 5.40038000E-02	-8.46162000E-03
					-9.01419000E-05	 5.11972000E-02	-5.85778000E-04
					-2.95187000E-03	 5.11277000E-02	-8.41702000E-03
					-8.00431000E-05	 4.62673000E-02	-5.36241000E-04
					-1.53219000E-03	 5.40374000E-02	-4.58060000E-03
					-3.01922000E-03	 4.62042000E-02	-8.50839000E-03
					-9.09373000E-05	 5.26296000E-02	-6.04772000E-04
					-2.96451000E-03	 5.25621000E-02	-8.41932000E-03
					-7.88586000E-05	 4.33659000E-02	-5.00082000E-04
					-1.52152000E-03	 5.11653000E-02	-4.52093000E-03
					-2.96089000E-03	 4.32882000E-02	-8.46970000E-03
					 2.79401000E-03	 5.41283000E-02	 7.21783000E-03
					 2.77106000E-03	 5.12521000E-02	 7.24671000E-03
					 2.85990000E-03	 4.63324000E-02	 7.43734000E-03
					 1.34957000E-03	 5.41009000E-02	 3.33642000E-03
					 2.78275000E-03	 5.26856000E-02	 7.21071000E-03
					 2.80260000E-03	 4.34152000E-02	 7.47120000E-03
					 1.34112000E-03	 5.12279000E-02	 3.34973000E-03
					-8.81608000E-05	 4.83430000E-02	-5.49279000E-04
					-2.93889000E-03	 4.82674000E-02	-8.38809000E-03
					-8.91386000E-05	 4.97667000E-02	-5.66826000E-04
					-2.94584000E-03	 4.96958000E-02	-8.40936000E-03
					-7.72880000E-05	 4.05041000E-02	-4.64441000E-04
					-1.51253000E-03	 4.83076000E-02	-4.47925000E-03
					-2.92116000E-03	 4.04214000E-02	-8.43646000E-03
					 2.76115000E-03	 4.83942000E-02	 7.29120000E-03
					 2.76640000E-03	 4.98214000E-02	 7.27714000E-03
					 2.76488000E-03	 4.05502000E-02	 7.50916000E-03
					 1.33585000E-03	 4.83713000E-02	 3.38114000E-03
					-9.87438000E-05	 6.93564000E-02	-7.94576000E-04
					-2.61760000E-03	 6.93198000E-02	-8.81683000E-03
					-9.92015000E-05	 6.68090000E-02	-7.50526000E-04
					-2.67349000E-03	 6.67714000E-02	-8.77084000E-03
					-9.95093000E-05	 6.16633000E-02	-7.07638000E-04
					-1.35907000E-03	 6.93290000E-02	-4.83562000E-03
					-2.81507000E-03	 6.16137000E-02	-8.58433000E-03
					-9.92908000E-05	 6.80906000E-02	-7.72446000E-04
					-2.64572000E-03	 6.80549000E-02	-8.76627000E-03
					-9.91201000E-05	 5.89349000E-02	-6.67987000E-04
					-1.38610000E-03	 6.67812000E-02	-4.76314000E-03
					-2.84157000E-03	 5.88828000E-02	-8.53602000E-03
					 2.41838000E-03	 6.94461000E-02	 7.22820000E-03
					 2.47360000E-03	 6.69016000E-02	 7.27011000E-03
					 2.61500000E-03	 6.17364000E-02	 7.16932000E-03
					 1.16126000E-03	 6.93932000E-02	 3.24663000E-03
					 2.44558000E-03	 6.81824000E-02	 7.22176000E-03
					 2.64211000E-03	 5.90084000E-02	 7.20057000E-03
					 1.18747000E-03	 6.68463000E-02	 3.26222000E-03
					-9.72492000E-05	 6.42098000E-02	-7.05466000E-04
					-2.73111000E-03	 6.41652000E-02	-8.72777000E-03
					-9.85886000E-05	 6.55171000E-02	-7.28371000E-04
					-2.70279000E-03	 6.54769000E-02	-8.77543000E-03
					-9.68867000E-05	 5.61799000E-02	-6.27713000E-04
					-1.41256000E-03	 6.41793000E-02	-4.69323000E-03
					-2.87177000E-03	 5.61212000E-02	-8.50408000E-03
					 2.53503000E-03	 6.42993000E-02	 7.31714000E-03
					 2.50413000E-03	 6.56099000E-02	 7.31891000E-03
					 2.67627000E-03	 5.62510000E-02	 7.24951000E-03
					 1.21774000E-03	 6.42455000E-02	 3.28253000E-03
					-8.27127000E-05	 8.54413000E-02	-9.65615000E-04
					-2.23309000E-03	 8.53842000E-02	-9.28819000E-03
					-8.30711000E-05	 8.32833000E-02	-9.19586000E-04
					-2.25226000E-03	 8.32226000E-02	-9.24759000E-03
					-9.14610000E-05	 7.73054000E-02	-8.80739000E-04
					-1.15702000E-03	 8.54103000E-02	-5.14491000E-03
					-2.42845000E-03	 7.72583000E-02	-9.08028000E-03
					-8.30295000E-05	 8.43652000E-02	-9.43041000E-04
					-2.24281000E-03	 8.43058000E-02	-9.23883000E-03
					-9.21053000E-05	 7.49457000E-02	-8.34942000E-04
					-1.16763000E-03	 8.32510000E-02	-5.07136000E-03
					-2.47553000E-03	 7.48974000E-02	-9.03873000E-03
					 2.06694000E-03	 8.55221000E-02	 7.35637000E-03
					 2.08512000E-03	 8.33630000E-02	 7.40786000E-03
					 2.24432000E-03	 7.73921000E-02	 7.31924000E-03
					 9.91381000E-04	 8.54801000E-02	 3.21334000E-03
					 2.07605000E-03	 8.44438000E-02	 7.35241000E-03
					 2.29008000E-03	 7.50341000E-02	 7.36925000E-03
					 1.00135000E-03	 8.33210000E-02	 3.23197000E-03
					-8.17582000E-05	 8.11035000E-02	-8.70932000E-04
					-2.27342000E-03	 8.10400000E-02	-9.19345000E-03
					-8.26895000E-05	 8.21953000E-02	-8.95432000E-04
					-2.26345000E-03	 8.21335000E-02	-9.25782000E-03
					-9.08657000E-05	 7.25404000E-02	-7.87589000E-04
					-1.17676000E-03	 8.10701000E-02	-4.98377000E-03
					-2.52356000E-03	 7.24874000E-02	-8.98679000E-03
					 2.10844000E-03	 8.11834000E-02	 7.45102000E-03
					 2.09673000E-03	 8.22766000E-02	 7.46639000E-03
					 2.34045000E-03	 7.26269000E-02	 7.41210000E-03
					 1.01303000E-03	 8.11404000E-02	 3.24159000E-03
					-5.07137000E-05	 1.01647000E-01	-1.12787000E-03
					-1.67935000E-03	 1.01574000E-01	-9.44660000E-03
					-4.90286000E-05	 1.00017000E-01	-1.07948000E-03
					-1.67601000E-03	 9.99470000E-02	-9.40207000E-03
					-7.07341000E-05	 9.35890000E-02	-1.04906000E-03
					-8.64634000E-04	 1.01611000E-01	-5.33414000E-03
					-1.98876000E-03	 9.35269000E-02	-9.39016000E-03
					-5.04493000E-05	 1.00832000E-01	-1.10337000E-03
					-1.67781000E-03	 1.00761000E-01	-9.37825000E-03
					-6.98805000E-05	 9.16744000E-02	-1.00172000E-03
					-8.61414000E-04	 9.99838000E-02	-5.24374000E-03
					-1.98424000E-03	 9.16076000E-02	-9.34660000E-03
					 1.57905000E-03	 1.01711000E-01	 7.19399000E-03
					 1.57963000E-03	 1.00084000E-01	 7.24553000E-03
					 1.84778000E-03	 9.36644000E-02	 7.29174000E-03
					 7.63696000E-04	 1.01681000E-01	 3.07960000E-03
					 1.57829000E-03	 1.00896000E-01	 7.17431000E-03
					 1.84451000E-03	 9.17462000E-02	 7.34243000E-03
					 7.64133000E-04	 1.00051000E-01	 3.08570000E-03
					-4.59062000E-05	 9.83899000E-02	-1.03125000E-03
					-1.66485000E-03	 9.83250000E-02	-9.35876000E-03
					-4.73285000E-05	 9.92022000E-02	-1.05592000E-03
					-1.66970000E-03	 9.91328000E-02	-9.42542000E-03
					-6.72574000E-05	 8.97578000E-02	-9.51632000E-04
					-8.56052000E-04	 9.83599000E-02	-5.15477000E-03
					-1.98348000E-03	 8.96891000E-02	-9.29484000E-03
					 1.57448000E-03	 9.84609000E-02	 7.29795000E-03
					 1.57696000E-03	 9.92709000E-02	 7.31510000E-03
					 1.84784000E-03	 8.98302000E-02	 7.39028000E-03
					 7.64712000E-04	 9.84251000E-02	 3.09346000E-03
					 2.34697000E-06	 1.17906000E-01	-1.26921000E-03
					-1.26389000E-03	 1.17813000E-01	-9.57297000E-03
					-2.77104000E-06	 1.16643000E-01	-1.22358000E-03
					-1.28121000E-03	 1.16566000E-01	-9.54323000E-03
					-2.48371000E-05	 1.09700000E-01	-1.20034000E-03
					-6.33756000E-04	 1.17858000E-01	-5.43149000E-03
					-1.39644000E-03	 1.09621000E-01	-9.50662000E-03
					 6.36300000E-07	 1.17271000E-01	-1.24532000E-03
					-1.27165000E-03	 1.17188000E-01	-9.54582000E-03
					-2.48011000E-05	 1.08325000E-01	-1.15308000E-03
					-6.45131000E-04	 1.16603000E-01	-5.38480000E-03
					-1.39984000E-03	 1.08253000E-01	-9.46933000E-03
					 1.26382000E-03	 1.17963000E-01	 7.04521000E-03
					 1.27812000E-03	 1.16722000E-01	 7.10694000E-03
					 1.34480000E-03	 1.09761000E-01	 7.11438000E-03
					 6.37280000E-04	 1.17934000E-01	 2.89643000E-03
					 1.27093000E-03	 1.17342000E-01	 7.06538000E-03
					 1.35259000E-03	 1.08395000E-01	 7.17133000E-03
					 6.40496000E-04	 1.16683000E-01	 2.94067000E-03
					-7.58117000E-06	 1.15377000E-01	-1.18621000E-03
					-1.27249000E-03	 1.15322000E-01	-9.52082000E-03
					-5.98029000E-06	 1.16015000E-01	-1.20410000E-03
					-1.27721000E-03	 1.15945000E-01	-9.54290000E-03
					-2.40326000E-05	 1.06948000E-01	-1.11144000E-03
					-6.43718000E-04	 1.15349000E-01	-5.34580000E-03
					-1.39400000E-03	 1.06888000E-01	-9.43939000E-03
					 1.26686000E-03	 1.15468000E-01	 7.15966000E-03
					 1.27226000E-03	 1.16099000E-01	 7.14575000E-03
					 1.35244000E-03	 1.07023000E-01	 7.22450000E-03
					 6.30971000E-04	 1.15422000E-01	 2.97666000E-03
					 0.00000000E+00	 0.00000000E+00	 0.00000000E+00
					 0.00000000E+00	 0.00000000E+00	 0.00000000E+00
					-2.95632000E-07	-5.21623000E-03	-1.85324000E-06
					-7.54287000E-04	-5.54394000E-03	 5.08280000E-03
					 0.00000000E+00	 0.00000000E+00	 0.00000000E+00
					 0.00000000E+00	 0.00000000E+00	 0.00000000E+00
					 3.26948000E-06	-5.62133000E-03	-7.50315000E-06
					-7.74499000E-05	-5.97753000E-03	 5.13951000E-03
					 0.00000000E+00	 0.00000000E+00	 0.00000000E+00
					 9.48438000E-07	-1.08100000E-03	 1.94999000E-06
					-3.76755000E-04	-5.26031000E-03	 2.48611000E-03
					-7.88518000E-04	-1.52091000E-03	 2.56323000E-03
					 0.00000000E+00	 0.00000000E+00	 0.00000000E+00
					 0.00000000E+00	 0.00000000E+00	 0.00000000E+00
					 1.86870000E-06	-5.53232000E-03	-5.49436000E-06
					-4.11157000E-04	-5.87556000E-03	 5.10095000E-03
					 0.00000000E+00	 0.00000000E+00	 0.00000000E+00
					 8.52035000E-07	-1.44281000E-03	-4.96753000E-07
					-3.81616000E-05	-5.67486000E-03	 2.49840000E-03
					-1.91572000E-05	-1.88765000E-03	 2.48828000E-03
					 0.00000000E+00	 0.00000000E+00	 0.00000000E+00
					 7.50314000E-04	-5.47458000E-03	-5.09284000E-03
					 0.00000000E+00	 0.00000000E+00	 0.00000000E+00
					 8.53433000E-05	-5.90608000E-03	-5.16273000E-03
					 0.00000000E+00	 0.00000000E+00	 0.00000000E+00
					 7.87311000E-04	-1.49496000E-03	-2.55967000E-03
					 3.74978000E-04	-5.22586000E-03	-2.49190000E-03
					 0.00000000E+00	 0.00000000E+00	 0.00000000E+00
					 4.14044000E-04	-5.80363000E-03	-5.11929000E-03
					 0.00000000E+00	 0.00000000E+00	 0.00000000E+00
					 2.13200000E-05	-1.86201000E-03	-2.48876000E-03
					 4.38480000E-05	-5.63912000E-03	-2.51682000E-03
					 0.00000000E+00	 0.00000000E+00	 0.00000000E+00
					 0.00000000E+00	 0.00000000E+00	 0.00000000E+00
					 6.28080000E-06	-5.37811000E-03	-2.87974000E-06
					 6.00808000E-04	-5.70548000E-03	 5.08245000E-03
					 0.00000000E+00	 0.00000000E+00	 0.00000000E+00
					 0.00000000E+00	 0.00000000E+00	 0.00000000E+00
					 4.66010000E-06	-5.61363000E-03	-7.64010000E-06
					 2.57080000E-04	-5.95045000E-03	 5.12386000E-03
					 0.00000000E+00	 0.00000000E+00	 0.00000000E+00
					 7.42419000E-07	-1.12073000E-03	 3.07977000E-06
					 3.03673000E-04	-5.42244000E-03	 2.46002000E-03
					 7.52828000E-04	-1.55840000E-03	 2.56453000E-03
					 0.00000000E+00	 0.00000000E+00	 0.00000000E+00
					-5.86856000E-04	-5.63346000E-03	-5.09559000E-03
					 0.00000000E+00	 0.00000000E+00	 0.00000000E+00
					-2.47325000E-04	-5.88382000E-03	-5.14679000E-03
					 0.00000000E+00	 0.00000000E+00	 0.00000000E+00
					-7.50635000E-04	-1.53020000E-03	-2.55937000E-03
					-2.89949000E-04	-5.38706000E-03	-2.46879000E-03
					-1.15231000E-05	-2.03181000E-02	-5.36857000E-05
					-7.22653000E-04	-2.05709000E-02	 8.60949000E-03
					 2.36522000E-06	-2.08742000E-02	-7.98967000E-05
					-3.92559000E-04	-2.11143000E-02	 8.62708000E-03
					-2.04481000E-06	-1.18121000E-02	-2.01650000E-05
					-3.69599000E-04	-2.04110000E-02	 4.19256000E-03
					-7.37513000E-04	-1.21466000E-02	 7.15398000E-03
					-4.77447000E-06	-2.06304000E-02	-6.82594000E-05
					-5.56801000E-04	-2.08726000E-02	 8.61503000E-03
					 5.00363000E-06	-1.22830000E-02	-3.39005000E-05
					-1.89129000E-04	-2.09597000E-02	 4.18355000E-03
					-1.98460000E-04	-1.26111000E-02	 7.18399000E-03
					 7.06744000E-04	-2.03864000E-02	-8.72411000E-03
					 3.96952000E-04	-2.09458000E-02	-8.79353000E-03
					 7.34230000E-04	-1.20183000E-02	-7.20375000E-03
					 3.48002000E-04	-2.03209000E-02	-4.30271000E-03
					 5.53089000E-04	-2.07006000E-02	-8.75582000E-03
					 2.10785000E-04	-1.24890000E-02	-7.26214000E-03
					 1.98524000E-04	-2.08785000E-02	-4.34230000E-03
					 7.07198000E-06	-2.11073000E-02	-9.64775000E-05
					-3.35693000E-05	-2.13171000E-02	 8.56479000E-03
					 5.32839000E-06	-2.10204000E-02	-8.88604000E-05
					-2.10889000E-04	-2.12812000E-02	 8.65306000E-03
					 9.27084000E-06	-1.22234000E-02	-3.55544000E-05
					-2.26408000E-05	-2.11735000E-02	 4.09151000E-03
					 3.54663000E-04	-1.25332000E-02	 7.13813000E-03
					 7.52511000E-05	-2.11747000E-02	-8.76585000E-03
					 2.35766000E-04	-2.10964000E-02	-8.84159000E-03
					-3.23326000E-04	-1.24241000E-02	-7.21830000E-03
					 4.43983000E-05	-2.11065000E-02	-4.28202000E-03
					-5.51575000E-05	-3.93869000E-02	-1.33658000E-04
					-1.10370000E-03	-3.94608000E-02	 9.40900000E-03
					-3.62700000E-05	-4.04193000E-02	-1.89737000E-04
					-1.07863000E-03	-4.05800000E-02	 9.37003000E-03
					-2.63293000E-05	-2.97847000E-02	-9.37166000E-05
					-5.79926000E-04	-3.94263000E-02	 4.65147000E-03
					-8.15927000E-04	-2.99727000E-02	 9.27107000E-03
					-4.35685000E-05	-3.99057000E-02	-1.56347000E-04
					-1.09251000E-03	-4.00312000E-02	 9.33130000E-03
					-1.05367000E-05	-3.05174000E-02	-1.35230000E-04
					-5.81822000E-04	-4.05070000E-02	 4.53256000E-03
					-6.75056000E-04	-3.06968000E-02	 9.27020000E-03
					 9.65012000E-04	-3.92883000E-02	-9.66051000E-03
					 1.01087000E-03	-4.03314000E-02	-9.76829000E-03
					 7.63317000E-04	-2.97690000E-02	-9.46110000E-03
					 4.59220000E-04	-3.93422000E-02	-4.90807000E-03
					 9.86777000E-04	-3.98017000E-02	-9.65625000E-03
					 6.61556000E-04	-3.04907000E-02	-9.54462000E-03
					 4.87094000E-04	-4.03861000E-02	-4.93217000E-03
					-3.30238000E-05	-4.14591000E-02	-2.49981000E-04
					-1.15071000E-03	-4.17319000E-02	 9.28917000E-03
					-3.25479000E-05	-4.09504000E-02	-2.23232000E-04
					-1.11532000E-03	-4.10367000E-02	 9.41553000E-03
					 4.68620000E-06	-3.11141000E-02	-1.73346000E-04
					-5.59083000E-04	-4.16063000E-02	 4.37027000E-03
					-5.56697000E-04	-3.13124000E-02	 9.19389000E-03
					 1.04646000E-03	-4.14075000E-02	-9.83579000E-03
					 1.03005000E-03	-4.08598000E-02	-9.88294000E-03
					 5.31662000E-04	-3.10886000E-02	-9.54811000E-03
					 4.95822000E-04	-4.14514000E-02	-4.91465000E-03
					-1.35221000E-04	-5.73157000E-02	-1.90325000E-04
					-2.16721000E-03	-5.72625000E-02	 8.82155000E-03