# vtk DataFile Version 3.0

ASCII
DATASET UNSTRUCTURED_GRID

POINTS 522 double
	 1.00000000E+00	 1.00000000E+00	-5.96046000E-08
	 1.00000000E+00	 5.00000000E-01	-5.96046000E-08
	 1.00000000E+00	 5.00000000E-01	 1.00000000E+00
	 1.00000000E+00	 1.00000000E+00	 1.00000000E+00
	 5.00000000E-01	 1.00000000E+00	-5.96046000E-08
	 5.00000000E-01	 5.00000000E-01	-5.96046000E-08
	 5.00000000E-01	 5.00000000E-01	 1.00000000E+00
	 5.00000000E-01	 1.00000000E+00	 1.00000000E+00
	 1.00000000E+00	 7.50000000E-01	-5.96046000E-08
	 1.00000000E+00	 5.00000000E-01	 5.00000000E-01
	 1.00000000E+00	 7.50000000E-01	 1.00000000E+00
	 1.00000000E+00	 1.00000000E+00	 5.00000000E-01
	 7.50000000E-01	 1.00000000E+00	-5.96046000E-08
	 7.50000000E-01	 5.00000000E-01	-5.96046000E-08
	 7.50000000E-01	 5.00000000E-01	 1.00000000E+00
	 7.50000000E-01	 1.00000000E+00	 1.00000000E+00
	 5.00000000E-01	 7.50000000E-01	-5.96046000E-08
	 5.00000000E-01	 5.00000000E-01	 5.00000000E-01
	 5.00000000E-01	 7.50000000E-01	 1.00000000E+00
	 5.00000000E-01	 1.00000000E+00	 5.00000000E-01
	 1.00000000E+00	-1.49012000E-08	-5.96046000E-08
	 1.00000000E+00	-1.49012000E-08	 1.00000000E+00
	 5.00000000E-01	-1.49012000E-08	-5.96046000E-08
	 5.00000000E-01	-1.49012000E-08	 1.00000000E+00
	 1.00000000E+00	 2.50000000E-01	-5.96046000E-08
	 1.00000000E+00	-1.49012000E-08	 5.00000000E-01
	 1.00000000E+00	 2.50000000E-01	 1.00000000E+00
	 7.50000000E-01	-1.49012000E-08	-5.96046000E-08
	 7.50000000E-01	-1.49012000E-08	 1.00000000E+00
	 5.00000000E-01	 2.50000000E-01	-5.96046000E-08
	 5.00000000E-01	-1.49012000E-08	 5.00000000E-01
	 5.00000000E-01	 2.50000000E-01	 1.00000000E+00
	-7.45058000E-09	 1.00000000E+00	-5.96046000E-08
	-7.45058000E-09	 5.00000000E-01	-5.96046000E-08
	-7.45058000E-09	 5.00000000E-01	 1.00000000E+00
	-7.45058000E-09	 1.00000000E+00	 1.00000000E+00
	 2.50000000E-01	 1.00000000E+00	-5.96046000E-08
	 2.50000000E-01	 5.00000000E-01	-5.96046000E-08
	 2.50000000E-01	 5.00000000E-01	 1.00000000E+00
	 2.50000000E-01	 1.00000000E+00	 1.00000000E+00
	-7.45058000E-09	 7.50000000E-01	-5.96046000E-08
	-7.45058000E-09	 5.00000000E-01	 5.00000000E-01
	-7.45058000E-09	 7.50000000E-01	 1.00000000E+00
	-7.45058000E-09	 1.00000000E+00	 5.00000000E-01
	-7.45058000E-09	-1.49012000E-08	-5.96046000E-08
	-7.45058000E-09	-1.49012000E-08	 1.00000000E+00
	 2.50000000E-01	-1.49012000E-08	-5.96046000E-08
	 2.50000000E-01	-1.49012000E-08	 1.00000000E+00
	-7.45058000E-09	 2.50000000E-01	-5.96046000E-08
	-7.45058000E-09	-1.49012000E-08	 5.00000000E-01
	-7.45058000E-09	 2.50000000E-01	 1.00000000E+00
	 1.00000000E+00	 5.00000000E-01	 2.00000000E+00
	 1.00000000E+00	 1.00000000E+00	 2.00000000E+00
	 5.00000000E-01	 5.00000000E-01	 2.00000000E+00
	 5.00000000E-01	 1.00000000E+00	 2.00000000E+00
	 1.00000000E+00	 5.00000000E-01	 1.50000000E+00
	 1.00000000E+00	 7.50000000E-01	 2.00000000E+00
	 1.00000000E+00	 1.00000000E+00	 1.50000000E+00
	 7.50000000E-01	 5.00000000E-01	 2.00000000E+00
	 7.50000000E-01	 1.00000000E+00	 2.00000000E+00
	 5.00000000E-01	 5.00000000E-01	 1.50000000E+00
	 5.00000000E-01	 7.50000000E-01	 2.00000000E+00
	 5.00000000E-01	 1.00000000E+00	 1.50000000E+00
	 1.00000000E+00	-1.49012000E-08	 2.00000000E+00
	 5.00000000E-01	-1.49012000E-08	 2.00000000E+00
	 1.00000000E+00	-1.49012000E-08	 1.50000000E+00
	 1.00000000E+00	 2.50000000E-01	 2.00000000E+00
	 7.50000000E-01	-1.49012000E-08	 2.00000000E+00
	 5.00000000E-01	-1.49012000E-08	 1.50000000E+00
	 5.00000000E-01	 2.50000000E-01	 2.00000000E+00
	-7.45058000E-09	 5.00000000E-01	 2.00000000E+00
	-7.45058000E-09	 1.00000000E+00	 2.00000000E+00
	 2.50000000E-01	 5.00000000E-01	 2.00000000E+00
	 2.50000000E-01	 1.00000000E+00	 2.00000000E+00
	-7.45058000E-09	 5.00000000E-01	 1.50000000E+00
	-7.45058000E-09	 7.50000000E-01	 2.00000000E+00
	-7.45058000E-09	 1.00000000E+00	 1.50000000E+00
	-7.45058000E-09	-1.49012000E-08	 2.00000000E+00
	 2.50000000E-01	-1.49012000E-08	 2.00000000E+00
	-7.45058000E-09	-1.49012000E-08	 1.50000000E+00
	-7.45058000E-09	 2.50000000E-01	 2.00000000E+00
	 1.00000000E+00	 5.00000000E-01	 3.00000000E+00
	 1.00000000E+00	 1.00000000E+00	 3.00000000E+00
	 5.00000000E-01	 5.00000000E-01	 3.00000000E+00
	 5.00000000E-01	 1.00000000E+00	 3.00000000E+00
	 1.00000000E+00	 5.00000000E-01	 2.50000000E+00
	 1.00000000E+00	 7.50000000E-01	 3.00000000E+00
	 1.00000000E+00	 1.00000000E+00	 2.50000000E+00
	 7.50000000E-01	 5.00000000E-01	 3.00000000E+00
	 7.50000000E-01	 1.00000000E+00	 3.00000000E+00
	 5.00000000E-01	 5.00000000E-01	 2.50000000E+00
	 5.00000000E-01	 7.50000000E-01	 3.00000000E+00
	 5.00000000E-01	 1.00000000E+00	 2.50000000E+00
	 1.00000000E+00	-1.49012000E-08	 3.00000000E+00
	 5.00000000E-01	-1.49012000E-08	 3.00000000E+00
	 1.00000000E+00	-1.49012000E-08	 2.50000000E+00
	 1.00000000E+00	 2.50000000E-01	 3.00000000E+00
	 7.50000000E-01	-1.49012000E-08	 3.00000000E+00
	 5.00000000E-01	-1.49012000E-08	 2.50000000E+00
	 5.00000000E-01	 2.50000000E-01	 3.00000000E+00
	-7.45058000E-09	 5.00000000E-01	 3.00000000E+00
	-7.45058000E-09	 1.00000000E+00	 3.00000000E+00
	 2.50000000E-01	 5.00000000E-01	 3.00000000E+00
	 2.50000000E-01	 1.00000000E+00	 3.00000000E+00
	-7.45058000E-09	 5.00000000E-01	 2.50000000E+00
	-7.45058000E-09	 7.50000000E-01	 3.00000000E+00
	-7.45058000E-09	 1.00000000E+00	 2.50000000E+00
	-7.45058000E-09	-1.49012000E-08	 3.00000000E+00
	 2.50000000E-01	-1.49012000E-08	 3.00000000E+00
	-7.45058000E-09	-1.49012000E-08	 2.50000000E+00
	-7.45058000E-09	 2.50000000E-01	 3.00000000E+00
	 1.00000000E+00	 5.00000000E-01	 4.00000000E+00
	 1.00000000E+00	 1.00000000E+00	 4.00000000E+00
	 5.00000000E-01	 5.00000000E-01	 4.00000000E+00
	 5.00000000E-01	 1.00000000E+00	 4.00000000E+00
	 1.00000000E+00	 5.00000000E-01	 3.50000000E+00
	 1.00000000E+00	 7.50000000E-01	 4.00000000E+00
	 1.00000000E+00	 1.00000000E+00	 3.50000000E+00
	 7.50000000E-01	 5.00000000E-01	 4.00000000E+00
	 7.50000000E-01	 1.00000000E+00	 4.00000000E+00
	 5.00000000E-01	 5.00000000E-01	 3.50000000E+00
	 5.00000000E-01	 7.50000000E-01	 4.00000000E+00
	 5.00000000E-01	 1.00000000E+00	 3.50000000E+00
	 1.00000000E+00	-1.49012000E-08	 4.00000000E+00
	 5.00000000E-01	-1.49012000E-08	 4.00000000E+00
	 1.00000000E+00	-1.49012000E-08	 3.50000000E+00
	 1.00000000E+00	 2.50000000E-01	 4.00000000E+00
	 7.50000000E-01	-1.49012000E-08	 4.00000000E+00
	 5.00000000E-01	-1.49012000E-08	 3.50000000E+00
	 5.00000000E-01	 2.50000000E-01	 4.00000000E+00
	-7.45058000E-09	 5.00000000E-01	 4.00000000E+00
	-7.45058000E-09	 1.00000000E+00	 4.00000000E+00
	 2.50000000E-01	 5.00000000E-01	 4.00000000E+00
	 2.50000000E-01	 1.00000000E+00	 4.00000000E+00
	-7.45058000E-09	 5.00000000E-01	 3.50000000E+00
	-7.45058000E-09	 7.50000000E-01	 4.00000000E+00
	-7.45058000E-09	 1.00000000E+00	 3.50000000E+00
	-7.45058000E-09	-1.49012000E-08	 4.00000000E+00
	 2.50000000E-01	-1.49012000E-08	 4.00000000E+00
	-7.45058000E-09	-1.49012000E-08	 3.50000000E+00
	-7.45058000E-09	 2.50000000E-01	 4.00000000E+00
	 1.00000000E+00	 5.00000000E-01	 5.00000000E+00
	 1.00000000E+00	 1.00000000E+00	 5.00000000E+00
	 5.00000000E-01	 5.00000000E-01	 5.00000000E+00
	 5.00000000E-01	 1.00000000E+00	 5.00000000E+00
	 1.00000000E+00	 5.00000000E-01	 4.50000000E+00
	 1.00000000E+00	 7.50000000E-01	 5.00000000E+00
	 1.00000000E+00	 1.00000000E+00	 4.50000000E+00
	 7.50000000E-01	 5.00000000E-01	 5.00000000E+00
	 7.50000000E-01	 1.00000000E+00	 5.00000000E+00
	 5.00000000E-01	 5.00000000E-01	 4.50000000E+00
	 5.00000000E-01	 7.50000000E-01	 5.00000000E+00
	 5.00000000E-01	 1.00000000E+00	 4.50000000E+00
	 1.00000000E+00	-1.49012000E-08	 5.00000000E+00
	 5.00000000E-01	-1.49012000E-08	 5.00000000E+00
	 1.00000000E+00	-1.49012000E-08	 4.50000000E+00
	 1.00000000E+00	 2.50000000E-01	 5.00000000E+00
	 7.50000000E-01	-1.49012000E-08	 5.00000000E+00
	 5.00000000E-01	-1.49012000E-08	 4.50000000E+00
	 5.00000000E-01	 2.50000000E-01	 5.00000000E+00
	-7.45058000E-09	 5.00000000E-01	 5.00000000E+00
	-7.45058000E-09	 1.00000000E+00	 5.00000000E+00
	 2.50000000E-01	 5.00000000E-01	 5.00000000E+00
	 2.50000000E-01	 1.00000000E+00	 5.00000000E+00
	-7.45058000E-09	 5.00000000E-01	 4.50000000E+00
	-7.45058000E-09	 7.50000000E-01	 5.00000000E+00
	-7.45058000E-09	 1.00000000E+00	 4.50000000E+00
	-7.45058000E-09	-1.49012000E-08	 5.00000000E+00
	 2.50000000E-01	-1.49012000E-08	 5.00000000E+00
	-7.45058000E-09	-1.49012000E-08	 4.50000000E+00
	-7.45058000E-09	 2.50000000E-01	 5.00000000E+00
	 1.00000000E+00	 5.00000000E-01	 6.00000000E+00
	 1.00000000E+00	 1.00000000E+00	 6.00000000E+00
	 5.00000000E-01	 5.00000000E-01	 6.00000000E+00
	 5.00000000E-01	 1.00000000E+00	 6.00000000E+00
	 1.00000000E+00	 5.00000000E-01	 5.50000000E+00
	 1.00000000E+00	 7.50000000E-01	 6.00000000E+00
	 1.00000000E+00	 1.00000000E+00	 5.50000000E+00
	 7.50000000E-01	 5.00000000E-01	 6.00000000E+00
	 7.50000000E-01	 1.00000000E+00	 6.00000000E+00
	 5.00000000E-01	 5.00000000E-01	 5.50000000E+00
	 5.00000000E-01	 7.50000000E-01	 6.00000000E+00
	 5.00000000E-01	 1.00000000E+00	 5.50000000E+00
	 1.00000000E+00	-1.49012000E-08	 6.00000000E+00
	 5.00000000E-01	-1.49012000E-08	 6.00000000E+00
	 1.00000000E+00	-1.49012000E-08	 5.50000000E+00
	 1.00000000E+00	 2.50000000E-01	 6.00000000E+00
	 7.50000000E-01	-1.49012000E-08	 6.00000000E+00
	 5.00000000E-01	-1.49012000E-08	 5.50000000E+00
	 5.00000000E-01	 2.50000000E-01	 6.00000000E+00
	-7.45058000E-09	 5.00000000E-01	 6.00000000E+00
	-7.45058000E-09	 1.00000000E+00	 6.00000000E+00
	 2.50000000E-01	 5.00000000E-01	 6.00000000E+00
	 2.50000000E-01	 1.00000000E+00	 6.00000000E+00
	-7.45058000E-09	 5.00000000E-01	 5.50000000E+00
	-7.45058000E-09	 7.50000000E-01	 6.00000000E+00
	-7.45058000E-09	 1.00000000E+00	 5.50000000E+00
	-7.45058000E-09	-1.49012000E-08	 6.00000000E+00
	 2.50000000E-01	-1.49012000E-08	 6.00000000E+00
	-7.45058000E-09	-1.49012000E-08	 5.50000000E+00
	-7.45058000E-09	 2.50000000E-01	 6.00000000E+00
	 1.00000000E+00	 5.00000000E-01	 7.00000000E+00
[...]
POINT_DATA 522
FIELD U 1
	U 3 522 double
		 0.00000000E+00	 0.00000000E+00	 0.00000000E+00
		 0.00000000E+00	 0.00000000E+00	 0.00000000E+00
		 2.80081000E-05	 2.21430000E-03	 7.34415000E-05
		 1.18773000E-03	 2.40564000E-03	-3.24718000E-03
		 0.00000000E+00	 0.00000000E+00	 0.00000000E+00
		 0.00000000E+00	 0.00000000E+00	 0.00000000E+00
		 6.07405000E-06	 3.19947000E-03	 4.70159000E-05
		 6.93038000E-04	 3.41723000E-03	-3.26356000E-03
		 0.00000000E+00	 0.00000000E+00	 0.00000000E+00
		-2.00274000E-05	 1.59918000E-04	 2.35998000E-05
		 5.84962000E-04	 2.23061000E-03	-1.66167000E-03
		 8.16282000E-04	 4.22617000E-04	-1.51981000E-03
		 0.00000000E+00	 0.00000000E+00	 0.00000000E+00
		 0.00000000E+00	 0.00000000E+00	 0.00000000E+00
		 1.19834000E-05	 2.79112000E-03	 5.54737000E-05
		 9.37632000E-04	 3.00732000E-03	-3.20096000E-03
		 0.00000000E+00	 0.00000000E+00	 0.00000000E+00
		-8.49596000E-07	 7.28672000E-04	 3.84061000E-05
		 3.36794000E-04	 3.22145000E-03	-1.61790000E-03
		 3.25651000E-04	 1.02029000E-03	-1.51179000E-03
		 0.00000000E+00	 0.00000000E+00	 0.00000000E+00
		-1.25374000E-03	 2.45313000E-03	 3.35003000E-03
		 0.00000000E+00	 0.00000000E+00	 0.00000000E+00
		-6.70011000E-04	 3.47978000E-03	 3.36494000E-03
		 0.00000000E+00	 0.00000000E+00	 0.00000000E+00
		-8.57020000E-04	 4.56843000E-04	 1.60181000E-03
		-5.82286000E-04	 2.26592000E-03	 1.77159000E-03
		 0.00000000E+00	 0.00000000E+00	 0.00000000E+00
		-9.48681000E-04	 3.06153000E-03	 3.29034000E-03
		 0.00000000E+00	 0.00000000E+00	 0.00000000E+00
		-3.28392000E-04	 1.01689000E-03	 1.55559000E-03
		-3.42808000E-04	 3.25302000E-03	 1.69736000E-03
		 0.00000000E+00	 0.00000000E+00	 0.00000000E+00
		 0.00000000E+00	 0.00000000E+00	 0.00000000E+00
		-4.46204000E-05	 3.68699000E-03	 7.84830000E-05
		 2.48860000E-04	 3.88446000E-03	-3.24902000E-03
		 0.00000000E+00	 0.00000000E+00	 0.00000000E+00
		 0.00000000E+00	 0.00000000E+00	 0.00000000E+00
		-1.40755000E-05	 3.51303000E-03	 4.98154000E-05
		 4.71209000E-04	 3.70712000E-03	-3.31396000E-03
		 0.00000000E+00	 0.00000000E+00	 0.00000000E+00
		-7.24841000E-06	 8.39999000E-04	 4.10584000E-05
		 9.56498000E-05	 3.69537000E-03	-1.54262000E-03
		-1.82714000E-04	 1.08516000E-03	-1.55319000E-03
		 0.00000000E+00	 0.00000000E+00	 0.00000000E+00
		-2.40180000E-04	 3.90720000E-03	 3.35226000E-03
		 0.00000000E+00	 0.00000000E+00	 0.00000000E+00
		-4.62360000E-04	 3.75289000E-03	 3.40546000E-03
		 0.00000000E+00	 0.00000000E+00	 0.00000000E+00
		 1.67836000E-04	 1.14314000E-03	 1.63769000E-03
		-1.08047000E-04	 3.71506000E-03	 1.64107000E-03
		-2.04151000E-05	 1.22128000E-02	-1.65168000E-05
		 1.33414000E-03	 1.25337000E-02	-6.86349000E-03
		-5.67752000E-05	 1.33837000E-02	-1.14018000E-04
		 8.58872000E-04	 1.35471000E-02	-6.88113000E-03
		 1.69032000E-05	 6.28889000E-03	 2.89626000E-05
		 6.72242000E-04	 1.23176000E-02	-3.40189000E-03
		 1.38347000E-03	 6.50925000E-03	-5.03767000E-03
		-2.52552000E-05	 1.28867000E-02	-5.07782000E-05
		 1.09007000E-03	 1.30856000E-02	-6.90425000E-03
		-7.53584000E-06	 7.40048000E-03	-1.49249000E-05
		 4.01183000E-04	 1.33956000E-02	-3.46940000E-03
		 8.47800000E-04	 7.66022000E-03	-5.06030000E-03
		-1.45553000E-03	 1.24873000E-02	 6.79342000E-03
		-8.97478000E-04	 1.36754000E-02	 6.72188000E-03
		-1.39736000E-03	 6.57074000E-03	 5.10740000E-03
		-7.46524000E-04	 1.22797000E-02	 3.33572000E-03
		-1.18585000E-03	 1.31717000E-02	 6.78940000E-03
		-8.28485000E-04	 7.67434000E-03	 5.05048000E-03
		-4.73303000E-04	 1.34866000E-02	 3.30174000E-03
		-6.80466000E-05	 1.39713000E-02	-1.24672000E-04
		 3.46693000E-04	 1.42595000E-02	-6.93410000E-03
		-7.21130000E-05	 1.37584000E-02	-1.11794000E-04
		 6.03499000E-04	 1.39593000E-02	-6.89776000E-03
		-3.29852000E-05	 7.97434000E-03	 3.83461000E-06
		 1.24965000E-04	 1.40677000E-02	-3.52624000E-03
		 3.43213000E-04	 8.28429000E-03	-5.09601000E-03
		-2.99178000E-04	 1.41730000E-02	 6.70990000E-03
		-5.84870000E-04	 1.40182000E-02	 6.70569000E-03
		-3.26357000E-04	 8.26999000E-03	 5.02380000E-03
		-2.06503000E-04	 1.39955000E-02	 3.30727000E-03
		-5.48672000E-05	 2.98191000E-02	-1.54572000E-04
		 1.06999000E-03	 2.98912000E-02	-9.90483000E-03
		-3.56559000E-05	 3.07737000E-02	-2.40223000E-04
		 7.21493000E-04	 3.07811000E-02	-9.91417000E-03
		-2.58965000E-05	 2.03527000E-02	-8.81825000E-05
		 5.33753000E-04	 2.98024000E-02	-4.97526000E-03
		 1.13128000E-03	 2.05243000E-02	-8.54466000E-03
		-5.43883000E-05	 3.03341000E-02	-2.15691000E-04
		 9.07799000E-04	 3.03658000E-02	-9.88912000E-03
		-3.76817000E-05	 2.13039000E-02	-1.62597000E-04
		 3.54988000E-04	 3.07510000E-02	-5.00143000E-03
		 7.48540000E-04	 2.14471000E-02	-8.56988000E-03
		-1.05547000E-03	 3.01693000E-02	 9.47737000E-03
		-7.78769000E-04	 3.09912000E-02	 9.51128000E-03
		-1.20832000E-03	 2.06771000E-02	 8.30888000E-03
		-5.87735000E-04	 2.99454000E-02	 4.60094000E-03
		-9.19653000E-04	 3.05799000E-02	 9.47991000E-03
		-8.17647000E-04	 2.15900000E-02	 8.29443000E-03
		-4.21436000E-04	 3.08373000E-02	 4.57624000E-03
		-3.31919000E-05	 3.13272000E-02	-2.38021000E-04
		 3.46584000E-04	 3.13911000E-02	-9.95933000E-03
		-2.82100000E-05	 3.10934000E-02	-2.29949000E-04
		 5.28586000E-04	 3.11403000E-02	-9.98807000E-03
		-3.72018000E-05	 2.19061000E-02	-1.86699000E-04
		 1.66857000E-04	 3.13106000E-02	-5.00897000E-03
		 3.34077000E-04	 2.20272000E-02	-8.54481000E-03
		-4.75224000E-04	 3.15676000E-02	 9.40272000E-03
		-6.39369000E-04	 3.13232000E-02	 9.49738000E-03
		-3.65022000E-04	 2.21658000E-02	 8.23577000E-03
		-2.53413000E-04	 3.14175000E-02	 4.47156000E-03
		-6.66381000E-05	 5.09951000E-02	-4.36376000E-04
		 1.24316000E-03	 5.09193000E-02	-1.13048000E-02
		-9.39582000E-05	 5.23072000E-02	-4.24771000E-04
		 1.24426000E-03	 5.22412000E-02	-1.13417000E-02
		-7.73342000E-05	 4.01370000E-02	-2.88135000E-04
		 6.00080000E-04	 5.09371000E-02	-5.85254000E-03
		 1.11938000E-03	 4.01559000E-02	-1.07771000E-02
		-8.26685000E-05	 5.16526000E-02	-4.08435000E-04
		 1.24780000E-03	 5.15555000E-02	-1.13164000E-02
		-5.97388000E-05	 4.12285000E-02	-3.25812000E-04
		 5.64861000E-04	 5.22698000E-02	-5.85623000E-03
		 9.65122000E-04	 4.12154000E-02	-1.08367000E-02
		-1.43206000E-03	 5.11522000E-02	 1.04898000E-02
		-1.38044000E-03	 5.24833000E-02	 1.04673000E-02
		-1.21829000E-03	 4.03922000E-02	 1.02170000E-02
		-7.79643000E-04	 5.10644000E-02	 5.02178000E-03
		-1.40623000E-03	 5.17785000E-02	 1.04515000E-02
		-1.10642000E-03	 4.14742000E-02	 1.01641000E-02
		-7.19774000E-04	 5.23822000E-02	 4.99579000E-03
		-6.03026000E-05	 5.35736000E-02	-4.51308000E-04
		 1.26459000E-03	 5.36066000E-02	-1.13386000E-02
		-7.79198000E-05	 5.29458000E-02	-4.30441000E-04
		 1.24883000E-03	 5.28841000E-02	-1.13977000E-02
		-5.20557000E-05	 4.22107000E-02	-3.55887000E-04
		 5.62523000E-04	 5.35710000E-02	-5.82020000E-03
		 8.25493000E-04	 4.22124000E-02	-1.08100000E-02
		-1.29512000E-03	 5.38086000E-02	 1.04586000E-02
		-1.33816000E-03	 5.31298000E-02	 1.05075000E-02
		-9.29473000E-04	 4.24301000E-02	 1.01154000E-02
		-6.80449000E-04	 5.36709000E-02	 4.92832000E-03
		-1.23753000E-04	 7.28929000E-02	-5.90662000E-04
		 1.62458000E-03	 7.27335000E-02	-1.17249000E-02
		-1.37703000E-04	 7.46421000E-02	-6.02321000E-04
		 1.59130000E-03	 7.45053000E-02	-1.18040000E-02
		-1.16902000E-04	 6.18561000E-02	-5.14766000E-04
		 7.31101000E-04	 7.28213000E-02	-6.17560000E-03
		 1.46967000E-03	 6.17668000E-02	-1.15353000E-02
		-1.17965000E-04	 7.37739000E-02	-6.02821000E-04
		 1.59581000E-03	 7.36625000E-02	-1.17602000E-02
		-1.09684000E-04	 6.34267000E-02	-5.30012000E-04
		 7.23498000E-04	 7.45635000E-02	-6.19412000E-03
		 1.45420000E-03	 6.32824000E-02	-1.15965000E-02
		-1.91524000E-03	 7.29484000E-02	 1.05426000E-02
		-1.84326000E-03	 7.47877000E-02	 1.05136000E-02
		-1.66163000E-03	 6.20387000E-02	 1.05700000E-02
		-9.93731000E-04	 7.29183000E-02	 4.98770000E-03
		-1.87948000E-03	 7.39195000E-02	 1.05258000E-02
		-1.64502000E-03	 6.35647000E-02	 1.05517000E-02
		-9.75233000E-04	 7.47171000E-02	 4.93719000E-03
		-1.19000000E-04	 7.63581000E-02	-6.83273000E-04
		 1.62881000E-03	 7.61953000E-02	-1.18427000E-02
		-1.34141000E-04	 7.54874000E-02	-6.58100000E-04
		 1.61333000E-03	 7.53735000E-02	-1.18293000E-02
		-8.14745000E-05	 6.49483000E-02	-5.73400000E-04
		 7.47719000E-04	 7.62773000E-02	-6.24706000E-03
		 1.43741000E-03	 6.48923000E-02	-1.16630000E-02
		-1.83943000E-03	 7.64747000E-02	 1.04380000E-02
		-1.82529000E-03	 7.56288000E-02	 1.04717000E-02
		-1.61718000E-03	 6.51105000E-02	 1.05238000E-02
		-9.55474000E-04	 7.64071000E-02	 4.87561000E-03
		-1.31909000E-04	 9.58935000E-02	-7.88607000E-04
		 1.07626000E-03	 9.57839000E-02	-1.19513000E-02
		-1.00101000E-04	 9.70630000E-02	-9.25025000E-04
		 1.06992000E-03	 9.69764000E-02	-1.19727000E-02
		-1.16491000E-04	 8.43295000E-02	-6.76458000E-04
		 4.62317000E-04	 9.58531000E-02	-6.28129000E-03
		 1.44693000E-03	 8.41550000E-02	-1.18838000E-02
		-1.20036000E-04	 9.64967000E-02	-8.77343000E-04
		 1.07056000E-03	 9.63738000E-02	-1.19985000E-02
		-1.01288000E-04	 8.58613000E-02	-7.59651000E-04
		 4.86333000E-04	 9.70292000E-02	-6.42920000E-03
		 1.41545000E-03	 8.57345000E-02	-1.19493000E-02
		-1.33041000E-03	 9.60168000E-02	 1.03129000E-02
		-1.32000000E-03	 9.72494000E-02	 1.02135000E-02
		-1.66528000E-03	 8.44494000E-02	 1.04540000E-02
		-7.02513000E-04	 9.59660000E-02	 4.65448000E-03
		-1.32898000E-03	 9.66000000E-02	 1.03172000E-02
		-1.61521000E-03	 8.59716000E-02	 1.04038000E-02
		-7.30467000E-04	 9.71655000E-02	 4.64044000E-03
		-1.23127000E-04	 9.83931000E-02	-9.74305000E-04
		 1.17024000E-03	 9.82042000E-02	-1.21083000E-02
		-1.14207000E-04	 9.77179000E-02	-9.42292000E-04
		 1.12179000E-03	 9.75516000E-02	-1.19638000E-02
		-1.08941000E-04	 8.73570000E-02	-8.03461000E-04
		 5.21199000E-04	 9.83166000E-02	-6.57587000E-03
		 1.42857000E-03	 8.72392000E-02	-1.20152000E-02
		-1.39460000E-03	 9.84082000E-02	 1.01098000E-02
		-1.36102000E-03	 9.78158000E-02	 1.01412000E-02
		-1.63919000E-03	 8.74788000E-02	 1.03381000E-02
		-7.65675000E-04	 9.84084000E-02	 4.55661000E-03
		-1.27366000E-04	 1.18381000E-01	-1.19186000E-03
		 1.98758000E-04	 1.18278000E-01	-1.15726000E-02
		-1.37721000E-04	 1.18747000E-01	-1.12050000E-03
		 3.25510000E-04	 1.18554000E-01	-1.15811000E-02
		-1.59642000E-04	 1.07298000E-01	-1.00806000E-03
		 6.62991000E-05	 1.18346000E-01	-6.33319000E-03
		 5.85007000E-04	 1.07183000E-01	-1.18171000E-02
		-1.38575000E-04	 1.18515000E-01	-1.14353000E-03
		 2.70160000E-04	 1.18348000E-01	-1.16527000E-02
		-1.68859000E-04	 1.08138000E-01	-1.01901000E-03
		 8.58761000E-05	 1.18673000E-01	-6.36208000E-03
		 7.01593000E-04	 1.07972000E-01	-1.18072000E-02
		-3.74091000E-04	 1.18356000E-01	 9.16538000E-03
		-6.12238000E-04	 1.18790000E-01	 9.25930000E-03
		-9.24294000E-04	 1.07406000E-01	 9.75384000E-03
		-2.99570000E-04	 1.18374000E-01	 4.02005000E-03
		-4.78827000E-04	 1.18555000E-01	 9.26506000E-03
		-1.05820000E-03	 1.08188000E-01	 9.79583000E-03
		-3.67558000E-04	 1.18776000E-01	 4.03403000E-03
		-1.60384000E-04	 1.19355000E-01	-1.11610000E-03
		 4.05687000E-04	 1.19156000E-01	-1.14540000E-02
		-1.34467000E-04	 1.19025000E-01	-1.12530000E-03
		 3.49610000E-04	 1.18829000E-01	-1.14811000E-02
		-1.90629000E-04	 1.09096000E-01	-1.06412000E-03
		 1.27933000E-04	 1.19182000E-01	-6.33879000E-03
		 8.25950000E-04	 1.08930000E-01	-1.18224000E-02
		-8.65533000E-04	 1.19362000E-01	 9.20459000E-03
		-7.50352000E-04	 1.19065000E-01	 9.13349000E-03
		-1.18109000E-03	 1.09201000E-01	 9.71310000E-03
		-4.92963000E-04	 1.19375000E-01	 4.14042000E-03
		-1.48766000E-05	 1.38773000E-01	-1.37437000E-03
		 7.89571000E-05	 1.38874000E-01	-1.17236000E-02
		-2.96553000E-04	 1.38788000E-01	-1.43648000E-03
		 6.29886000E-05	 1.38404000E-01	-1.10456000E-02
		-1.58847000E-04	 1.28677000E-01	-1.28934000E-03
		 6.91819000E-05	 1.38832000E-01	-6.54548000E-03
		-7.66305000E-05	 1.28575000E-01	-1.14627000E-02
		-1.06746000E-04	 1.38801000E-01	-1.39172000E-03
		 3.71558000E-05	 1.38653000E-01	-1.13810000E-02
		-1.84100000E-04	 1.28885000E-01	-1.25075000E-03
		-3.39986000E-05	 1.38496000E-01	-6.30818000E-03
		 4.25872000E-05	 1.28732000E-01	-1.13044000E-02
		-4.35093000E-04	 1.38919000E-01	 8.82449000E-03
		-4.24093000E-04	 1.39088000E-01	 8.60700000E-03
		-3.31448000E-04	 1.28730000E-01	 8.95398000E-03
		-1.88924000E-04	 1.38838000E-01	 3.64317000E-03
		-4.60800000E-04	 1.39041000E-01	 8.77115000E-03
		-3.37649000E-04	 1.28938000E-01	 8.80499000E-03
		-3.78243000E-04	 1.38967000E-01	 3.62379000E-03
		-4.54307000E-04	 1.38629000E-01	-1.39359000E-03
		 2.68685000E-04	 1.37582000E-01	-1.06914000E-02
		-4.27307000E-04	 1.38605000E-01	-1.37744000E-03
		 2.40492000E-04	 1.37907000E-01	-1.09029000E-02
		-1.88809000E-04	 1.29125000E-01	-1.29433000E-03
		-1.17793000E-04	 1.38478000E-01	-6.19747000E-03
		 1.97895000E-04	 1.28890000E-01	-1.10861000E-02
		-4.07612000E-04	 1.38104000E-01	 7.91023000E-03
		-3.97196000E-04	 1.38733000E-01	 8.35534000E-03
		-2.41007000E-04	 1.29003000E-01	 8.55098000E-03
		-6.11094000E-04	 1.38370000E-01	 3.33276000E-03
		 0.00000000E+00	 0.00000000E+00	 0.00000000E+00
		 0.00000000E+00	 0.00000000E+00	 0.00000000E+00
		 5.78068000E-06	-5.39879000E-03	 1.95882000E-04
		-4.15804000E-03	-6.14776000E-03	 8.70780000E-03
		 0.00000000E+00	 0.00000000E+00	 0.00000000E+00
		 0.00000000E+00	 0.00000000E+00	 0.00000000E+00
		-6.49668000E-06	-9.01225000E-03	 1.25539000E-04
		-2.94959000E-03	-9.69314000E-03	 8.79547000E-03
		 0.00000000E+00	 0.00000000E+00	 0.00000000E+00
		 3.43973000E-06	-2.21629000E-04	 1.05021000E-04
		-2.07235000E-03	-5.58921000E-03	 4.68831000E-03
		-2.69210000E-03	-1.05424000E-03	 4.30614000E-03
		 0.00000000E+00	 0.00000000E+00	 0.00000000E+00
		 0.00000000E+00	 0.00000000E+00	 0.00000000E+00
		-4.96312000E-06	-7.40542000E-03	 1.36719000E-04
		-3.53701000E-03	-8.11413000E-03	 8.48524000E-03
		 0.00000000E+00	 0.00000000E+00	 0.00000000E+00
		 6.23784000E-06	-2.22648000E-03	 8.70279000E-05
		-1.48407000E-03	-9.12975000E-03	 4.40490000E-03
		-1.37816000E-03	-3.05664000E-03	 4.18096000E-03
		 0.00000000E+00	 0.00000000E+00	 0.00000000E+00
		 4.25440000E-03	-5.75624000E-03	-8.54820000E-03
		 0.00000000E+00	 0.00000000E+00	 0.00000000E+00
		 3.06457000E-03	-9.55585000E-03	-8.59191000E-03
		 0.00000000E+00	 0.00000000E+00	 0.00000000E+00
		 2.72247000E-03	-8.59464000E-04	-4.21106000E-03
		 2.03806000E-03	-5.37661000E-03	-4.41224000E-03
		 0.00000000E+00	 0.00000000E+00	 0.00000000E+00
		 3.64568000E-03	-7.92515000E-03	-8.26090000E-03
		 0.00000000E+00	 0.00000000E+00	 0.00000000E+00
		 1.44475000E-03	-2.92100000E-03	-4.04929000E-03
		 1.52724000E-03	-9.07029000E-03	-4.19995000E-03
		 0.00000000E+00	 0.00000000E+00	 0.00000000E+00
		 0.00000000E+00	 0.00000000E+00	 0.00000000E+00
		-5.03559000E-05	-1.14446000E-02	 1.18183000E-04
		-1.76092000E-03	-1.20025000E-02	 8.67208000E-03
		 0.00000000E+00	 0.00000000E+00	 0.00000000E+00
		 0.00000000E+00	 0.00000000E+00	 0.00000000E+00
		-2.40796000E-05	-1.04186000E-02	 9.68566000E-05
		-2.37286000E-03	-1.10318000E-02	 9.00725000E-03
		 0.00000000E+00	 0.00000000E+00	 0.00000000E+00
		 2.91349000E-05	-3.07003000E-03	 1.11278000E-04
		-8.85718000E-04	-1.15112000E-02	 4.03823000E-03
		-1.06594000E-05	-3.77932000E-03	 4.33897000E-03
		 0.00000000E+00	 0.00000000E+00	 0.00000000E+00
		 1.95863000E-03	-1.19019000E-02	-8.59869000E-03
		 0.00000000E+00	 0.00000000E+00	 0.00000000E+00
		 2.51074000E-03	-1.08776000E-02	-8.86860000E-03
		 0.00000000E+00	 0.00000000E+00	 0.00000000E+00
		 1.07057000E-04	-3.70900000E-03	-4.22283000E-03
		 9.38927000E-04	-1.14703000E-02	-3.92391000E-03
		 1.07305000E-05	-2.90197000E-02	 6.50089000E-05
		-6.58391000E-03	-2.98754000E-02	 1.67008000E-02
		 3.00672000E-05	-3.50055000E-02	-2.48253000E-04
		-5.27653000E-03	-3.59687000E-02	 1.64369000E-02
		 6.28150000E-06	-1.50969000E-02	 1.43670000E-04
		-3.29205000E-03	-2.93181000E-02	 8.43207000E-03
		-5.47369000E-03	-1.59641000E-02	 1.28750000E-02
		 4.72639000E-05	-3.21719000E-02	-8.01403000E-05
		-5.93502000E-03	-3.30451000E-02	 1.64741000E-02
		 1.65168000E-05	-2.00149000E-02	-2.61300000E-05
		-2.60629000E-03	-3.53748000E-02	 8.09436000E-03
		-4.20932000E-03	-2.08392000E-02	 1.27572000E-02
		 6.50208000E-03	-2.92766000E-02	-1.66291000E-02
		 5.47114000E-03	-3.51028000E-02	-1.68602000E-02
		 5.66527000E-03	-1.53536000E-02	-1.26355000E-02
		 3.27782000E-03	-2.90203000E-02	-8.34434000E-03
		 5.97684000E-03	-3.23164000E-02	-1.66934000E-02
		 4.38524000E-03	-2.04289000E-02	-1.27931000E-02
		 2.74422000E-03	-3.49092000E-02	-8.48123000E-03
		-6.60482000E-05	-3.98351000E-02	-3.60637000E-04
		-3.97488000E-03	-4.05248000E-02	 1.63293000E-02
		-2.78052000E-05	-3.75430000E-02	-3.07842000E-04
		-4.61405000E-03	-3.84662000E-02	 1.65084000E-02
		 4.59411000E-05	-2.36841000E-02	-3.89550000E-05
		-2.08419000E-03	-4.00304000E-02	 7.82033000E-03
		-2.98922000E-03	-2.44421000E-02	 1.26926000E-02
		 4.48607000E-03	-4.01362000E-02	-1.70935000E-02
		 4.97831000E-03	-3.77269000E-02	-1.71042000E-02
		 3.25589000E-03	-2.42322000E-02	-1.29038000E-02
		 2.17724000E-03	-3.98617000E-02	-8.59326000E-03
		-5.35808000E-05	-6.88325000E-02	-4.69294000E-04
		-7.90272000E-03	-6.98679000E-02	 2.27014000E-02
		 9.57006000E-05	-7.63860000E-02	-9.30814000E-04
		-7.00516000E-03	-7.74993000E-02	 2.24522000E-02
		 1.30958000E-06	-4.72584000E-02	-1.49589000E-04
		-3.99230000E-03	-6.92385000E-02	 1.11059000E-02
		-7.22639000E-03	-4.83135000E-02	 2.00640000E-02
		 2.62186000E-05	-7.27270000E-02	-7.16974000E-04
		-7.46611000E-03	-7.37702000E-02	 2.24371000E-02
		 5.03483000E-05	-5.39796000E-02	-5.31208000E-04
		-3.50745000E-03	-7.68545000E-02	 1.06399000E-02
		-6.17667000E-03	-5.49786000E-02	 1.97781000E-02
		 7.96547000E-03	-6.85415000E-02	-2.38451000E-02
		 7.26255000E-03	-7.60241000E-02	-2.42419000E-02
		 7.20013000E-03	-4.72949000E-02	-2.04731000E-02
		 3.98607000E-03	-6.85765000E-02	-1.21781000E-02
		 7.61640000E-03	-7.24080000E-02	-2.38833000E-02
		 6.36709000E-03	-5.39685000E-02	-2.07830000E-02
		 3.67533000E-03	-7.61174000E-02	-1.24596000E-02
		 8.62359000E-05	-8.30531000E-02	-1.25325000E-03
		-6.12482000E-03	-8.41585000E-02	 2.19898000E-02
		 9.08224000E-05	-7.98642000E-02	-1.09804000E-03
		-6.56642000E-03	-8.08277000E-02	 2.23832000E-02
		 1.09217000E-04	-5.97879000E-02	-7.23318000E-04
		-3.00038000E-03	-8.35030000E-02	 1.00697000E-02
		-5.11652000E-03	-6.07097000E-02	 1.94783000E-02
		 6.50067000E-03	-8.29376000E-02	-2.46657000E-02
		 6.88156000E-03	-7.96046000E-02	-2.46645000E-02
		 5.41231000E-03	-5.98225000E-02	-2.09904000E-02
		 3.28159000E-03	-8.29201000E-02	-1.26587000E-02
		-2.14182000E-04	-1.19119000E-01	-1.65805000E-03
		-9.50462000E-03	-1.19963000E-01	 2.50959000E-02
		-5.12795000E-05	-1.28546000E-01	-2.11667000E-03
		-9.38365000E-03	-1.29851000E-01	 2.46147000E-02
		-5.97368000E-05	-9.31104000E-02	-1.00329000E-03
		-4.93664000E-03	-1.19511000E-01	 1.17945000E-02
		-8.74842000E-03	-9.42350000E-02	 2.43640000E-02
		-1.48653000E-04	-1.23805000E-01	-1.87036000E-03
		-9.42848000E-03	-1.24766000E-01	 2.47601000E-02
		 1.04110000E-05	-1.01638000E-01	-1.51369000E-03
		-4.53878000E-03	-1.29125000E-01	 1.11864000E-02
		-8.29573000E-03	-1.02625000E-01	 2.39665000E-02
		 9.27722000E-03	-1.18376000E-01	-2.83629000E-02
		 9.19700000E-03	-1.27788000E-01	-2.88882000E-02
		 8.74675000E-03	-9.25719000E-02	-2.64517000E-02
		 4.48342000E-03	-1.18711000E-01	-1.49994000E-02
		 9.25030000E-03	-1.23124000E-01	-2.85567000E-02
		 8.28884000E-03	-1.01150000E-01	-2.69531000E-02
		 4.55724000E-03	-1.28126000E-01	-1.54641000E-02
		-3.96380000E-05	-1.37749000E-01	-2.68559000E-03
		-8.86807000E-03	-1.39567000E-01	 2.40946000E-02
		-2.31645000E-05	-1.33140000E-01	-2.38211000E-03
		-9.13494000E-03	-1.35236000E-01	 2.44914000E-02
		 7.16631000E-05	-1.09713000E-01	-2.08978000E-03
		-4.57682000E-03	-1.38588000E-01	 1.04892000E-02
		-7.59255000E-03	-1.10524000E-01	 2.34806000E-02
		 9.13468000E-03	-1.36930000E-01	-2.93746000E-02