# vtk DataFile Version 3.0

ASCII
DATASET UNSTRUCTURED_GRID

POINTS 522 double
	 1.00000000E+00	 1.00000000E+00	-5.96046000E-08
	 1.00000000E+00	 5.00000000E-01	-5.96046000E-08
	 1.00000000E+00	 5.00000000E-01	 1.00000000E+00
	 1.00000000E+00	 1.00000000E+00	 1.00000000E+00
	 5.00000000E-01	 1.00000000E+00	-5.96046000E-08
	 5.00000000E-01	 5.00000000E-01	-5.96046000E-08
	 5.00000000E-01	 5.00000000E-01	 1.00000000E+00
	 5.00000000E-01	 1.00000000E+00	 1.00000000E+00
	 1.00000000E+00	 7.50000000E-01	-5.96046000E-08
	 1.00000000E+00	 5.00000000E-01	 5.00000000E-01
	 1.00000000E+00	 7.50000000E-01	 1.00000000E+00
	 1.00000000E+00	 1.00000000E+00	 5.00000000E-01
	 7.50000000E-01	 1.00000000E+00	-5.96046000E-08
	 7.50000000E-01	 5.00000000E-01	-5.96046000E-08
	 7.50000000E-01	 5.00000000E-01	 1.00000000E+00
	 7.50000000E-01	 1.00000000E+00	 1.00000000E+00
	 5.00000000E-01	 7.50000000E-01	-5.96046000E-08
	 5.00000000E-01	 5.00000000E-01	 5.00000000E-01
	 5.00000000E-01	 7.50000000E-01	 1.00000000E+00
	 5.00000000E-01	 1.00000000E+00	 5.00000000E-01
	 1.00000000E+00	-1.49012000E-08	-5.96046000E-08
	 1.00000000E+00	-1.49012000E-08	 1.00000000E+00
	 5.00000000E-01	-1.49012000E-08	-5.96046000E-08
	 5.00000000E-01	-1.49012000E-08	 1.00000000E+00
	 1.00000000E+00	 2.50000000E-01	-5.96046000E-08
	 1.00000000E+00	-1.49012000E-08	 5.00000000E-01
	 1.00000000E+00	 2.50000000E-01	 1.00000000E+00
	 7.50000000E-01	-1.49012000E-08	-5.96046000E-08
	 7.50000000E-01	-1.49012000E-08	 1.00000000E+00
	 5.00000000E-01	 2.50000000E-01	-5.96046000E-08
	 5.00000000E-01	-1.49012000E-08	 5.00000000E-01
	 5.00000000E-01	 2.50000000E-01	 1.00000000E+00
	-7.45058000E-09	 1.00000000E+00	-5.96046000E-08
	-7.45058000E-09	 5.00000000E-01	-5.96046000E-08
	-7.45058000E-09	 5.00000000E-01	 1.00000000E+00
	-7.45058000E-09	 1.00000000E+00	 1.00000000E+00
	 2.50000000E-01	 1.00000000E+00	-5.96046000E-08
	 2.50000000E-01	 5.00000000E-01	-5.96046000E-08
	 2.50000000E-01	 5.00000000E-01	 1.00000000E+00
	 2.50000000E-01	 1.00000000E+00	 1.00000000E+00
	-7.45058000E-09	 7.50000000E-01	-5.96046000E-08
	-7.45058000E-09	 5.00000000E-01	 5.00000000E-01
	-7.45058000E-09	 7.50000000E-01	 1.00000000E+00
	-7.45058000E-09	 1.00000000E+00	 5.00000000E-01
	-7.45058000E-09	-1.49012000E-08	-5.96046000E-08
	-7.45058000E-09	-1.49012000E-08	 1.00000000E+00
	 2.50000000E-01	-1.49012000E-08	-5.96046000E-08
	 2.50000000E-01	-1.49012000E-08	 1.00000000E+00
	-7.45058000E-09	 2.50000000E-01	-5.96046000E-08
	-7.45058000E-09	-1.49012000E-08	 5.00000000E-01
	-7.45058000E-09	 2.50000000E-01	 1.00000000E+00
	 1.00000000E+00	 5.00000000E-01	 2.00000000E+00
	 1.00000000E+00	 1.00000000E+00	 2.00000000E+00
	 5.00000000E-01	 5.00000000E-01	 2.00000000E+00
	 5.00000000E-01	 1.00000000E+00	 2.00000000E+00
	 1.00000000E+00	 5.00000000E-01	 1.50000000E+00
	 1.00000000E+00	 7.50000000E-01	 2.00000000E+00
	 1.00000000E+00	 1.00000000E+00	 1.50000000E+00
	 7.50000000E-01	 5.00000000E-01	 2.00000000E+00
	 7.50000000E-01	 1.00000000E+00	 2.00000000E+00
	 5.00000000E-01	 5.00000000E-01	 1.50000000E+00
	 5.00000000E-01	 7.50000000E-01	 2.00000000E+00
	 5.00000000E-01	 1.00000000E+00	 1.50000000E+00
	 1.00000000E+00	-1.49012000E-08	 2.00000000E+00
	 5.00000000E-01	-1.49012000E-08	 2.00000000E+00
	 1.00000000E+00	-1.49012000E-08	 1.50000000E+00
	 1.00000000E+00	 2.50000000E-01	 2.00000000E+00
	 7.50000000E-01	-1.49012000E-08	 2.00000000E+00
	 5.00000000E-01	-1.49012000E-08	 1.50000000E+00
	 5.00000000E-01	 2.50000000E-01	 2.00000000E+00
	-7.45058000E-09	 5.00000000E-01	 2.00000000E+00
	-7.45058000E-09	 1.00000000E+00	 2.00000000E+00
	 2.50000000E-01	 5.00000000E-01	 2.00000000E+00
	 2.50000000E-01	 1.00000000E+00	 2.00000000E+00
	-7.45058000E-09	 5.00000000E-01	 1.50000000E+00
	-7.45058000E-09	 7.50000000E-01	 2.00000000E+00
	-7.45058000E-09	 1.00000000E+00	 1.50000000E+00
	-7.45058000E-09	-1.49012000E-08	 2.00000000E+00
	 2.50000000E-01	-1.49012000E-08	 2.00000000E+00
	-7.45058000E-09	-1.49012000E-08	 1.50000000E+00
	-7.45058000E-09	 2.50000000E-01	 2.00000000E+00
	 1.00000000E+00	 5.00000000E-01	 3.00000000E+00
	 1.00000000E+00	 1.00000000E+00	 3.00000000E+00
	 5.00000000E-01	 5.00000000E-01	 3.00000000E+00
	 5.00000000E-01	 1.00000000E+00	 3.00000000E+00
	 1.00000000E+00	 5.00000000E-01	 2.50000000E+00
	 1.00000000E+00	 7.50000000E-01	 3.00000000E+00
	 1.00000000E+00	 1.00000000E+00	 2.50000000E+00
	 7.50000000E-01	 5.00000000E-01	 3.00000000E+00
	 7.50000000E-01	 1.00000000E+00	 3.00000000E+00
	 5.00000000E-01	 5.00000000E-01	 2.50000000E+00
	 5.00000000E-01	 7.50000000E-01	 3.00000000E+00
	 5.00000000E-01	 1.00000000E+00	 2.50000000E+00
	 1.00000000E+00	-1.49012000E-08	 3.00000000E+00
	 5.00000000E-01	-1.49012000E-08	 3.00000000E+00
	 1.00000000E+00	-1.49012000E-08	 2.50000000E+00
	 1.00000000E+00	 2.50000000E-01	 3.00000000E+00
	 7.50000000E-01	-1.49012000E-08	 3.00000000E+00
	 5.00000000E-01	-1.49012000E-08	 2.50000000E+00
	 5.00000000E-01	 2.50000000E-01	 3.00000000E+00
	-7.45058000E-09	 5.00000000E-01	 3.00000000E+00
	-7.45058000E-09	 1.00000000E+00	 3.00000000E+00
	 2.50000000E-01	 5.00000000E-01	 3.00000000E+00
	 2.50000000E-01	 1.00000000E+00	 3.00000000E+00
	-7.45058000E-09	 5.00000000E-01	 2.50000000E+00
	-7.45058000E-09	 7.50000000E-01	 3.00000000E+00
	-7.45058000E-09	 1.00000000E+00	 2.50000000E+00
	-7.45058000E-09	-1.49012000E-08	 3.00000000E+00
	 2.50000000E-01	-1.49012000E-08	 3.00000000E+00
	-7.45058000E-09	-1.49012000E-08	 2.50000000E+00
	-7.45058000E-09	 2.50000000E-01	 3.00000000E+00
	 1.00000000E+00	 5.00000000E-01	 4.00000000E+00
	 1.00000000E+00	 1.00000000E+00	 4.00000000E+00
	 5.00000000E-01	 5.00000000E-01	 4.00000000E+00
	 5.00000000E-01	 1.00000000E+00	 4.00000000E+00
	 1.00000000E+00	 5.00000000E-01	 3.50000000E+00
	 1.00000000E+00	 7.50000000E-01	 4.00000000E+00
	 1.00000000E+00	 1.00000000E+00	 3.50000000E+00
	 7.50000000E-01	 5.00000000E-01	 4.00000000E+00
	 7.50000000E-01	 1.00000000E+00	 4.00000000E+00
	 5.00000000E-01	 5.00000000E-01	 3.50000000E+00
	 5.00000000E-01	 7.50000000E-01	 4.00000000E+00
	 5.00000000E-01	 1.00000000E+00	 3.50000000E+00
	 1.00000000E+00	-1.49012000E-08	 4.00000000E+00
	 5.00000000E-01	-1.49012000E-08	 4.00000000E+00
	 1.00000000E+00	-1.49012000E-08	 3.50000000E+00
	 1.00000000E+00	 2.50000000E-01	 4.00000000E+00
	 7.50000000E-01	-1.49012000E-08	 4.00000000E+00
	 5.00000000E-01	-1.49012000E-08	 3.50000000E+00
	 5.00000000E-01	 2.50000000E-01	 4.00000000E+00
	-7.45058000E-09	 5.00000000E-01	 4.00000000E+00
	-7.45058000E-09	 1.00000000E+00	 4.00000000E+00
	 2.50000000E-01	 5.00000000E-01	 4.00000000E+00
	 2.50000000E-01	 1.00000000E+00	 4.00000000E+00
	-7.45058000E-09	 5.00000000E-01	 3.50000000E+00
	-7.45058000E-09	 7.50000000E-01	 4.00000000E+00
	-7.45058000E-09	 1.00000000E+00	 3.50000000E+00
	-7.45058000E-09	-1.49012000E-08	 4.00000000E+00
	 2.50000000E-01	-1.49012000E-08	 4.00000000E+00
	-7.45058000E-09	-1.49012000E-08	 3.50000000E+00
	-7.45058000E-09	 2.50000000E-01	 4.00000000E+00
	 1.00000000E+00	 5.00000000E-01	 5.00000000E+00
	 1.00000000E+00	 1.00000000E+00	 5.00000000E+00
	 5.00000000E-01	 5.00000000E-01	 5.00000000E+00
	 5.00000000E-01	 1.00000000E+00	 5.00000000E+00
	 1.00000000E+00	 5.00000000E-01	 4.50000000E+00
	 1.00000000E+00	 7.50000000E-01	 5.00000000E+00
	 1.00000000E+00	 1.00000000E+00	 4.50000000E+00
	 7.50000000E-01	 5.00000000E-01	 5.00000000E+00
	 7.50000000E-01	 1.00000000E+00	 5.00000000E+00
	 5.00000000E-01	 5.00000000E-01	 4.50000000E+00
	 5.00000000E-01	 7.50000000E-01	 5.00000000E+00
	 5.00000000E-01	 1.00000000E+00	 4.50000000E+00
	 1.00000000E+00	-1.49012000E-08	 5.00000000E+00
	 5.00000000E-01	-1.49012000E-08	 5.00000000E+00
	 1.00000000E+00	-1.49012000E-08	 4.50000000E+00
	 1.00000000E+00	 2.50000000E-01	 5.00000000E+00
	 7.50000000E-01	-1.49012000E-08	 5.00000000E+00
	 5.00000000E-01	-1.49012000E-08	 4.50000000E+00
	 5.00000000E-01	 2.50000000E-01	 5.00000000E+00
	-7.45058000E-09	 5.00000000E-01	 5.00000000E+00
	-7.45058000E-09	 1.00000000E+00	 5.00000000E+00
	 2.50000000E-01	 5.00000000E-01	 5.00000000E+00
	 2.50000000E-01	 1.00000000E+00	 5.00000000E+00
	-7.45058000E-09	 5.00000000E-01	 4.50000000E+00
	-7.45058000E-09	 7.50000000E-01	 5.00000000E+00
	-7.45058000E-09	 1.00000000E+00	 4.50000000E+00
	-7.45058000E-09	-1.49012000E-08	 5.00000000E+00
	 2.50000000E-01	-1.49012000E-08	 5.00000000E+00
	-7.45058000E-09	-1.49012000E-08	 4.50000000E+00
	-7.45058000E-09	 2.50000000E-01	 5.00000000E+00
	 1.00000000E+00	 5.00000000E-01	 6.00000000E+00
	 1.00000000E+00	 1.00000000E+00	 6.00000000E+00
	 5.00000000E-01	 5.00000000E-01	 6.00000000E+00
	 5.00000000E-01	 1.00000000E+00	 6.00000000E+00
	 1.00000000E+00	 5.00000000E-01	 5.50000000E+00
	 1.00000000E+00	 7.50000000E-01	 6.00000000E+00
	 1.00000000E+00	 1.00000000E+00	 5.50000000E+00
	 7.50000000E-01	 5.00000000E-01	 6.00000000E+00
	 7.50000000E-01	 1.00000000E+00	 6.00000000E+00
	 5.00000000E-01	 5.00000000E-01	 5.50000000E+00
	 5.00000000E-01	 7.50000000E-01	 6.00000000E+00
	 5.00000000E-01	 1.00000000E+00	 5.50000000E+00
	 1.00000000E+00	-1.49012000E-08	 6.00000000E+00
	 5.00000000E-01	-1.49012000E-08	 6.00000000E+00
	 1.00000000E+00	-1.49012000E-08	 5.50000000E+00
	 1.00000000E+00	 2.50000000E-01	 6.00000000E+00
	 7.50000000E-01	-1.49012000E-08	 6.00000000E+00
	 5.00000000E-01	-1.49012000E-08	 5.50000000E+00
	 5.00000000E-01	 2.50000000E-01	 6.00000000E+00
	-7.45058000E-09	 5.00000000E-01	 6.00000000E+00
	-7.45058000E-09	 1.00000000E+00	 6.00000000E+00
	 2.50000000E-01	 5.00000000E-01	 6.00000000E+00
	 2.50000000E-01	 1.00000000E+00	 6.00000000E+00
	-7.45058000E-09	 5.00000000E-01	 5.50000000E+00
	-7.45058000E-09	 7.50000000E-01	 6.00000000E+00
	-7.45058000E-09	 1.00000000E+00	 5.50000000E+00
	-7.45058000E-09	-1.49012000E-08	 6.00000000E+00
	 2.50000000E-01	-1.49012000E-08	 6.00000000E+00
	-7.45058000E-09	-1.49012000E-08	 5.50000000E+00
	-7.45058000E-09	 2.50000000E-01	 6.00000000E+00
	 1.00000000E+00	 5.00000000E-01	 7.00000000E+00
[...]
POINT_DATA 522
FIELD U 1
	U 3 522 double
		 0.00000000E+00	 0.00000000E+00	 0.00000000E+00
		 0.00000000E+00	 0.00000000E+00	 0.00000000E+00
		-7.55973000E-06	 1.79054000E-03	 9.81788000E-05
		-5.63898000E-05	 1.87296000E-03	-1.31859000E-03
		 0.00000000E+00	 0.00000000E+00	 0.00000000E+00
		 0.00000000E+00	 0.00000000E+00	 0.00000000E+00
		 8.18416000E-06	 1.58532000E-03	 8.39156000E-05
		-2.63966000E-04	 1.71976000E-03	-1.36599000E-03
		 0.00000000E+00	 0.00000000E+00	 0.00000000E+00
		 1.75848000E-06	 5.08868000E-04	 4.47211000E-05
		-4.17128000E-05	 1.80159000E-03	-5.91108000E-04
		 9.94241000E-05	 6.14509000E-04	-6.61000000E-04
		 0.00000000E+00	 0.00000000E+00	 0.00000000E+00
		 0.00000000E+00	 0.00000000E+00	 0.00000000E+00
		 1.12303000E-05	 1.71189000E-03	 7.57446000E-05
		-1.71920000E-04	 1.80711000E-03	-1.37707000E-03
		 0.00000000E+00	 0.00000000E+00	 0.00000000E+00
		 5.22125000E-06	 4.59591000E-04	 3.97356000E-05
		-1.19878000E-04	 1.60452000E-03	-6.53989000E-04
		-1.16960000E-04	 5.89135000E-04	-6.37035000E-04
		 0.00000000E+00	 0.00000000E+00	 0.00000000E+00
		 9.72978000E-05	 1.84511000E-03	 1.44025000E-03
		 0.00000000E+00	 0.00000000E+00	 0.00000000E+00
		 2.67401000E-04	 1.71962000E-03	 1.48207000E-03
		 0.00000000E+00	 0.00000000E+00	 0.00000000E+00
		-8.54545000E-05	 6.22197000E-04	 7.57491000E-04
		 5.11019000E-05	 1.76638000E-03	 7.13094000E-04
		 0.00000000E+00	 0.00000000E+00	 0.00000000E+00
		 1.72689000E-04	 1.82805000E-03	 1.49923000E-03
		 0.00000000E+00	 0.00000000E+00	 0.00000000E+00
		 1.68844000E-04	 5.66775000E-04	 7.25533000E-04
		 1.32653000E-04	 1.62652000E-03	 7.82365000E-04
		 0.00000000E+00	 0.00000000E+00	 0.00000000E+00
		 0.00000000E+00	 0.00000000E+00	 0.00000000E+00
		-2.34555000E-05	 1.26355000E-03	 3.79861000E-05
		-4.20977000E-04	 1.36334000E-03	-1.30154000E-03
		 0.00000000E+00	 0.00000000E+00	 0.00000000E+00
		 0.00000000E+00	 0.00000000E+00	 0.00000000E+00
		-1.09006000E-05	 1.45261000E-03	 6.42446000E-05
		-3.38252000E-04	 1.53623000E-03	-1.32958000E-03
		 0.00000000E+00	 0.00000000E+00	 0.00000000E+00
		 2.24936000E-05	 2.17648000E-04	-2.43094000E-06
		-2.25832000E-04	 1.28180000E-03	-6.52896000E-04
		-3.15256000E-04	 3.48645000E-04	-6.71656000E-04
		 0.00000000E+00	 0.00000000E+00	 0.00000000E+00
		 4.59682000E-04	 1.37114000E-03	 1.46992000E-03
		 0.00000000E+00	 0.00000000E+00	 0.00000000E+00
		 3.66768000E-04	 1.56551000E-03	 1.43283000E-03
		 0.00000000E+00	 0.00000000E+00	 0.00000000E+00
		 3.67762000E-04	 3.83636000E-04	 7.41594000E-04
		 2.32742000E-04	 1.27457000E-03	 7.98170000E-04
		 2.78367000E-05	 6.13443000E-03	-3.20562000E-05
		-2.73022000E-04	 6.22138000E-03	-2.96627000E-03
		 1.50337000E-05	 5.68358000E-03	 2.90376000E-05
		-5.46752000E-04	 5.84567000E-03	-2.94446000E-03
		 1.48224000E-05	 3.56562000E-03	 5.44646000E-05
		-1.08455000E-04	 6.15347000E-03	-1.49753000E-03
		-2.23376000E-04	 3.74217000E-03	-2.10205000E-03
		 1.60470000E-05	 5.94502000E-03	 1.29526000E-05
		-4.08981000E-04	 6.05556000E-03	-2.97107000E-03
		 1.00856000E-06	 3.26904000E-03	 6.01771000E-05
		-2.73259000E-04	 5.73211000E-03	-1.47746000E-03
		-4.33141000E-04	 3.39509000E-03	-2.06623000E-03
		 2.97785000E-04	 6.21780000E-03	 2.98118000E-03
		 5.76720000E-04	 5.82811000E-03	 2.99581000E-03
		 1.95612000E-04	 3.71493000E-03	 2.16957000E-03
		 1.41166000E-04	 6.14552000E-03	 1.48841000E-03
		 4.41227000E-04	 6.03757000E-03	 2.99111000E-03
		 3.99584000E-04	 3.36419000E-03	 2.16443000E-03
		 3.08809000E-04	 5.72824000E-03	 1.51093000E-03
		-1.85766000E-05	 4.99784000E-03	 5.13339000E-05
		-8.14252000E-04	 5.17926000E-03	-2.97929000E-03
		-1.29921000E-05	 5.38800000E-03	 5.26203000E-05
		-6.78972000E-04	 5.54232000E-03	-2.93234000E-03
		-1.96543000E-05	 2.70532000E-03	 5.27595000E-05
		-4.04764000E-04	 5.06590000E-03	-1.49609000E-03
		-6.52261000E-04	 2.84785000E-03	-2.09034000E-03
		 8.44564000E-04	 5.11055000E-03	 2.96595000E-03
		 7.18409000E-04	 5.52121000E-03	 2.96458000E-03
		 6.35438000E-04	 2.83555000E-03	 2.20685000E-03
		 4.21168000E-04	 5.01934000E-03	 1.51541000E-03
		-5.11793000E-05	 1.40484000E-02	-7.61308000E-05
		-4.20352000E-04	 1.40103000E-02	-4.68283000E-03
		-3.05687000E-05	 1.33972000E-02	-5.98563000E-05
		-8.23628000E-04	 1.34570000E-02	-4.65693000E-03
		 1.76446000E-05	 9.61034000E-03	-6.43019000E-05
		-2.68558000E-04	 1.39963000E-02	-2.31351000E-03
		-3.68403000E-04	 9.70577000E-03	-3.84615000E-03
		-4.96518000E-05	 1.37728000E-02	-6.27205000E-05
		-6.14224000E-04	 1.38051000E-02	-4.67293000E-03
		 6.48558000E-07	 9.11295000E-03	-4.46099000E-05
		-4.06889000E-04	 1.34167000E-02	-2.31576000E-03
		-6.32645000E-04	 9.20769000E-03	-3.82837000E-03
		 5.78575000E-04	 1.42895000E-02	 4.50322000E-03
		 7.82220000E-04	 1.35123000E-02	 4.54803000E-03
		 4.58742000E-04	 9.79294000E-03	 3.78041000E-03
		 2.41486000E-04	 1.41585000E-02	 2.19137000E-03
		 6.79528000E-04	 1.39206000E-02	 4.51831000E-03
		 6.36791000E-04	 9.23730000E-03	 3.82581000E-03
		 3.56487000E-04	 1.34149000E-02	 2.23350000E-03
		 4.47507000E-05	 1.25361000E-02	-4.16088000E-05
		-1.10021000E-03	 1.24202000E-02	-4.57702000E-03
		 2.73358000E-05	 1.29767000E-02	-4.96490000E-05
		-9.69365000E-04	 1.30251000E-02	-4.61337000E-03
		-9.06687000E-06	 8.36327000E-03	-8.64006000E-06
		-4.98389000E-04	 1.24436000E-02	-2.31178000E-03
		-9.22603000E-04	 8.42933000E-03	-3.79907000E-03
		 8.49432000E-04	 1.26901000E-02	 4.59407000E-03
		 8.03096000E-04	 1.31236000E-02	 4.58069000E-03
		 8.74318000E-04	 8.46979000E-03	 3.82152000E-03
		 4.40172000E-04	 1.26010000E-02	 2.22667000E-03
		-3.50253000E-05	 2.48036000E-02	-2.15195000E-05
		-8.15429000E-04	 2.49433000E-02	-5.53123000E-03
		-1.87049000E-05	 2.40795000E-02	-7.29363000E-05
		-7.65437000E-04	 2.41173000E-02	-5.55390000E-03
		-1.51963000E-05	 1.92105000E-02	-2.42499000E-05
		-3.96722000E-04	 2.48706000E-02	-2.77991000E-03
		-6.45697000E-04	 1.92572000E-02	-5.20715000E-03
		-1.93759000E-05	 2.44320000E-02	-7.12988000E-05
		-7.97817000E-04	 2.44997000E-02	-5.55063000E-03
		-1.18590000E-05	 1.85109000E-02	-4.66088000E-05
		-3.97671000E-04	 2.40801000E-02	-2.79292000E-03
		-7.68085000E-04	 1.85537000E-02	-5.26296000E-03
		 6.07331000E-04	 2.47558000E-02	 5.42039000E-03
		 7.20941000E-04	 2.41112000E-02	 5.45472000E-03
		 5.79543000E-04	 1.93108000E-02	 5.08312000E-03
		 3.15218000E-04	 2.47591000E-02	 2.65610000E-03
		 6.71894000E-04	 2.44614000E-02	 5.44312000E-03
		 7.76880000E-04	 1.85936000E-02	 5.11116000E-03
		 3.51469000E-04	 2.41006000E-02	 2.65798000E-03
		-2.49943000E-05	 2.33076000E-02	-7.83561000E-05
		-7.41354000E-04	 2.34248000E-02	-5.62323000E-03
		-3.38442000E-05	 2.37067000E-02	-8.42203000E-05
		-7.49339000E-04	 2.37048000E-02	-5.59815000E-03
		 3.62437000E-07	 1.76811000E-02	-4.43775000E-06
		-4.34904000E-04	 2.33580000E-02	-2.81625000E-03
		-8.70496000E-04	 1.77291000E-02	-5.19680000E-03
		 8.35234000E-04	 2.32920000E-02	 5.37029000E-03
		 7.91413000E-04	 2.36928000E-02	 5.40571000E-03
		 8.83269000E-04	 1.78081000E-02	 5.08140000E-03
		 4.22704000E-04	 2.32660000E-02	 2.62240000E-03
		-2.82155000E-05	 3.65750000E-02	-2.48721000E-04
		-1.13729000E-03	 3.64821000E-02	-6.00938000E-03
		-1.35743000E-05	 3.53996000E-02	-2.68671000E-04
		-1.24558000E-03	 3.54050000E-02	-6.02885000E-03
		-5.31626000E-06	 3.06252000E-02	-1.64771000E-04
		-6.04666000E-04	 3.65103000E-02	-3.05602000E-03
		-9.15736000E-04	 3.06020000E-02	-5.80730000E-03
		-3.89416000E-05	 3.60050000E-02	-2.38640000E-04
		-1.17800000E-03	 3.59768000E-02	-6.06889000E-03
		-2.95973000E-05	 2.96876000E-02	-1.67029000E-04
		-6.40460000E-04	 3.54129000E-02	-3.13891000E-03
		-9.83879000E-04	 2.96801000E-02	-5.79447000E-03
		 1.23790000E-03	 3.67875000E-02	 5.55876000E-03
		 1.18456000E-03	 3.54744000E-02	 5.51719000E-03
		 8.52077000E-04	 3.06519000E-02	 5.52146000E-03
		 5.84474000E-04	 3.66799000E-02	 2.59076000E-03
		 1.21537000E-03	 3.61201000E-02	 5.61894000E-03
		 8.80194000E-04	 2.97444000E-02	 5.48636000E-03
		 5.89788000E-04	 3.54122000E-02	 2.65748000E-03
		-2.87973000E-05	 3.41954000E-02	-2.24240000E-04
		-1.38630000E-03	 3.40350000E-02	-5.97698000E-03
		-6.88500000E-06	 3.47914000E-02	-2.37677000E-04
		-1.32385000E-03	 3.47681000E-02	-5.91396000E-03
		-6.23515000E-05	 2.87458000E-02	-1.84319000E-04
		-6.86582000E-04	 3.40913000E-02	-3.17687000E-03
		-9.92742000E-04	 2.88016000E-02	-5.82220000E-03
		 1.13625000E-03	 3.43012000E-02	 5.58317000E-03
		 1.14789000E-03	 3.48754000E-02	 5.49123000E-03
		 8.61828000E-04	 2.88556000E-02	 5.50569000E-03
		 5.79429000E-04	 3.42602000E-02	 2.78214000E-03
		-7.36501000E-05	 4.91253000E-02	-2.28475000E-04
		-1.78723000E-03	 4.91672000E-02	-6.52246000E-03
		-8.98291000E-05	 4.74421000E-02	-1.37302000E-04
		-1.83034000E-03	 4.74692000E-02	-6.44820000E-03
		-8.49255000E-05	 4.27591000E-02	-2.00942000E-04
		-9.03940000E-04	 4.91318000E-02	-3.37848000E-03
		-1.53962000E-03	 4.28079000E-02	-6.23733000E-03
		-6.68895000E-05	 4.82964000E-02	-1.93515000E-04
		-1.80935000E-03	 4.83065000E-02	-6.52645000E-03
		-4.70169000E-05	 4.12750000E-02	-2.07651000E-04
		-9.43254000E-04	 4.74383000E-02	-3.31186000E-03
		-1.59082000E-03	 4.12305000E-02	-6.21873000E-03
		 1.56050000E-03	 4.92324000E-02	 6.11310000E-03
		 1.69327000E-03	 4.76027000E-02	 6.11784000E-03
		 1.46004000E-03	 4.29521000E-02	 5.79840000E-03
		 6.96500000E-04	 4.91547000E-02	 2.94180000E-03
		 1.60846000E-03	 4.83473000E-02	 6.12415000E-03
		 1.47731000E-03	 4.13884000E-02	 5.80510000E-03
		 7.92467000E-04	 4.75287000E-02	 2.96809000E-03
		-5.59484000E-05	 4.56526000E-02	-1.58742000E-04
		-1.90663000E-03	 4.56015000E-02	-6.43059000E-03
		-9.09174000E-05	 4.65752000E-02	-1.52558000E-04
		-1.84923000E-03	 4.65919000E-02	-6.48589000E-03
		-1.63214000E-05	 3.97067000E-02	-1.80644000E-04
		-9.17793000E-04	 4.56382000E-02	-3.29491000E-03
		-1.74412000E-03	 3.96170000E-02	-6.20481000E-03
		 1.88622000E-03	 4.56148000E-02	 6.19569000E-03
		 1.78687000E-03	 4.66571000E-02	 6.16166000E-03
		 1.63833000E-03	 3.97522000E-02	 5.83045000E-03
		 8.50324000E-04	 4.56191000E-02	 2.98343000E-03
		-6.89828000E-05	 6.19768000E-02	-2.88782000E-04
		-1.20615000E-03	 6.18453000E-02	-7.03854000E-03
		-1.09011000E-04	 6.08485000E-02	-3.68841000E-04
		-1.12622000E-03	 6.08807000E-02	-7.08860000E-03
		-9.84311000E-05	 5.54960000E-02	-2.86604000E-04
		-5.93589000E-04	 6.19131000E-02	-3.68990000E-03
		-1.50277000E-03	 5.55460000E-02	-6.84713000E-03
		-9.32039000E-05	 6.14153000E-02	-3.25698000E-04
		-1.16588000E-03	 6.12881000E-02	-6.99375000E-03
		-7.69510000E-05	 5.40744000E-02	-2.46433000E-04
		-6.40331000E-04	 6.08647000E-02	-3.68084000E-03
		-1.51214000E-03	 5.40935000E-02	-6.81799000E-03
		 8.59591000E-04	 6.19706000E-02	 6.48203000E-03
		 9.39194000E-04	 6.09657000E-02	 6.37770000E-03
		 1.42433000E-03	 5.56618000E-02	 6.36261000E-03
		 3.99263000E-04	 6.19554000E-02	 3.18219000E-03
		 9.01698000E-04	 6.14991000E-02	 6.32079000E-03
		 1.36928000E-03	 5.41123000E-02	 6.30850000E-03
		 4.33799000E-04	 6.08896000E-02	 3.01267000E-03
		-1.33643000E-04	 5.99081000E-02	-2.91532000E-04
		-1.05281000E-03	 5.98208000E-02	-7.06688000E-03
		-1.07235000E-04	 6.03725000E-02	-3.26933000E-04
		-1.08360000E-03	 6.03322000E-02	-7.20041000E-03
		-6.33283000E-05	 5.26086000E-02	-2.28840000E-04
		-6.33425000E-04	 5.98564000E-02	-3.51847000E-03
		-1.65375000E-03	 5.25546000E-02	-6.80518000E-03
		 1.01499000E-03	 5.98503000E-02	 6.43227000E-03
		 9.74540000E-04	 6.04274000E-02	 6.50948000E-03
		 1.46077000E-03	 5.26522000E-02	 6.41547000E-03
		 4.41153000E-04	 5.98739000E-02	 2.93871000E-03
		 3.99862000E-04	 7.49063000E-02	-7.56663000E-04
		-2.77162000E-04	 7.41752000E-02	-6.86925000E-03
		-1.81930000E-04	 7.42848000E-02	-3.68955000E-04
		-5.50936000E-04	 7.37702000E-02	-6.66046000E-03
		-1.30882000E-04	 6.83206000E-02	-4.87586000E-04
		 4.20677000E-05	 7.45389000E-02	-3.98475000E-03
		-8.44689000E-04	 6.84683000E-02	-6.96586000E-03
		 1.24642000E-04	 7.46129000E-02	-4.54483000E-04
		-4.51284000E-04	 7.40588000E-02	-6.73823000E-03
		-8.91208000E-05	 6.76418000E-02	-3.46208000E-04
		-3.38429000E-04	 7.40146000E-02	-3.62238000E-03
		-7.80312000E-04	 6.75254000E-02	-6.95859000E-03
		 1.63087000E-04	 7.52380000E-02	 6.64972000E-03
		 4.18204000E-04	 7.48550000E-02	 6.65334000E-03
		 3.61488000E-04	 6.81841000E-02	 6.52139000E-03
		 4.23967000E-04	 7.50884000E-02	 2.83340000E-03
		 2.93869000E-04	 7.51492000E-02	 6.69203000E-03
		 6.06263000E-04	 6.76914000E-02	 6.45570000E-03
		 6.48391000E-05	 7.46159000E-02	 3.07368000E-03
		-6.58869000E-04	 7.38777000E-02	-7.07438000E-04
		-4.96173000E-04	 7.36586000E-02	-7.01737000E-03
		-4.61875000E-04	 7.40766000E-02	-4.69800000E-04
		-5.34420000E-04	 7.35854000E-02	-6.75382000E-03
		-7.74874000E-05	 6.68889000E-02	-4.69816000E-04
		-6.96589000E-04	 7.37736000E-02	-3.99502000E-03
		-5.33899000E-04	 6.71430000E-02	-7.05698000E-03
		 4.54328000E-04	 7.38959000E-02	 6.31938000E-03
		 4.67177000E-04	 7.43681000E-02	 6.45560000E-03
		 6.49871000E-04	 6.69000000E-02	 6.36998000E-03
		-1.38053000E-04	 7.38726000E-02	 2.83748000E-03
		 0.00000000E+00	 0.00000000E+00	 0.00000000E+00
		 0.00000000E+00	 0.00000000E+00	 0.00000000E+00
		-8.91321000E-05	-5.42358000E-03	 2.86780000E-04
		-7.88112000E-04	-5.59312000E-03	 4.39178000E-03
		 0.00000000E+00	 0.00000000E+00	 0.00000000E+00
		 0.00000000E+00	 0.00000000E+00	 0.00000000E+00
		-9.35689000E-05	-5.83749000E-03	 1.50023000E-04
		-3.44188000E-04	-6.21539000E-03	 4.36248000E-03
		 0.00000000E+00	 0.00000000E+00	 0.00000000E+00
		-2.52767000E-05	-1.50145000E-03	 1.07858000E-04
		-4.35217000E-04	-5.40263000E-03	 2.22838000E-03
		-7.83621000E-04	-1.89900000E-03	 2.46995000E-03
		 0.00000000E+00	 0.00000000E+00	 0.00000000E+00
		 0.00000000E+00	 0.00000000E+00	 0.00000000E+00
		-7.08412000E-05	-5.69290000E-03	 2.14986000E-04
		-5.74182000E-04	-5.97119000E-03	 4.38405000E-03
		 0.00000000E+00	 0.00000000E+00	 0.00000000E+00
		-1.72707000E-05	-1.86905000E-03	 7.55280000E-05
		-2.16139000E-04	-5.95630000E-03	 2.17484000E-03
		-1.08599000E-04	-2.24108000E-03	 2.31441000E-03
		 0.00000000E+00	 0.00000000E+00	 0.00000000E+00
		 5.37522000E-04	-5.50441000E-03	-3.87426000E-03
		 0.00000000E+00	 0.00000000E+00	 0.00000000E+00
		 1.09103000E-04	-5.99624000E-03	-4.06689000E-03
		 0.00000000E+00	 0.00000000E+00	 0.00000000E+00
		 6.94351000E-04	-1.80147000E-03	-2.13300000E-03
		 2.10736000E-04	-5.38339000E-03	-1.68485000E-03
		 0.00000000E+00	 0.00000000E+00	 0.00000000E+00
		 3.06422000E-04	-5.80545000E-03	-4.01301000E-03
		 0.00000000E+00	 0.00000000E+00	 0.00000000E+00
		 1.21125000E-04	-2.18696000E-03	-2.14826000E-03
		 9.25160000E-06	-5.79914000E-03	-1.86218000E-03
		 0.00000000E+00	 0.00000000E+00	 0.00000000E+00
		 0.00000000E+00	 0.00000000E+00	 0.00000000E+00
		-1.63385000E-04	-5.94970000E-03	 1.11998000E-04
		 4.63390000E-05	-6.30140000E-03	 4.27511000E-03
		 0.00000000E+00	 0.00000000E+00	 0.00000000E+00
		 0.00000000E+00	 0.00000000E+00	 0.00000000E+00
		-1.45108000E-04	-5.95372000E-03	 1.45542000E-04
		-1.32985000E-04	-6.30188000E-03	 4.34817000E-03
		 0.00000000E+00	 0.00000000E+00	 0.00000000E+00
		 1.26099000E-05	-1.72777000E-03	-1.05176000E-05
		-4.52169000E-05	-6.02036000E-03	 2.05851000E-03
		 5.14178000E-04	-2.12024000E-03	 2.39364000E-03
		 0.00000000E+00	 0.00000000E+00	 0.00000000E+00
		-1.68433000E-04	-6.07291000E-03	-4.02073000E-03
		 0.00000000E+00	 0.00000000E+00	 0.00000000E+00
		-1.83902000E-05	-6.07782000E-03	-4.07774000E-03
		 0.00000000E+00	 0.00000000E+00	 0.00000000E+00
		-4.75952000E-04	-2.06056000E-03	-2.26957000E-03
		-1.70301000E-04	-5.91983000E-03	-1.83919000E-03
		-3.39045000E-04	-1.67441000E-02	 4.23001000E-04
		-9.73393000E-04	-1.68634000E-02	 6.69153000E-03
		-2.78766000E-04	-1.72436000E-02	 3.05079000E-04
		-6.65761000E-04	-1.73422000E-02	 6.70319000E-03
		-1.80510000E-04	-1.05563000E-02	 3.53592000E-04
		-6.71347000E-04	-1.67904000E-02	 3.53360000E-03
		-8.66320000E-04	-1.08001000E-02	 5.73305000E-03
		-3.18411000E-04	-1.70043000E-02	 3.50020000E-04
		-8.14688000E-04	-1.71287000E-02	 6.70585000E-03
		-1.80665000E-04	-1.10505000E-02	 2.60095000E-04
		-4.62241000E-04	-1.72670000E-02	 3.44251000E-03
		-5.19969000E-04	-1.12791000E-02	 5.66251000E-03
		 3.98421000E-04	-1.67081000E-02	-5.98768000E-03
		 1.72121000E-04	-1.73989000E-02	-6.09675000E-03
		 3.82756000E-04	-1.07047000E-02	-5.10683000E-03
		 1.43700000E-05	-1.67122000E-02	-2.76929000E-03
		 2.91934000E-04	-1.70899000E-02	-6.01881000E-03
		 1.08864000E-04	-1.11411000E-02	-5.22120000E-03
		-5.25119000E-05	-1.73093000E-02	-2.84115000E-03
		-2.28564000E-04	-1.75203000E-02	 3.08068000E-04
		-3.74539000E-04	-1.77339000E-02	 6.55101000E-03
		-2.53961000E-04	-1.74477000E-02	 3.12928000E-04
		-5.12933000E-04	-1.75706000E-02	 6.66356000E-03
		-1.70086000E-04	-1.11610000E-02	 2.23727000E-04
		-2.56466000E-04	-1.75988000E-02	 3.35686000E-03
		-1.96367000E-04	-1.14806000E-02	 5.60537000E-03
		-3.28063000E-05	-1.76368000E-02	-6.16851000E-03
		 6.53801000E-05	-1.75267000E-02	-6.17826000E-03
		-1.92039000E-04	-1.13032000E-02	-5.24251000E-03
		-1.41171000E-04	-1.75660000E-02	-2.85824000E-03
		-5.99024000E-04	-3.10303000E-02	 4.01128000E-04
		-1.12095000E-03	-3.11350000E-02	 7.21861000E-03
		-4.77667000E-04	-3.17920000E-02	 4.21395000E-04
		-1.05248000E-03	-3.18202000E-02	 7.27527000E-03
		-3.93559000E-04	-2.37548000E-02	 4.28644000E-04
		-8.44716000E-04	-3.11094000E-02	 3.73945000E-03
		-1.07949000E-03	-2.38423000E-02	 7.21650000E-03
		-5.55572000E-04	-3.14323000E-02	 4.26902000E-04
		-1.08288000E-03	-3.14600000E-02	 7.20994000E-03
		-3.58930000E-04	-2.43934000E-02	 3.28936000E-04
		-8.05927000E-04	-3.18074000E-02	 3.77724000E-03
		-9.93628000E-04	-2.45416000E-02	 7.26853000E-03
		 1.99204000E-04	-3.07785000E-02	-6.25079000E-03
		 2.46827000E-04	-3.17069000E-02	-6.37791000E-03
		 2.57503000E-04	-2.37461000E-02	-6.36747000E-03
		-1.73455000E-04	-3.09074000E-02	-2.82547000E-03
		 2.27793000E-04	-3.12154000E-02	-6.29828000E-03
		 2.53450000E-04	-2.43233000E-02	-6.52519000E-03
		-9.58519000E-05	-3.17831000E-02	-2.88144000E-03
		-2.98441000E-04	-3.26621000E-02	 3.86143000E-04
		-1.39932000E-03	-3.28270000E-02	 7.16929000E-03
		-3.67643000E-04	-3.21848000E-02	 3.93555000E-04
		-1.23907000E-03	-3.21956000E-02	 7.29970000E-03
		-3.35096000E-04	-2.49947000E-02	 2.81512000E-04
		-8.53460000E-04	-3.27790000E-02	 3.57662000E-03
		-9.03314000E-04	-2.51093000E-02	 7.18936000E-03
		 4.50362000E-04	-3.22780000E-02	-6.46061000E-03
		 3.50412000E-04	-3.20154000E-02	-6.45768000E-03
		 2.65078000E-04	-2.49656000E-02	-6.56485000E-03
		 8.93485000E-05	-3.24766000E-02	-2.90345000E-03
		-6.91397000E-04	-4.35352000E-02	 7.14178000E-04
		-1.20381000E-03	-4.32707000E-02	 5.34955000E-03
		-5.82967000E-04	-4.46777000E-02	 6.40567000E-04
		-1.68342000E-03	-4.47510000E-02	 5.37695000E-03
		-4.99105000E-04	-3.79211000E-02	 5.88927000E-04
		-9.63456000E-04	-4.34556000E-02	 2.99495000E-03
		-1.22306000E-03	-3.78997000E-02	 6.54328000E-03
		-6.32749000E-04	-4.39973000E-02	 6.55277000E-04
		-1.43162000E-03	-4.38587000E-02	 5.34601000E-03
		-4.62727000E-04	-3.88028000E-02	 4.86838000E-04
		-1.01325000E-03	-4.47740000E-02	 2.96148000E-03
		-1.54800000E-03	-3.86836000E-02	 6.56560000E-03
		 1.43161000E-05	-4.34138000E-02	-3.98924000E-03
		 7.23020000E-04	-4.42693000E-02	-4.00791000E-03
		 3.07146000E-05	-3.78036000E-02	-5.40286000E-03
		-2.84402000E-04	-4.35232000E-02	-1.65068000E-03
		 3.80389000E-04	-4.37020000E-02	-3.99378000E-03
		 5.04202000E-04	-3.85834000E-02	-5.49914000E-03
		 3.87767000E-05	-4.45076000E-02	-1.66154000E-03
		-5.48807000E-04	-4.62750000E-02	 6.19544000E-04
		-2.08132000E-03	-4.66118000E-02	 5.28996000E-03
		-5.75810000E-04	-4.53856000E-02	 6.29685000E-04
		-1.87971000E-03	-4.61047000E-02	 5.34120000E-03
		-4.41407000E-04	-4.00856000E-02	 4.33563000E-04
		-1.41838000E-03	-4.64395000E-02	 2.90856000E-03
		-1.73297000E-03	-3.98549000E-02	 6.46752000E-03
		 1.24646000E-03	-4.57640000E-02	-4.12817000E-03