<?xml version="1.0"?>
<VTKFile type="UnstructuredGrid" version="0.1" byte_order="LittleEndian">
	<UnstructuredGrid>
		<Piece NumberOfPoints="522" NumberOfCells="64">
			<Points>
				<DataArray type="Float64" NumberOfComponents="3" format="ascii">
					 1.00000000E+00	 1.00000000E+00	-5.96046000E-08
					 1.00000000E+00	 5.00000000E-01	-5.96046000E-08
					 1.00000000E+00	 5.00000000E-01	 1.00000000E+00
					 1.00000000E+00	 1.00000000E+00	 1.00000000E+00
					 5.00000000E-01	 1.00000000E+00	-5.96046000E-08
					 5.00000000E-01	 5.00000000E-01	-5.96046000E-08
					 5.00000000E-01	 5.00000000E-01	 1.00000000E+00
					 5.00000000E-01	 1.00000000E+00	 1.00000000E+00
					 1.00000000E+00	 7.50000000E-01	-5.96046000E-08
					 1.00000000E+00	 5.00000000E-01	 5.00000000E-01
					 1.00000000E+00	 7.50000000E-01	 1.00000000E+00
					 1.00000000E+00	 1.00000000E+00	 5.00000000E-01
					 7.50000000E-01	 1.00000000E+00	-5.96046000E-08
					 7.50000000E-01	 5.00000000E-01	-5.96046000E-08
					 7.50000000E-01	 5.00000000E-01	 1.00000000E+00
					 7.50000000E-01	 1.00000000E+00	 1.00000000E+00
					 5.00000000E-01	 7.50000000E-01	-5.96046000E-08
					 5.00000000E-01	 5.00000000E-01	 5.00000000E-01
					 5.00000000E-01	 7.50000000E-01	 1.00000000E+00
					 5.00000000E-01	 1.00000000E+00	 5.00000000E-01
					 1.00000000E+00	-1.49012000E-08	-5.96046000E-08
					 1.00000000E+00	-1.49012000E-08	 1.00000000E+00
					 5.00000000E-01	-1.49012000E-08	-5.96046000E-08
					 5.00000000E-01	-1.49012000E-08	 1.00000000E+00
					 1.00000000E+00	 2.50000000E-01	-5.96046000E-08
					 1.00000000E+00	-1.49012000E-08	 5.00000000E-01
					 1.00000000E+00	 2.50000000E-01	 1.00000000E+00
					 7.50000000E-01	-1.49012000E-08	-5.96046000E-08
					 7.50000000E-01	-1.49012000E-08	 1.00000000E+00
					 5.00000000E-01	 2.50000000E-01	-5.96046000E-08
					 5.00000000E-01	-1.49012000E-08	 5.00000000E-01
					 5.00000000E-01	 2.50000000E-01	 1.00000000E+00
					-7.45058000E-09	 1.00000000E+00	-5.96046000E-08
					-7.45058000E-09	 5.00000000E-01	-5.96046000E-08
					-7.45058000E-09	 5.00000000E-01	 1.00000000E+00
					-7.45058000E-09	 1.00000000E+00	 1.00000000E+00
					 2.50000000E-01	 1.00000000E+00	-5.96046000E-08
					 2.50000000E-01	 5.00000000E-01	-5.96046000E-08
					 2.50000000E-01	 5.00000000E-01	 1.00000000E+00
					 2.50000000E-01	 1.00000000E+00	 1.00000000E+00
					-7.45058000E-09	 7.50000000E-01	-5.96046000E-08
					-7.45058000E-09	 5.00000000E-01	 5.00000000E-01
					-7.45058000E-09	 7.50000000E-01	 1.00000000E+00
					-7.45058000E-09	 1.00000000E+00	 5.00000000E-01
					-7.45058000E-09	-1.49012000E-08	-5.96046000E-08
					-7.45058000E-09	-1.49012000E-08	 1.00000000E+00
					 2.50000000E-01	-1.49012000E-08	-5.96046000E-08
					 2.50000000E-01	-1.49012000E-08	 1.00000000E+00
					-7.45058000E-09	 2.50000000E-01	-5.96046000E-08
					-7.45058000E-09	-1.49012000E-08	 5.00000000E-01
					-7.45058000E-09	 2.50000000E-01	 1.00000000E+00
					 1.00000000E+00	 5.00000000E-01	 2.00000000E+00
					 1.00000000E+00	 1.00000000E+00	 2.00000000E+00
					 5.00000000E-01	 5.00000000E-01	 2.00000000E+00
					 5.00000000E-01	 1.00000000E+00	 2.00000000E+00
					 1.00000000E+00	 5.00000000E-01	 1.50000000E+00
					 1.00000000E+00	 7.50000000E-01	 2.00000000E+00
					 1.00000000E+00	 1.00000000E+00	 1.50000000E+00
					 7.50000000E-01	 5.00000000E-01	 2.00000000E+00
					 7.50000000E-01	 1.00000000E+00	 2.00000000E+00
					 5.00000000E-01	 5.00000000E-01	 1.50000000E+00
					 5.00000000E-01	 7.50000000E-01	 2.00000000E+00
					 5.00000000E-01	 1.00000000E+00	 1.50000000E+00
					 1.00000000E+00	-1.49012000E-08	 2.00000000E+00
					 5.00000000E-01	-1.49012000E-08	 2.00000000E+00
					 1.00000000E+00	-1.49012000E-08	 1.50000000E+00
					 1.00000000E+00	 2.50000000E-01	 2.00000000E+00
					 7.50000000E-01	-1.49012000E-08	 2.00000000E+00
					 5.00000000E-01	-1.49012000E-08	 1.50000000E+00
					 5.00000000E-01	 2.50000000E-01	 2.00000000E+00
					-7.45058000E-09	 5.00000000E-01	 2.00000000E+00
					-7.45058000E-09	 1.00000000E+00	 2.00000000E+00
					 2.50000000E-01	 5.00000000E-01	 2.00000000E+00
					 2.50000000E-01	 1.00000000E+00	 2.00000000E+00
					-7.45058000E-09	 5.00000000E-01	 1.50000000E+00
					-7.45058000E-09	 7.50000000E-01	 2.00000000E+00
					-7.45058000E-09	 1.00000000E+00	 1.50000000E+00
					-7.45058000E-09	-1.49012000E-08	 2.00000000E+00
					 2.50000000E-01	-1.49012000E-08	 2.00000000E+00
					-7.45058000E-09	-1.49012000E-08	 1.50000000E+00
					-7.45058000E-09	 2.50000000E-01	 2.00000000E+00
					 1.00000000E+00	 5.00000000E-01	 3.00000000E+00
					 1.00000000E+00	 1.00000000E+00	 3.00000000E+00
					 5.00000000E-01	 5.00000000E-01	 3.00000000E+00
					 5.00000000E-01	 1.00000000E+00	 3.00000000E+00
					 1.00000000E+00	 5.00000000E-01	 2.50000000E+00
					 1.00000000E+00	 7.50000000E-01	 3.00000000E+00
					 1.00000000E+00	 1.00000000E+00	 2.50000000E+00
					 7.50000000E-01	 5.00000000E-01	 3.00000000E+00
					 7.50000000E-01	 1.00000000E+00	 3.00000000E+00
					 5.00000000E-01	 5.00000000E-01	 2.50000000E+00
					 5.00000000E-01	 7.50000000E-01	 3.00000000E+00
					 5.00000000E-01	 1.00000000E+00	 2.50000000E+00
					 1.00000000E+00	-1.49012000E-08	 3.00000000E+00
					 5.00000000E-01	-1.49012000E-08	 3.00000000E+00
					 1.00000000E+00	-1.49012000E-08	 2.50000000E+00
					 1.00000000E+00	 2.50000000E-01	 3.00000000E+00
					 7.50000000E-01	-1.49012000E-08	 3.00000000E+00
					 5.00000000E-01	-1.49012000E-08	 2.50000000E+00
					 5.00000000E-01	 2.50000000E-01	 3.00000000E+00
					-7.45058000E-09	 5.00000000E-01	 3.00000000E+00
					-7.45058000E-09	 1.00000000E+00	 3.00000000E+00
					 2.50000000E-01	 5.00000000E-01	 3.00000000E+00
					 2.50000000E-01	 1.00000000E+00	 3.00000000E+00
					-7.45058000E-09	 5.00000000E-01	 2.50000000E+00
					-7.45058000E-09	 7.50000000E-01	 3.00000000E+00
					-7.45058000E-09	 1.00000000E+00	 2.50000000E+00
					-7.45058000E-09	-1.49012000E-08	 3.00000000E+00
					 2.50000000E-01	-1.49012000E-08	 3.00000000E+00
					-7.45058000E-09	-1.49012000E-08	 2.50000000E+00
					-7.45058000E-09	 2.50000000E-01	 3.00000000E+00
					 1.00000000E+00	 5.00000000E-01	 4.00000000E+00
					 1.00000000E+00	 1.00000000E+00	 4.00000000E+00
					 5.00000000E-01	 5.00000000E-01	 4.00000000E+00
					 5.00000000E-01	 1.00000000E+00	 4.00000000E+00
					 1.00000000E+00	 5.00000000E-01	 3.50000000E+00
					 1.00000000E+00	 7.50000000E-01	 4.00000000E+00
					 1.00000000E+00	 1.00000000E+00	 3.50000000E+00
					 7.50000000E-01	 5.00000000E-01	 4.00000000E+00
					 7.50000000E-01	 1.00000000E+00	 4.00000000E+00
					 5.00000000E-01	 5.00000000E-01	 3.50000000E+00
					 5.00000000E-01	 7.50000000E-01	 4.00000000E+00
					 5.00000000E-01	 1.00000000E+00	 3.50000000E+00
					 1.00000000E+00	-1.49012000E-08	 4.00000000E+00
					 5.00000000E-01	-1.49012000E-08	 4.00000000E+00
					 1.00000000E+00	-1.49012000E-08	 3.50000000E+00
					 1.00000000E+00	 2.50000000E-01	 4.00000000E+00
					 7.50000000E-01	-1.49012000E-08	 4.00000000E+00
					 5.00000000E-01	-1.49012000E-08	 3.50000000E+00
					 5.00000000E-01	 2.50000000E-01	 4.00000000E+00
					-7.45058000E-09	 5.00000000E-01	 4.00000000E+00
					-7.45058000E-09	 1.00000000E+00	 4.00000000E+00
					 2.50000000E-01	 5.00000000E-01	 4.00000000E+00
					 2.50000000E-01	 1.00000000E+00	 4.00000000E+00
					-7.45058000E-09	 5.00000000E-01	 3.50000000E+00
					-7.45058000E-09	 7.50000000E-01	 4.00000000E+00
					-7.45058000E-09	 1.00000000E+00	 3.50000000E+00
					-7.45058000E-09	-1.49012000E-08	 4.00000000E+00
					 2.50000000E-01	-1.49012000E-08	 4.00000000E+00
					-7.45058000E-09	-1.49012000E-08	 3.50000000E+00
					-7.45058000E-09	 2.50000000E-01	 4.00000000E+00
					 1.00000000E+00	 5.00000000E-01	 5.00000000E+00
					 1.00000000E+00	 1.00000000E+00	 5.00000000E+00
					 5.00000000E-01	 5.00000000E-01	 5.00000000E+00
					 5.00000000E-01	 1.00000000E+00	 5.00000000E+00
					 1.00000000E+00	 5.00000000E-01	 4.50000000E+00
					 1.00000000E+00	 7.50000000E-01	 5.00000000E+00
					 1.00000000E+00	 1.00000000E+00	 4.50000000E+00
					 7.50000000E-01	 5.00000000E-01	 5.00000000E+00
					 7.50000000E-01	 1.00000000E+00	 5.00000000E+00
					 5.00000000E-01	 5.00000000E-01	 4.50000000E+00
					 5.00000000E-01	 7.50000000E-01	 5.00000000E+00
					 5.00000000E-01	 1.00000000E+00	 4.50000000E+00
					 1.00000000E+00	-1.49012000E-08	 5.00000000E+00
					 5.00000000E-01	-1.49012000E-08	 5.00000000E+00
					 1.00000000E+00	-1.49012000E-08	 4.50000000E+00
					 1.00000000E+00	 2.50000000E-01	 5.00000000E+00
					 7.50000000E-01	-1.49012000E-08	 5.00000000E+00
					 5.00000000E-01	-1.49012000E-08	 4.50000000E+00
					 5.00000000E-01	 2.50000000E-01	 5.00000000E+00
					-7.45058000E-09	 5.00000000E-01	 5.00000000E+00
					-7.45058000E-09	 1.00000000E+00	 5.00000000E+00
					 2.50000000E-01	 5.00000000E-01	 5.00000000E+00
					 2.50000000E-01	 1.00000000E+00	 5.00000000E+00
					-7.45058000E-09	 5.00000000E-01	 4.50000000E+00
					-7.45058000E-09	 7.50000000E-01	 5.00000000E+00
					-7.45058000E-09	 1.00000000E+00	 4.50000000E+00
					-7.45058000E-09	-1.49012000E-08	 5.00000000E+00
					 2.50000000E-01	-1.49012000E-08	 5.00000000E+00
					-7.45058000E-09	-1.49012000E-08	 4.50000000E+00
					-7.45058000E-09	 2.50000000E-01	 5.00000000E+00
					 1.00000000E+00	 5.00000000E-01	 6.00000000E+00
					 1.00000000E+00	 1.00000000E+00	 6.00000000E+00
					 5.00000000E-01	 5.00000000E-01	 6.00000000E+00
					 5.00000000E-01	 1.00000000E+00	 6.00000000E+00
					 1.00000000E+00	 5.00000000E-01	 5.50000000E+00
					 1.00000000E+00	 7.50000000E-01	 6.00000000E+00
					 1.00000000E+00	 1.00000000E+00	 5.50000000E+00
					 7.50000000E-01	 5.00000000E-01	 6.00000000E+00
					 7.50000000E-01	 1.00000000E+00	 6.00000000E+00
					 5.00000000E-01	 5.00000000E-01	 5.50000000E+00
					 5.00000000E-01	 7.50000000E-01	 6.00000000E+00
					 5.00000000E-01	 1.00000000E+00	 5.50000000E+00
					 1.00000000E+00	-1.49012000E-08	 6.00000000E+00
[...]
			<PointData>
				<DataArray type="Float32" Name="U" NumberOfComponents="3" ComponentName0="D1" ComponentName1="D2" ComponentName2="D3" format="ascii">
					 0.00000000E+00	 0.00000000E+00	 0.00000000E+00
					 0.00000000E+00	 0.00000000E+00	 0.00000000E+00
					 1.34409000E-05	-2.20428000E-03	 5.74865000E-05
					-1.01503000E-04	-2.48849000E-03	 2.66783000E-03
					 0.00000000E+00	 0.00000000E+00	 0.00000000E+00
					 0.00000000E+00	 0.00000000E+00	 0.00000000E+00
					 2.04027000E-05	-2.15662000E-03	 1.01331000E-04
					 2.96819000E-04	-2.42081000E-03	 2.70282000E-03
					 0.00000000E+00	 0.00000000E+00	 0.00000000E+00
					-2.99793000E-06	-4.31449000E-04	 1.97064000E-05
					-9.27653000E-05	-2.25794000E-03	 1.43612000E-03
					-1.56151000E-04	-7.30560000E-04	 1.16212000E-03
					 0.00000000E+00	 0.00000000E+00	 0.00000000E+00
					 0.00000000E+00	 0.00000000E+00	 0.00000000E+00
					 1.96981000E-05	-2.23444000E-03	 5.73198000E-05
					 9.16547000E-05	-2.47672000E-03	 2.69654000E-03
					 0.00000000E+00	 0.00000000E+00	 0.00000000E+00
					 5.12542000E-06	-3.99483000E-04	 4.58099000E-05
					 1.40516000E-04	-2.22164000E-03	 1.40551000E-03
					 1.98454000E-04	-6.46231000E-04	 1.20381000E-03
					 0.00000000E+00	 0.00000000E+00	 0.00000000E+00
					 1.40972000E-04	-2.43979000E-03	-2.64749000E-03
					 0.00000000E+00	 0.00000000E+00	 0.00000000E+00
					-2.83620000E-04	-2.39596000E-03	-2.58999000E-03
					 0.00000000E+00	 0.00000000E+00	 0.00000000E+00
					 1.71883000E-04	-6.18288000E-04	-1.17806000E-03
					 1.02416000E-04	-2.24313000E-03	-1.31274000E-03
					 0.00000000E+00	 0.00000000E+00	 0.00000000E+00
					-7.01916000E-05	-2.45821000E-03	-2.61305000E-03
					 0.00000000E+00	 0.00000000E+00	 0.00000000E+00
					-2.03089000E-04	-6.31188000E-04	-1.09716000E-03
					-1.27746000E-04	-2.19866000E-03	-1.29398000E-03
					 0.00000000E+00	 0.00000000E+00	 0.00000000E+00
					 0.00000000E+00	 0.00000000E+00	 0.00000000E+00
					 4.89883000E-05	-1.66050000E-03	 6.47336000E-05
					 6.95785000E-04	-1.88728000E-03	 2.70130000E-03
					 0.00000000E+00	 0.00000000E+00	 0.00000000E+00
					 0.00000000E+00	 0.00000000E+00	 0.00000000E+00
					 3.21367000E-05	-1.97577000E-03	 7.32209000E-05
					 4.89495000E-04	-2.23575000E-03	 2.70978000E-03
					 0.00000000E+00	 0.00000000E+00	 0.00000000E+00
					 1.27877000E-05	-4.14349000E-05	 6.57873000E-06
					 3.42566000E-04	-1.70825000E-03	 1.40696000E-03
					 6.28430000E-04	-2.41710000E-04	 1.25658000E-03
					 0.00000000E+00	 0.00000000E+00	 0.00000000E+00
					-7.27247000E-04	-1.76734000E-03	-2.61157000E-03
					 0.00000000E+00	 0.00000000E+00	 0.00000000E+00
					-4.93977000E-04	-2.17991000E-03	-2.57549000E-03
					 0.00000000E+00	 0.00000000E+00	 0.00000000E+00
					-5.82820000E-04	-2.80085000E-04	-1.18553000E-03
					-3.13119000E-04	-1.64086000E-03	-1.33268000E-03
					 2.56386000E-05	-1.01245000E-02	-8.81556000E-05
					-8.38477000E-04	-1.03483000E-02	 6.21972000E-03
					 1.58728000E-05	-1.06477000E-02	-5.34057000E-05
					-2.14837000E-04	-1.10043000E-02	 6.23932000E-03
					 1.54990000E-05	-5.22027000E-03	 2.38997000E-05
					-3.37949000E-04	-1.01822000E-02	 3.10413000E-03
					-5.50253000E-04	-5.45693000E-03	 4.36690000E-03
					 2.18294000E-05	-1.04861000E-02	-7.26606000E-05
					-5.19106000E-04	-1.08233000E-02	 6.17548000E-03
					-2.84939000E-06	-5.49074000E-03	 4.13471000E-05
					-8.34045000E-05	-1.07594000E-02	 3.10287000E-03
					 3.69939000E-06	-5.75886000E-03	 4.37457000E-03
					 8.63712000E-04	-1.03533000E-02	-6.23894000E-03
					 2.38319000E-04	-1.09078000E-02	-6.32027000E-03
					 5.69543000E-04	-5.48488000E-03	-4.39301000E-03
					 3.61853000E-04	-1.01965000E-02	-3.20104000E-03
					 5.48073000E-04	-1.07592000E-02	-6.24278000E-03
					-1.86684000E-05	-5.76342000E-03	-4.35613000E-03
					 1.24217000E-04	-1.07055000E-02	-3.17172000E-03
					-1.78920000E-05	-1.05961000E-02	 1.88004000E-05
					 3.50792000E-04	-1.08733000E-02	 6.25699000E-03
					 2.17706000E-06	-1.07052000E-02	-8.90591000E-06
					 6.46168000E-05	-1.10261000E-02	 6.28378000E-03
					-3.42192000E-05	-5.18768000E-03	 7.03191000E-05
					 1.73407000E-04	-1.06751000E-02	 3.10751000E-03
					 5.99528000E-04	-5.46982000E-03	 4.42272000E-03
					-3.54492000E-04	-1.07859000E-02	-6.18464000E-03
					-6.31084000E-05	-1.09316000E-02	-6.27831000E-03
					-6.35543000E-04	-5.36748000E-03	-4.32991000E-03
					-1.36534000E-04	-1.06402000E-02	-3.04422000E-03
					 2.40414000E-05	-2.67631000E-02	-1.64919000E-04
					-8.23831000E-04	-2.68369000E-02	 9.41395000E-03
					 2.66505000E-05	-2.72048000E-02	-8.20610000E-05
					-2.94778000E-04	-2.75407000E-02	 9.42406000E-03
					 1.80950000E-05	-1.75175000E-02	-9.21929000E-05
					-3.35704000E-04	-2.67646000E-02	 4.52007000E-03
					-9.46925000E-04	-1.77161000E-02	 7.98735000E-03
					 2.58467000E-05	-2.70184000E-02	-1.11128000E-04
					-5.42055000E-04	-2.72996000E-02	 9.46084000E-03
					 3.07369000E-05	-1.80906000E-02	-6.73445000E-05
					-1.46378000E-04	-2.73287000E-02	 4.60825000E-03
					-2.97179000E-04	-1.83926000E-02	 7.97755000E-03
					 6.39535000E-04	-2.68195000E-02	-9.69726000E-03
					 3.20268000E-04	-2.72862000E-02	-9.69461000E-03
					 8.93445000E-04	-1.76074000E-02	-8.08430000E-03
					 3.32951000E-04	-2.67483000E-02	-4.83290000E-03
					 4.60942000E-04	-2.71004000E-02	-9.71912000E-03
					 3.32209000E-04	-1.82823000E-02	-8.13957000E-03
					 1.73781000E-04	-2.71893000E-02	-4.82855000E-03
					 5.62531000E-05	-2.73737000E-02	-7.87583000E-05
					 1.15213000E-04	-2.76168000E-02	 9.48996000E-03
					 3.68223000E-05	-2.73352000E-02	-9.40747000E-05
					-8.55275000E-05	-2.76342000E-02	 9.46494000E-03
					 2.58879000E-05	-1.81270000E-02	-3.14910000E-05
					 7.80395000E-05	-2.74388000E-02	 4.62952000E-03
					 2.26451000E-04	-1.84267000E-02	 8.00321000E-03
					 6.30367000E-05	-2.75002000E-02	-9.59760000E-03
					 2.01885000E-04	-2.74060000E-02	-9.64552000E-03
					-1.60728000E-04	-1.82896000E-02	-8.08019000E-03
					 1.12380000E-05	-2.73879000E-02	-4.76831000E-03
					 6.58495000E-05	-4.88704000E-02	-2.85090000E-04
					 2.55504000E-04	-4.91777000E-02	 1.09654000E-02
					 6.76506000E-05	-4.87085000E-02	-2.29423000E-04
					 2.78444000E-04	-4.88614000E-02	 1.09595000E-02
					 6.53847000E-05	-3.73728000E-02	-2.26585000E-04
					 1.07322000E-04	-4.89831000E-02	 5.30476000E-03
					-2.68891000E-04	-3.76310000E-02	 1.03186000E-02
					 7.73468000E-05	-4.87971000E-02	-2.70565000E-04
					 2.53143000E-04	-4.89940000E-02	 1.09874000E-02
					 5.44295000E-05	-3.75757000E-02	-1.50842000E-04
					 1.71490000E-04	-4.87618000E-02	 5.32997000E-03
					 3.03764000E-05	-3.78438000E-02	 1.03975000E-02
					 1.06844000E-04	-4.87606000E-02	-1.15387000E-02
					-1.75453000E-04	-4.86938000E-02	-1.15563000E-02
					 3.59147000E-04	-3.73501000E-02	-1.07547000E-02
					 5.25803000E-05	-4.88074000E-02	-5.87281000E-03
					-2.88567000E-05	-4.87686000E-02	-1.16083000E-02
					 1.12089000E-04	-3.75951000E-02	-1.07143000E-02
					-4.43497000E-05	-4.86663000E-02	-5.90152000E-03
					 6.76363000E-06	-4.83830000E-02	-3.56255000E-04
					 3.89411000E-04	-4.87103000E-02	 1.09520000E-02
					 3.49941000E-05	-4.85557000E-02	-2.83034000E-04
					 3.39097000E-04	-4.87934000E-02	 1.08971000E-02
					 5.29646000E-05	-3.75061000E-02	-1.81115000E-04
					 2.46750000E-04	-4.85107000E-02	 5.34847000E-03
					 2.54802000E-04	-3.77256000E-02	 1.03639000E-02
					-4.43847000E-04	-4.82935000E-02	-1.15577000E-02
					-3.06244000E-04	-4.85665000E-02	-1.15200000E-02
					-1.20549000E-04	-3.74965000E-02	-1.07015000E-02
					-1.65848000E-04	-4.83200000E-02	-5.99591000E-03
					 1.35296000E-04	-7.28159000E-02	-7.24021000E-04
					 2.19883000E-04	-7.31100000E-02	 1.18271000E-02
					 1.23561000E-04	-7.26192000E-02	-7.44408000E-04
					 4.35306000E-04	-7.29024000E-02	 1.18569000E-02
					 9.46268000E-05	-6.05871000E-02	-4.65279000E-04
					 1.82519000E-04	-7.29326000E-02	 5.55068000E-03
					 3.04540000E-04	-6.08622000E-02	 1.13953000E-02
					 1.21013000E-04	-7.27543000E-02	-7.41366000E-04
					 3.10117000E-04	-7.30229000E-02	 1.18398000E-02
					 7.44672000E-05	-6.03252000E-02	-5.07705000E-04
					 2.79607000E-04	-7.27423000E-02	 5.58734000E-03
					 4.39451000E-04	-6.05226000E-02	 1.13962000E-02
					-2.84562000E-04	-7.29758000E-02	-1.32164000E-02
					-2.17984000E-04	-7.25024000E-02	-1.31953000E-02
					-1.43911000E-04	-6.06392000E-02	-1.23654000E-02
					 2.63157000E-05	-7.28465000E-02	-6.94515000E-03
					-2.34508000E-04	-7.27150000E-02	-1.31981000E-02
					-3.13905000E-04	-6.02560000E-02	-1.24225000E-02
					-3.73830000E-05	-7.25483000E-02	-6.92030000E-03
					 1.31184000E-04	-7.21686000E-02	-6.33947000E-04
					 8.84476000E-04	-7.22069000E-02	 1.18993000E-02
					 1.21655000E-04	-7.24122000E-02	-6.82691000E-04
					 6.42419000E-04	-7.26608000E-02	 1.19300000E-02
					 5.48516000E-05	-5.98705000E-02	-4.66917000E-04
					 4.10252000E-04	-7.21953000E-02	 5.57062000E-03
					 6.35646000E-04	-6.00544000E-02	 1.14525000E-02
					-3.73982000E-04	-7.21022000E-02	-1.31654000E-02
					-2.86299000E-04	-7.23305000E-02	-1.32238000E-02
					-5.28728000E-04	-5.97869000E-02	-1.23374000E-02
					-1.40468000E-04	-7.21200000E-02	-6.84988000E-03
					 1.14218000E-04	-9.82058000E-02	-9.48209000E-04
					-4.61573000E-04	-9.84970000E-02	 1.22004000E-02
					 1.01492000E-04	-9.88757000E-02	-9.43310000E-04
					-4.94840000E-04	-9.91019000E-02	 1.23140000E-02
					 7.65561000E-05	-8.54380000E-02	-8.73973000E-04
					-2.02584000E-04	-9.83743000E-02	 5.66163000E-03
					-6.86099000E-05	-8.56551000E-02	 1.21700000E-02
					 1.06259000E-04	-9.85316000E-02	-9.42752000E-04
					-4.59864000E-04	-9.87854000E-02	 1.21580000E-02
					 1.08692000E-04	-8.55885000E-02	-8.20680000E-04
					-2.08926000E-04	-9.89626000E-02	 5.65113000E-03
					 1.78193000E-05	-8.58168000E-02	 1.21855000E-02
					 7.62575000E-04	-9.80458000E-02	-1.42528000E-02
					 7.74678000E-04	-9.87503000E-02	-1.41703000E-02
					 2.15251000E-04	-8.53729000E-02	-1.38345000E-02
					 4.35353000E-04	-9.81109000E-02	-7.65367000E-03
					 7.76798000E-04	-9.83897000E-02	-1.41171000E-02
					 1.77369000E-04	-8.54395000E-02	-1.37734000E-02
					 4.49257000E-04	-9.88122000E-02	-7.53887000E-03
					 8.34310000E-05	-9.95488000E-02	-8.56078000E-04
					-4.86103000E-04	-9.97077000E-02	 1.23477000E-02
					 9.73699000E-05	-9.92158000E-02	-9.01083000E-04
					-4.91705000E-04	-9.93946000E-02	 1.23712000E-02
					 1.49923000E-04	-8.55851000E-02	-7.61386000E-04
					-1.86873000E-04	-9.96281000E-02	 5.62202000E-03
					 1.77487000E-04	-8.57573000E-02	 1.22389000E-02
					 7.34787000E-04	-9.93352000E-02	-1.41125000E-02
					 7.32199000E-04	-9.90239000E-02	-1.42232000E-02
					 1.23039000E-04	-8.54790000E-02	-1.37695000E-02
					 4.14231000E-04	-9.94287000E-02	-7.39146000E-03
					 1.11465000E-04	-1.24099000E-01	-1.20480000E-03
					-1.30246000E-03	-1.24210000E-01	 1.20845000E-02
					 1.46225000E-04	-1.25414000E-01	-1.33648000E-03
					-1.24685000E-03	-1.25585000E-01	 1.19624000E-02
					 1.79818000E-04	-1.11118000E-01	-1.09102000E-03
					-5.33259000E-04	-1.24149000E-01	 5.50187000E-03
					-8.94405000E-04	-1.11297000E-01	 1.21902000E-02
					 1.36485000E-04	-1.24722000E-01	-1.23915000E-03
					-1.26565000E-03	-1.24894000E-01	 1.20061000E-02
					 1.64388000E-04	-1.12177000E-01	-1.12431000E-03
					-5.27695000E-04	-1.25509000E-01	 5.29482000E-03
					-8.50614000E-04	-1.12399000E-01	 1.21670000E-02
					 1.67417000E-03	-1.23670000E-01	-1.44249000E-02
					 1.55894000E-03	-1.25265000E-01	-1.45941000E-02
					 1.28575000E-03	-1.10901000E-01	-1.43604000E-02
					 8.01105000E-04	-1.23895000E-01	-7.91338000E-03
					 1.60848000E-03	-1.24543000E-01	-1.44625000E-02
					 1.21801000E-03	-1.11959000E-01	-1.43919000E-02
					 8.39952000E-04	-1.25338000E-01	-7.96577000E-03
					 1.95323000E-04	-1.26848000E-01	-1.35378000E-03
					-1.17063000E-03	-1.26978000E-01	 1.18514000E-02
					 1.60218000E-04	-1.26131000E-01	-1.32704000E-03
					-1.20780000E-03	-1.26267000E-01	 1.19966000E-02
					 1.53492000E-04	-1.13165000E-01	-1.08964000E-03
					-5.14616000E-04	-1.26911000E-01	 5.21512000E-03
					-8.32587000E-04	-1.13327000E-01	 1.21196000E-02
					 1.45922000E-03	-1.26577000E-01	-1.45393000E-02
					 1.52274000E-03	-1.25985000E-01	-1.45670000E-02
					 1.16660000E-03	-1.13043000E-01	-1.43755000E-02
					 8.69586000E-04	-1.26724000E-01	-7.94343000E-03
					-9.03383000E-05	-1.50405000E-01	-1.29157000E-03
					-2.16191000E-03	-1.51024000E-01	 1.28553000E-02
					 2.55496000E-04	-1.52057000E-01	-1.53749000E-03
					-1.75956000E-03	-1.51626000E-01	 1.13480000E-02
					 1.85326000E-04	-1.37008000E-01	-1.29450000E-03
					-1.32015000E-03	-1.50688000E-01	 5.70148000E-03
					-1.30553000E-03	-1.37331000E-01	 1.22664000E-02
					 3.53991000E-05	-1.51340000E-01	-1.47503000E-03
					-1.91969000E-03	-1.51298000E-01	 1.19096000E-02
					 2.32724000E-04	-1.38716000E-01	-1.44998000E-03
					-7.93122000E-04	-1.51817000E-01	 5.03803000E-03
					-1.44356000E-03	-1.38928000E-01	 1.17478000E-02
					 2.29188000E-03	-1.50303000E-01	-1.52441000E-02
					 2.32765000E-03	-1.52236000E-01	-1.51431000E-02
					 2.00944000E-03	-1.36694000E-01	-1.48386000E-02
					 1.11730000E-03	-1.50338000E-01	-8.23603000E-03
					 2.29288000E-03	-1.51276000E-01	-1.51716000E-02
					 1.85898000E-03	-1.38605000E-01	-1.48242000E-02
					 1.26746000E-03	-1.52161000E-01	-8.27776000E-03
					 6.07048000E-04	-1.53751000E-01	-1.36910000E-03
					-1.58026000E-03	-1.53908000E-01	 1.16477000E-02
					 4.73884000E-04	-1.52856000E-01	-1.53901000E-03
					-1.67229000E-03	-1.52688000E-01	 1.13979000E-02
					 2.47650000E-04	-1.40404000E-01	-1.38286000E-03
					-3.82752000E-04	-1.53849000E-01	 5.09989000E-03
					-1.62479000E-03	-1.40685000E-01	 1.17594000E-02
					 2.40221000E-03	-1.53683000E-01	-1.46700000E-02
					 2.33865000E-03	-1.52961000E-01	-1.50153000E-02
					 1.74612000E-03	-1.39983000E-01	-1.46375000E-02
					 1.57305000E-03	-1.53722000E-01	-7.90816000E-03
					 0.00000000E+00	 0.00000000E+00	 0.00000000E+00
					 0.00000000E+00	 0.00000000E+00	 0.00000000E+00
					 2.18520000E-04	-6.76516000E-03	-3.41432000E-04
					-2.37292000E-03	-7.26991000E-03	 7.72819000E-03
					 0.00000000E+00	 0.00000000E+00	 0.00000000E+00
					 0.00000000E+00	 0.00000000E+00	 0.00000000E+00
					 2.45113000E-04	-8.81769000E-03	-2.01080000E-04
					-1.45110000E-03	-9.36553000E-03	 7.91965000E-03
					 0.00000000E+00	 0.00000000E+00	 0.00000000E+00
					 1.10067000E-04	-8.16024000E-04	-1.92870000E-04
					-1.06603000E-03	-6.84448000E-03	 3.75705000E-03
					-1.96714000E-03	-1.61074000E-03	 3.92510000E-03
					 0.00000000E+00	 0.00000000E+00	 0.00000000E+00
					 0.00000000E+00	 0.00000000E+00	 0.00000000E+00
					 2.29965000E-04	-7.99507000E-03	-2.68547000E-04
					-1.91014000E-03	-8.49042000E-03	 7.69836000E-03
					 0.00000000E+00	 0.00000000E+00	 0.00000000E+00
					 5.94696000E-05	-2.31476000E-03	-6.77661000E-05
					-5.78826000E-04	-8.89168000E-03	 3.75632000E-03
					-7.84854000E-04	-2.97452000E-03	 3.86609000E-03
					 0.00000000E+00	 0.00000000E+00	 0.00000000E+00
					 3.05762000E-03	-6.95495000E-03	-8.41111000E-03
					 0.00000000E+00	 0.00000000E+00	 0.00000000E+00
					 1.73305000E-03	-9.24736000E-03	-8.41132000E-03
					 0.00000000E+00	 0.00000000E+00	 0.00000000E+00
					 2.33029000E-03	-1.39467000E-03	-4.25297000E-03
					 1.53766000E-03	-6.70739000E-03	-4.36497000E-03
					 0.00000000E+00	 0.00000000E+00	 0.00000000E+00
					 2.35997000E-03	-8.42356000E-03	-8.28974000E-03
					 0.00000000E+00	 0.00000000E+00	 0.00000000E+00
					 9.56087000E-04	-2.96656000E-03	-4.00263000E-03
					 9.69834000E-04	-8.83004000E-03	-4.25927000E-03
					 0.00000000E+00	 0.00000000E+00	 0.00000000E+00
					 0.00000000E+00	 0.00000000E+00	 0.00000000E+00
					 1.57415000E-04	-9.83847000E-03	-7.42780000E-05
					-3.50651000E-04	-1.04760000E-02	 7.96944000E-03
					 0.00000000E+00	 0.00000000E+00	 0.00000000E+00
					 0.00000000E+00	 0.00000000E+00	 0.00000000E+00
					 1.97372000E-04	-9.50651000E-03	-1.40920000E-04
					-9.07653000E-04	-1.01297000E-02	 8.06329000E-03
					 0.00000000E+00	 0.00000000E+00	 0.00000000E+00
					 4.95141000E-05	-2.53288000E-03	-4.81047000E-05
					-1.03977000E-04	-9.98272000E-03	 3.72794000E-03
					 5.37618000E-04	-3.11138000E-03	 4.02178000E-03
					 0.00000000E+00	 0.00000000E+00	 0.00000000E+00
					 6.47422000E-04	-1.03040000E-02	-8.18634000E-03
					 0.00000000E+00	 0.00000000E+00	 0.00000000E+00
					 1.17748000E-03	-9.91179000E-03	-8.37602000E-03
					 0.00000000E+00	 0.00000000E+00	 0.00000000E+00
					-2.94737000E-04	-3.26909000E-03	-4.03920000E-03
					 3.39637000E-04	-9.87482000E-03	-3.97323000E-03
					 6.42936000E-04	-3.06130000E-02	-9.72602000E-04
					-2.19017000E-03	-3.10409000E-02	 1.37403000E-02
					 5.29483000E-04	-3.30260000E-02	-7.39853000E-04
					-1.50025000E-03	-3.36367000E-02	 1.37707000E-02
					 3.58222000E-04	-1.70350000E-02	-5.93940000E-04
					-8.31969000E-04	-3.07127000E-02	 6.30146000E-03
					-2.34476000E-03	-1.76396000E-02	 1.10144000E-02
					 6.09468000E-04	-3.18548000E-02	-8.40855000E-04
					-1.84200000E-03	-3.23839000E-02	 1.37307000E-02
					 3.07329000E-04	-1.93019000E-02	-4.26185000E-04
					-4.86443000E-04	-3.32618000E-02	 6.45155000E-03
					-1.44345000E-03	-1.99200000E-02	 1.11910000E-02
					 3.37759000E-03	-3.07506000E-02	-1.53556000E-02
					 2.55687000E-03	-3.30482000E-02	-1.53054000E-02
					 3.19488000E-03	-1.73293000E-02	-1.22014000E-02
					 2.02645000E-03	-3.05939000E-02	-8.05267000E-03
					 2.97789000E-03	-3.19698000E-02	-1.53821000E-02
					 2.10677000E-03	-1.96109000E-02	-1.20858000E-02
					 1.54646000E-03	-3.29521000E-02	-7.93175000E-03
					 3.42495000E-04	-3.46829000E-02	-6.19372000E-04
					-7.80220000E-04	-3.52450000E-02	 1.39731000E-02
					 4.24743000E-04	-3.39248000E-02	-6.78240000E-04
					-1.14949000E-03	-3.45496000E-02	 1.39445000E-02
					 2.37115000E-04	-2.06165000E-02	-2.85799000E-04
					-1.78439000E-04	-3.48608000E-02	 6.52763000E-03
					-5.06295000E-04	-2.11760000E-02	 1.13358000E-02
					 1.66247000E-03	-3.48749000E-02	-1.51442000E-02
					 2.10633000E-03	-3.40770000E-02	-1.53010000E-02
					 1.19676000E-03	-2.10408000E-02	-1.19422000E-02
					 1.01923000E-03	-3.46826000E-02	-7.70051000E-03
					 8.22411000E-04	-6.41861000E-02	-1.51797000E-03
					-2.53101000E-03	-6.49523000E-02	 1.71689000E-02
					 8.04043000E-04	-6.72732000E-02	-1.40776000E-03
					-2.00243000E-03	-6.79297000E-02	 1.72145000E-02
					 6.77343000E-04	-4.65120000E-02	-1.17870000E-03
					-8.52924000E-04	-6.44911000E-02	 7.87730000E-03
					-2.23693000E-03	-4.71800000E-02	 1.56959000E-02
					 8.12736000E-04	-6.58002000E-02	-1.48400000E-03
					-2.29702000E-03	-6.65060000E-02	 1.71616000E-02
					 6.73559000E-04	-4.91124000E-02	-1.07923000E-03
					-6.40271000E-04	-6.75426000E-02	 7.88210000E-03
					-1.67691000E-03	-4.97171000E-02	 1.57114000E-02
					 4.00352000E-03	-6.43324000E-02	-2.02411000E-02
					 3.61904000E-03	-6.70821000E-02	-2.02524000E-02
					 3.49626000E-03	-4.66622000E-02	-1.79106000E-02
					 2.53259000E-03	-6.41535000E-02	-1.09612000E-02
					 3.82685000E-03	-6.56809000E-02	-2.01618000E-02
					 2.96414000E-03	-4.91132000E-02	-1.79656000E-02
					 2.23157000E-03	-6.71161000E-02	-1.07642000E-02
					 8.19077000E-04	-6.96979000E-02	-1.31923000E-03
					-1.44179000E-03	-7.03256000E-02	 1.74662000E-02
					 8.04808000E-04	-6.85560000E-02	-1.38622000E-03
					-1.70652000E-03	-6.91137000E-02	 1.74277000E-02
					 6.68460000E-04	-5.11788000E-02	-9.09489000E-04
					-3.71780000E-04	-6.99425000E-02	 7.96064000E-03
					-1.11713000E-03	-5.18230000E-02	 1.58398000E-02
					 3.12415000E-03	-6.98322000E-02	-2.00131000E-02
					 3.38236000E-03	-6.85031000E-02	-2.01899000E-02
					 2.38546000E-03	-5.12272000E-02	-1.77643000E-02
					 1.92497000E-03	-6.97199000E-02	-1.05964000E-02
					 1.26823000E-03	-1.04150000E-01	-2.30740000E-03
					-3.29287000E-03	-1.04806000E-01	 1.94262000E-02