# vtk DataFile Version 3.0

ASCII
DATASET UNSTRUCTURED_GRID

POINTS 522 double
	 1.00000000E+00	 1.00000000E+00	-5.96046000E-08
	 1.00000000E+00	 5.00000000E-01	-5.96046000E-08
	 1.00000000E+00	 5.00000000E-01	 1.00000000E+00
	 1.00000000E+00	 1.00000000E+00	 1.00000000E+00
	 5.00000000E-01	 1.00000000E+00	-5.96046000E-08
	 5.00000000E-01	 5.00000000E-01	-5.96046000E-08
	 5.00000000E-01	 5.00000000E-01	 1.00000000E+00
	 5.00000000E-01	 1.00000000E+00	 1.00000000E+00
	 1.00000000E+00	 7.50000000E-01	-5.96046000E-08
	 1.00000000E+00	 5.00000000E-01	 5.00000000E-01
	 1.00000000E+00	 7.50000000E-01	 1.00000000E+00
	 1.00000000E+00	 1.00000000E+00	 5.00000000E-01
	 7.50000000E-01	 1.00000000E+00	-5.96046000E-08
	 7.50000000E-01	 5.00000000E-01	-5.96046000E-08
	 7.50000000E-01	 5.00000000E-01	 1.00000000E+00
	 7.50000000E-01	 1.00000000E+00	 1.00000000E+00
	 5.00000000E-01	 7.50000000E-01	-5.96046000E-08
	 5.00000000E-01	 5.00000000E-01	 5.00000000E-01
	 5.00000000E-01	 7.50000000E-01	 1.00000000E+00
	 5.00000000E-01	 1.00000000E+00	 5.00000000E-01
	 1.00000000E+00	-1.49012000E-08	-5.96046000E-08
	 1.00000000E+00	-1.49012000E-08	 1.00000000E+00
	 5.00000000E-01	-1.49012000E-08	-5.96046000E-08
	 5.00000000E-01	-1.49012000E-08	 1.00000000E+00
	 1.00000000E+00	 2.50000000E-01	-5.96046000E-08
	 1.00000000E+00	-1.49012000E-08	 5.00000000E-01
	 1.00000000E+00	 2.50000000E-01	 1.00000000E+00
	 7.50000000E-01	-1.49012000E-08	-5.96046000E-08
	 7.50000000E-01	-1.49012000E-08	 1.00000000E+00
	 5.00000000E-01	 2.50000000E-01	-5.96046000E-08
	 5.00000000E-01	-1.49012000E-08	 5.00000000E-01
	 5.00000000E-01	 2.50000000E-01	 1.00000000E+00
	-7.45058000E-09	 1.00000000E+00	-5.96046000E-08
	-7.45058000E-09	 5.00000000E-01	-5.96046000E-08
	-7.45058000E-09	 5.00000000E-01	 1.00000000E+00
	-7.45058000E-09	 1.00000000E+00	 1.00000000E+00
	 2.50000000E-01	 1.00000000E+00	-5.96046000E-08
	 2.50000000E-01	 5.00000000E-01	-5.96046000E-08
	 2.50000000E-01	 5.00000000E-01	 1.00000000E+00
	 2.50000000E-01	 1.00000000E+00	 1.00000000E+00
	-7.45058000E-09	 7.50000000E-01	-5.96046000E-08
	-7.45058000E-09	 5.00000000E-01	 5.00000000E-01
	-7.45058000E-09	 7.50000000E-01	 1.00000000E+00
	-7.45058000E-09	 1.00000000E+00	 5.00000000E-01
	-7.45058000E-09	-1.49012000E-08	-5.96046000E-08
	-7.45058000E-09	-1.49012000E-08	 1.00000000E+00
	 2.50000000E-01	-1.49012000E-08	-5.96046000E-08
	 2.50000000E-01	-1.49012000E-08	 1.00000000E+00
	-7.45058000E-09	 2.50000000E-01	-5.96046000E-08
	-7.45058000E-09	-1.49012000E-08	 5.00000000E-01
	-7.45058000E-09	 2.50000000E-01	 1.00000000E+00
	 1.00000000E+00	 5.00000000E-01	 2.00000000E+00
	 1.00000000E+00	 1.00000000E+00	 2.00000000E+00
	 5.00000000E-01	 5.00000000E-01	 2.00000000E+00
	 5.00000000E-01	 1.00000000E+00	 2.00000000E+00
	 1.00000000E+00	 5.00000000E-01	 1.50000000E+00
	 1.00000000E+00	 7.50000000E-01	 2.00000000E+00
	 1.00000000E+00	 1.00000000E+00	 1.50000000E+00
	 7.50000000E-01	 5.00000000E-01	 2.00000000E+00
	 7.50000000E-01	 1.00000000E+00	 2.00000000E+00
	 5.00000000E-01	 5.00000000E-01	 1.50000000E+00
	 5.00000000E-01	 7.50000000E-01	 2.00000000E+00
	 5.00000000E-01	 1.00000000E+00	 1.50000000E+00
	 1.00000000E+00	-1.49012000E-08	 2.00000000E+00
	 5.00000000E-01	-1.49012000E-08	 2.00000000E+00
	 1.00000000E+00	-1.49012000E-08	 1.50000000E+00
	 1.00000000E+00	 2.50000000E-01	 2.00000000E+00
	 7.50000000E-01	-1.49012000E-08	 2.00000000E+00
	 5.00000000E-01	-1.49012000E-08	 1.50000000E+00
	 5.00000000E-01	 2.50000000E-01	 2.00000000E+00
	-7.45058000E-09	 5.00000000E-01	 2.00000000E+00
	-7.45058000E-09	 1.00000000E+00	 2.00000000E+00
	 2.50000000E-01	 5.00000000E-01	 2.00000000E+00
	 2.50000000E-01	 1.00000000E+00	 2.00000000E+00
	-7.45058000E-09	 5.00000000E-01	 1.50000000E+00
	-7.45058000E-09	 7.50000000E-01	 2.00000000E+00
	-7.45058000E-09	 1.00000000E+00	 1.50000000E+00
	-7.45058000E-09	-1.49012000E-08	 2.00000000E+00
	 2.50000000E-01	-1.49012000E-08	 2.00000000E+00
	-7.45058000E-09	-1.49012000E-08	 1.50000000E+00
	-7.45058000E-09	 2.50000000E-01	 2.00000000E+00
	 1.00000000E+00	 5.00000000E-01	 3.00000000E+00
	 1.00000000E+00	 1.00000000E+00	 3.00000000E+00
	 5.00000000E-01	 5.00000000E-01	 3.00000000E+00
	 5.00000000E-01	 1.00000000E+00	 3.00000000E+00
	 1.00000000E+00	 5.00000000E-01	 2.50000000E+00
	 1.00000000E+00	 7.50000000E-01	 3.00000000E+00
	 1.00000000E+00	 1.00000000E+00	 2.50000000E+00
	 7.50000000E-01	 5.00000000E-01	 3.00000000E+00
	 7.50000000E-01	 1.00000000E+00	 3.00000000E+00
	 5.00000000E-01	 5.00000000E-01	 2.50000000E+00
	 5.00000000E-01	 7.50000000E-01	 3.00000000E+00
	 5.00000000E-01	 1.00000000E+00	 2.50000000E+00
	 1.00000000E+00	-1.49012000E-08	 3.00000000E+00
	 5.00000000E-01	-1.49012000E-08	 3.00000000E+00
	 1.00000000E+00	-1.49012000E-08	 2.50000000E+00
	 1.00000000E+00	 2.50000000E-01	 3.00000000E+00
	 7.50000000E-01	-1.49012000E-08	 3.00000000E+00
	 5.00000000E-01	-1.49012000E-08	 2.50000000E+00
	 5.00000000E-01	 2.50000000E-01	 3.00000000E+00
	-7.45058000E-09	 5.00000000E-01	 3.00000000E+00
	-7.45058000E-09	 1.00000000E+00	 3.00000000E+00
	 2.50000000E-01	 5.00000000E-01	 3.00000000E+00
	 2.50000000E-01	 1.00000000E+00	 3.00000000E+00
	-7.45058000E-09	 5.00000000E-01	 2.50000000E+00
	-7.45058000E-09	 7.50000000E-01	 3.00000000E+00
	-7.45058000E-09	 1.00000000E+00	 2.50000000E+00
	-7.45058000E-09	-1.49012000E-08	 3.00000000E+00
	 2.50000000E-01	-1.49012000E-08	 3.00000000E+00
	-7.45058000E-09	-1.49012000E-08	 2.50000000E+00
	-7.45058000E-09	 2.50000000E-01	 3.00000000E+00
	 1.00000000E+00	 5.00000000E-01	 4.00000000E+00
	 1.00000000E+00	 1.00000000E+00	 4.00000000E+00
	 5.00000000E-01	 5.00000000E-01	 4.00000000E+00
	 5.00000000E-01	 1.00000000E+00	 4.00000000E+00
	 1.00000000E+00	 5.00000000E-01	 3.50000000E+00
	 1.00000000E+00	 7.50000000E-01	 4.00000000E+00
	 1.00000000E+00	 1.00000000E+00	 3.50000000E+00
	 7.50000000E-01	 5.00000000E-01	 4.00000000E+00
	 7.50000000E-01	 1.00000000E+00	 4.00000000E+00
	 5.00000000E-01	 5.00000000E-01	 3.50000000E+00
	 5.00000000E-01	 7.50000000E-01	 4.00000000E+00
	 5.00000000E-01	 1.00000000E+00	 3.50000000E+00
	 1.00000000E+00	-1.49012000E-08	 4.00000000E+00
	 5.00000000E-01	-1.49012000E-08	 4.00000000E+00
	 1.00000000E+00	-1.49012000E-08	 3.50000000E+00
	 1.00000000E+00	 2.50000000E-01	 4.00000000E+00
	 7.50000000E-01	-1.49012000E-08	 4.00000000E+00
	 5.00000000E-01	-1.49012000E-08	 3.50000000E+00
	 5.00000000E-01	 2.50000000E-01	 4.00000000E+00
	-7.45058000E-09	 5.00000000E-01	 4.00000000E+00
	-7.45058000E-09	 1.00000000E+00	 4.00000000E+00
	 2.50000000E-01	 5.00000000E-01	 4.00000000E+00
	 2.50000000E-01	 1.00000000E+00	 4.00000000E+00
	-7.45058000E-09	 5.00000000E-01	 3.50000000E+00
	-7.45058000E-09	 7.50000000E-01	 4.00000000E+00
	-7.45058000E-09	 1.00000000E+00	 3.50000000E+00
	-7.45058000E-09	-1.49012000E-08	 4.00000000E+00
	 2.50000000E-01	-1.49012000E-08	 4.00000000E+00
	-7.45058000E-09	-1.49012000E-08	 3.50000000E+00
	-7.45058000E-09	 2.50000000E-01	 4.00000000E+00
	 1.00000000E+00	 5.00000000E-01	 5.00000000E+00
	 1.00000000E+00	 1.00000000E+00	 5.00000000E+00
	 5.00000000E-01	 5.00000000E-01	 5.00000000E+00
	 5.00000000E-01	 1.00000000E+00	 5.00000000E+00
	 1.00000000E+00	 5.00000000E-01	 4.50000000E+00
	 1.00000000E+00	 7.50000000E-01	 5.00000000E+00
	 1.00000000E+00	 1.00000000E+00	 4.50000000E+00
	 7.50000000E-01	 5.00000000E-01	 5.00000000E+00
	 7.50000000E-01	 1.00000000E+00	 5.00000000E+00
	 5.00000000E-01	 5.00000000E-01	 4.50000000E+00
	 5.00000000E-01	 7.50000000E-01	 5.00000000E+00
	 5.00000000E-01	 1.00000000E+00	 4.50000000E+00
	 1.00000000E+00	-1.49012000E-08	 5.00000000E+00
	 5.00000000E-01	-1.49012000E-08	 5.00000000E+00
	 1.00000000E+00	-1.49012000E-08	 4.50000000E+00
	 1.00000000E+00	 2.50000000E-01	 5.00000000E+00
	 7.50000000E-01	-1.49012000E-08	 5.00000000E+00
	 5.00000000E-01	-1.49012000E-08	 4.50000000E+00
	 5.00000000E-01	 2.50000000E-01	 5.00000000E+00
	-7.45058000E-09	 5.00000000E-01	 5.00000000E+00
	-7.45058000E-09	 1.00000000E+00	 5.00000000E+00
	 2.50000000E-01	 5.00000000E-01	 5.00000000E+00
	 2.50000000E-01	 1.00000000E+00	 5.00000000E+00
	-7.45058000E-09	 5.00000000E-01	 4.50000000E+00
	-7.45058000E-09	 7.50000000E-01	 5.00000000E+00
	-7.45058000E-09	 1.00000000E+00	 4.50000000E+00
	-7.45058000E-09	-1.49012000E-08	 5.00000000E+00
	 2.50000000E-01	-1.49012000E-08	 5.00000000E+00
	-7.45058000E-09	-1.49012000E-08	 4.50000000E+00
	-7.45058000E-09	 2.50000000E-01	 5.00000000E+00
	 1.00000000E+00	 5.00000000E-01	 6.00000000E+00
	 1.00000000E+00	 1.00000000E+00	 6.00000000E+00
	 5.00000000E-01	 5.00000000E-01	 6.00000000E+00
	 5.00000000E-01	 1.00000000E+00	 6.00000000E+00
	 1.00000000E+00	 5.00000000E-01	 5.50000000E+00
	 1.00000000E+00	 7.50000000E-01	 6.00000000E+00
	 1.00000000E+00	 1.00000000E+00	 5.50000000E+00
	 7.50000000E-01	 5.00000000E-01	 6.00000000E+00
	 7.50000000E-01	 1.00000000E+00	 6.00000000E+00
	 5.00000000E-01	 5.00000000E-01	 5.50000000E+00
	 5.00000000E-01	 7.50000000E-01	 6.00000000E+00
	 5.00000000E-01	 1.00000000E+00	 5.50000000E+00
	 1.00000000E+00	-1.49012000E-08	 6.00000000E+00
	 5.00000000E-01	-1.49012000E-08	 6.00000000E+00
	 1.00000000E+00	-1.49012000E-08	 5.50000000E+00
	 1.00000000E+00	 2.50000000E-01	 6.00000000E+00
	 7.50000000E-01	-1.49012000E-08	 6.00000000E+00
	 5.00000000E-01	-1.49012000E-08	 5.50000000E+00
	 5.00000000E-01	 2.50000000E-01	 6.00000000E+00
	-7.45058000E-09	 5.00000000E-01	 6.00000000E+00
	-7.45058000E-09	 1.00000000E+00	 6.00000000E+00
	 2.50000000E-01	 5.00000000E-01	 6.00000000E+00
	 2.50000000E-01	 1.00000000E+00	 6.00000000E+00
	-7.45058000E-09	 5.00000000E-01	 5.50000000E+00
	-7.45058000E-09	 7.50000000E-01	 6.00000000E+00
	-7.45058000E-09	 1.00000000E+00	 5.50000000E+00
	-7.45058000E-09	-1.49012000E-08	 6.00000000E+00
	 2.50000000E-01	-1.49012000E-08	 6.00000000E+00
	-7.45058000E-09	-1.49012000E-08	 5.50000000E+00
	-7.45058000E-09	 2.50000000E-01	 6.00000000E+00
	 1.00000000E+00	 5.00000000E-01	 7.00000000E+00
[...]
POINT_DATA 522
FIELD U 1
	U 3 522 double
		 0.00000000E+00	 0.00000000E+00	 0.00000000E+00
		 0.00000000E+00	 0.00000000E+00	 0.00000000E+00
		 5.34781000E-06	-5.99239000E-03	-3.03405000E-05
		-6.17255000E-04	-6.26418000E-03	 5.07275000E-03
		 0.00000000E+00	 0.00000000E+00	 0.00000000E+00
		 0.00000000E+00	 0.00000000E+00	 0.00000000E+00
		 8.30387000E-06	-6.31202000E-03	-2.81396000E-05
		-3.05905000E-05	-6.61124000E-03	 5.14798000E-03
		 0.00000000E+00	 0.00000000E+00	 0.00000000E+00
		 4.59255000E-08	-1.44581000E-03	-4.22817000E-06
		-3.06276000E-04	-6.01636000E-03	 2.41732000E-03
		-7.92418000E-04	-1.87577000E-03	 2.68248000E-03
		 0.00000000E+00	 0.00000000E+00	 0.00000000E+00
		 0.00000000E+00	 0.00000000E+00	 0.00000000E+00
		 6.25129000E-06	-6.25668000E-03	-2.92578000E-05
		-3.18814000E-04	-6.54236000E-03	 5.11943000E-03
		 0.00000000E+00	 0.00000000E+00	 0.00000000E+00
		 9.49885000E-07	-1.79824000E-03	-6.45884000E-06
		-1.08133000E-05	-6.34520000E-03	 2.45820000E-03
		-1.82021000E-05	-2.23827000E-03	 2.61853000E-03
		 0.00000000E+00	 0.00000000E+00	 0.00000000E+00
		 6.21818000E-04	-6.21717000E-03	-5.14005000E-03
		 0.00000000E+00	 0.00000000E+00	 0.00000000E+00
		 3.54813000E-05	-6.55767000E-03	-5.21463000E-03
		 0.00000000E+00	 0.00000000E+00	 0.00000000E+00
		 7.87152000E-04	-1.86034000E-03	-2.69911000E-03
		 3.14638000E-04	-5.99651000E-03	-2.47954000E-03
		 0.00000000E+00	 0.00000000E+00	 0.00000000E+00
		 3.24737000E-04	-6.49195000E-03	-5.18599000E-03
		 0.00000000E+00	 0.00000000E+00	 0.00000000E+00
		 9.85603000E-06	-2.22034000E-03	-2.63600000E-03
		 2.32582000E-05	-6.32141000E-03	-2.51767000E-03
		 0.00000000E+00	 0.00000000E+00	 0.00000000E+00
		 0.00000000E+00	 0.00000000E+00	 0.00000000E+00
		 9.00678000E-06	-6.05609000E-03	-1.95497000E-05
		 5.54648000E-04	-6.34044000E-03	 5.07851000E-03
		 0.00000000E+00	 0.00000000E+00	 0.00000000E+00
		 0.00000000E+00	 0.00000000E+00	 0.00000000E+00
		 1.01948000E-05	-6.28745000E-03	-2.59103000E-05
		 2.57070000E-04	-6.57852000E-03	 5.12511000E-03
		 0.00000000E+00	 0.00000000E+00	 0.00000000E+00
		-7.14726000E-07	-1.47276000E-03	-3.51457000E-06
		 2.84023000E-04	-6.08901000E-03	 2.41845000E-03
		 7.54871000E-04	-1.91005000E-03	 2.68316000E-03
		 0.00000000E+00	 0.00000000E+00	 0.00000000E+00
		-5.52268000E-04	-6.26591000E-03	-5.12866000E-03
		 0.00000000E+00	 0.00000000E+00	 0.00000000E+00
		-2.54264000E-04	-6.51673000E-03	-5.18908000E-03
		 0.00000000E+00	 0.00000000E+00	 0.00000000E+00
		-7.69180000E-04	-1.87544000E-03	-2.69274000E-03
		-2.69508000E-04	-6.04996000E-03	-2.46032000E-03
		 2.33197000E-05	-2.05984000E-02	-1.38075000E-04
		-3.56855000E-04	-2.08207000E-02	 7.99512000E-03
		 2.07445000E-05	-2.08302000E-02	-1.36947000E-04
		-4.73079000E-05	-2.10479000E-02	 8.01911000E-03
		 1.73716000E-05	-1.25731000E-02	-7.66868000E-05
		-1.69005000E-04	-2.06814000E-02	 3.86684000E-03
		-4.82129000E-04	-1.28670000E-02	 6.79758000E-03
		 2.19705000E-05	-2.07457000E-02	-1.38429000E-04
		-2.04347000E-04	-2.09648000E-02	 8.01948000E-03
		 1.71788000E-05	-1.28517000E-02	-7.27344000E-05
		-1.38364000E-05	-2.09127000E-02	 3.88979000E-03
		-3.48984000E-05	-1.31410000E-02	 6.83268000E-03
		 4.06679000E-04	-2.06765000E-02	-8.27471000E-03
		 1.00724000E-04	-2.09095000E-02	-8.29784000E-03
		 5.13882000E-04	-1.27714000E-02	-6.95209000E-03
		 2.16424000E-04	-2.06090000E-02	-4.14386000E-03
		 2.54610000E-04	-2.08225000E-02	-8.29890000E-03
		 6.89701000E-05	-1.30446000E-02	-6.98617000E-03
		 5.96684000E-05	-2.08437000E-02	-4.16461000E-03
		 2.18309000E-05	-2.07464000E-02	-1.31205000E-04
		 2.68852000E-04	-2.09517000E-02	 7.99709000E-03
		 2.01446000E-05	-2.08197000E-02	-1.34296000E-04
		 1.12837000E-04	-2.10324000E-02	 8.02359000E-03
		 1.72570000E-05	-1.26766000E-02	-6.32056000E-05
		 1.44686000E-04	-2.08177000E-02	 3.86620000E-03
		 4.11523000E-04	-1.29708000E-02	 6.80155000E-03
		-2.06946000E-04	-2.08335000E-02	-8.26645000E-03
		-5.45951000E-05	-2.09005000E-02	-8.29966000E-03
		-3.75256000E-04	-1.28743000E-02	-6.94306000E-03
		-9.59865000E-05	-2.07646000E-02	-4.12944000E-03
		 4.16919000E-05	-3.89399000E-02	-3.13006000E-04
		-2.86790000E-04	-3.90816000E-02	 9.10196000E-03
		 3.93809000E-05	-3.92320000E-02	-3.07126000E-04
		-1.99331000E-04	-3.93666000E-02	 9.12591000E-03
		 2.66670000E-05	-2.95133000E-02	-2.18241000E-04
		-1.24570000E-04	-3.89987000E-02	 4.37702000E-03
		-2.89159000E-04	-2.97036000E-02	 8.72011000E-03
		 4.05624000E-05	-3.91002000E-02	-3.09420000E-04
		-2.43513000E-04	-3.92353000E-02	 9.10220000E-03
		 2.42950000E-05	-2.97435000E-02	-2.15278000E-04
		-7.95401000E-05	-3.92870000E-02	 4.37699000E-03
		-9.41356000E-05	-2.99217000E-02	 8.74651000E-03
		 3.70896000E-04	-3.89047000E-02	-9.73086000E-03
		 2.77420000E-04	-3.91888000E-02	-9.74178000E-03
		 3.49568000E-04	-2.95352000E-02	-9.16419000E-03
		 2.08138000E-04	-3.89111000E-02	-5.00303000E-03
		 3.25240000E-04	-3.90588000E-02	-9.72509000E-03
		 1.53089000E-04	-2.97590000E-02	-9.18088000E-03
		 1.58214000E-04	-3.91996000E-02	-4.99164000E-03
		 3.77473000E-05	-3.94167000E-02	-3.00882000E-04
		-1.03967000E-04	-3.95520000E-02	 9.11028000E-03
		 3.84154000E-05	-3.93367000E-02	-3.04985000E-04
		-1.50639000E-04	-3.94733000E-02	 9.15080000E-03
		 2.57513000E-05	-2.97614000E-02	-2.10942000E-04
		-3.35626000E-05	-3.94710000E-02	 4.33988000E-03
		 1.13451000E-04	-2.99327000E-02	 8.72680000E-03
		 1.77592000E-04	-3.93717000E-02	-9.71181000E-03
		 2.25799000E-04	-3.92928000E-02	-9.75963000E-03
		-4.84364000E-05	-2.97837000E-02	-9.14906000E-03
		 1.08257000E-04	-3.93828000E-02	-4.94233000E-03
		 4.78454000E-05	-5.79201000E-02	-4.84400000E-04
		-6.46696000E-04	-5.80240000E-02	 9.16784000E-03
		 5.00791000E-05	-5.86075000E-02	-4.95828000E-04
		-6.32562000E-04	-5.87122000E-02	 9.15747000E-03
		 5.31261000E-05	-4.84693000E-02	-4.02764000E-04
		-3.00020000E-04	-5.79730000E-02	 4.38558000E-03
		-4.12283000E-04	-4.85923000E-02	 9.19503000E-03
		 4.94597000E-05	-5.82638000E-02	-4.91443000E-04
		-6.38689000E-04	-5.83673000E-02	 9.11976000E-03
		 5.27298000E-05	-4.89224000E-02	-4.04205000E-04
		-2.91736000E-04	-5.86608000E-02	 4.33307000E-03
		-3.85664000E-04	-4.90390000E-02	 9.20256000E-03
		 7.39858000E-04	-5.78325000E-02	-1.01371000E-02
		 7.32012000E-04	-5.85190000E-02	-1.01490000E-02
		 5.12378000E-04	-4.84098000E-02	-9.99960000E-03
		 3.95304000E-04	-5.78754000E-02	-5.35551000E-03
		 7.35405000E-04	-5.81756000E-02	-1.01018000E-02
		 4.86882000E-04	-4.88521000E-02	-1.00101000E-02
		 3.91599000E-04	-5.85629000E-02	-5.32496000E-03
		 4.99914000E-05	-5.92825000E-02	-5.07007000E-04
		-6.24181000E-04	-5.93901000E-02	 9.14506000E-03
		 5.03100000E-05	-5.89451000E-02	-5.00235000E-04
		-6.29304000E-04	-5.90503000E-02	 9.19190000E-03
		 5.01653000E-05	-4.93377000E-02	-4.03426000E-04
		-2.85439000E-04	-5.93366000E-02	 4.28036000E-03
		-3.52917000E-04	-4.94555000E-02	 9.19012000E-03
		 7.25978000E-04	-5.91997000E-02	-1.01594000E-02
		 7.30317000E-04	-5.88573000E-02	-1.01925000E-02
		 4.50888000E-04	-4.92672000E-02	-9.99686000E-03
		 3.86636000E-04	-5.92412000E-02	-5.29483000E-03
		 5.74764000E-05	-7.70003000E-02	-6.61784000E-04
		-9.96218000E-04	-7.71162000E-02	 9.19148000E-03
		 6.01557000E-05	-7.80273000E-02	-6.80243000E-04
		-9.47528000E-04	-7.81455000E-02	 9.17191000E-03
		 4.85109000E-05	-6.73504000E-02	-5.69019000E-04
		-4.69155000E-04	-7.70516000E-02	 4.27005000E-03
		-8.86531000E-04	-6.74568000E-02	 9.15979000E-03
		 5.77788000E-05	-7.75191000E-02	-6.70169000E-04
		-9.71878000E-04	-7.76374000E-02	 9.17948000E-03
		 5.04963000E-05	-6.82639000E-02	-5.84533000E-04
		-4.45120000E-04	-7.80782000E-02	 4.24884000E-03
		-8.51271000E-04	-6.83767000E-02	 9.14022000E-03
		 1.12259000E-03	-7.69161000E-02	-1.05231000E-02
		 1.07215000E-03	-7.79577000E-02	-1.05422000E-02
		 9.88939000E-04	-6.72590000E-02	-1.03037000E-02
		 5.86798000E-04	-7.69508000E-02	-5.59651000E-03
		 1.09744000E-03	-7.74462000E-02	-1.05274000E-02
		 9.53260000E-04	-6.81843000E-02	-1.03156000E-02
		 5.66971000E-04	-7.79864000E-02	-5.61191000E-03
		 6.42322000E-05	-7.90169000E-02	-6.92238000E-04
		-9.11166000E-04	-7.91422000E-02	 9.16224000E-03
		 6.25187000E-05	-7.85286000E-02	-6.88774000E-04
		-9.30595000E-04	-7.86476000E-02	 9.16555000E-03
		 5.15822000E-05	-6.91545000E-02	-5.99488000E-04
		-4.21824000E-04	-7.90726000E-02	 4.23780000E-03
		-8.34550000E-04	-6.92781000E-02	 9.12978000E-03
		 1.03454000E-03	-7.89497000E-02	-1.05580000E-02
		 1.05413000E-03	-7.84588000E-02	-1.05548000E-02
		 9.33012000E-04	-6.90809000E-02	-1.03354000E-02
		 5.48696000E-04	-7.89778000E-02	-5.62474000E-03
		 6.42476000E-05	-9.72357000E-02	-8.71839000E-04
		-7.87179000E-04	-9.73580000E-02	 9.27712000E-03
		 6.97344000E-05	-9.80832000E-02	-8.85554000E-04
		-7.52004000E-04	-9.81960000E-02	 9.26677000E-03
		 5.97785000E-05	-8.69898000E-02	-7.63087000E-04
		-3.62504000E-04	-9.72921000E-02	 4.17515000E-03
		-9.38324000E-04	-8.71069000E-02	 9.24559000E-03
		 6.51018000E-05	-9.76626000E-02	-8.77745000E-04
		-7.70376000E-04	-9.77797000E-02	 9.29520000E-03
		 6.61953000E-05	-8.79697000E-02	-7.81667000E-04
		-3.40770000E-04	-9.81339000E-02	 4.18551000E-03
		-8.87068000E-04	-8.80837000E-02	 9.23036000E-03
		 9.35285000E-04	-9.71451000E-02	-1.10163000E-02
		 9.04448000E-04	-9.80037000E-02	-1.10320000E-02
		 1.07754000E-03	-8.69016000E-02	-1.07748000E-02
		 4.97479000E-04	-9.71868000E-02	-5.91730000E-03
		 9.18534000E-04	-9.75788000E-02	-1.10468000E-02
		 1.03241000E-03	-8.78986000E-02	-1.07981000E-02
		 4.85325000E-04	-9.80409000E-02	-5.95538000E-03
		 7.74798000E-05	-9.88989000E-02	-9.09343000E-04
		-7.16137000E-04	-9.90091000E-02	 9.24479000E-03
		 7.49962000E-05	-9.84960000E-02	-8.96338000E-04
		-7.32883000E-04	-9.86070000E-02	 9.23662000E-03
		 7.60359000E-05	-8.89098000E-02	-7.96266000E-04
		-3.19385000E-04	-9.89483000E-02	 4.18373000E-03
		-8.43228000E-04	-8.90246000E-02	 9.21682000E-03
		 8.76551000E-04	-9.88245000E-02	-1.10557000E-02
		 8.91740000E-04	-9.84189000E-02	-1.10213000E-02
		 1.00128000E-03	-8.88469000E-02	-1.08153000E-02
		 4.75628000E-04	-9.88591000E-02	-6.00089000E-03
		 5.74104000E-05	-1.17903000E-01	-1.07250000E-03
		-6.39808000E-04	-1.18043000E-01	 9.28660000E-03
		 5.50132000E-05	-1.18601000E-01	-1.10532000E-03
		-6.20330000E-04	-1.18727000E-01	 9.24741000E-03
		 6.93274000E-05	-1.07551000E-01	-9.77467000E-04
		-2.92929000E-04	-1.17971000E-01	 4.10148000E-03
		-6.76632000E-04	-1.07683000E-01	 9.27740000E-03
		 5.75069000E-05	-1.18254000E-01	-1.09019000E-03
		-6.25488000E-04	-1.18385000E-01	 9.27145000E-03
		 6.63461000E-05	-1.08298000E-01	-9.93658000E-04
		-2.80278000E-04	-1.18660000E-01	 4.06885000E-03
		-6.58305000E-04	-1.08419000E-01	 9.26078000E-03
		 7.77546000E-04	-1.17802000E-01	-1.14408000E-02
		 7.35571000E-04	-1.18510000E-01	-1.14661000E-02
		 8.29747000E-04	-1.07457000E-01	-1.12275000E-02
		 4.14161000E-04	-1.17846000E-01	-6.25230000E-03
		 7.59242000E-04	-1.18160000E-01	-1.14590000E-02
		 7.96568000E-04	-1.08208000E-01	-1.12411000E-02
		 3.92262000E-04	-1.18552000E-01	-6.28256000E-03
		 5.21422000E-05	-1.19268000E-01	-1.12083000E-03
		-5.97915000E-04	-1.19397000E-01	 9.22513000E-03
		 5.23893000E-05	-1.18940000E-01	-1.11346000E-03
		-6.11912000E-04	-1.19066000E-01	 9.23181000E-03
		 6.36364000E-05	-1.09015000E-01	-1.02006000E-03
		-2.69817000E-04	-1.19331000E-01	 4.05162000E-03
		-6.32487000E-04	-1.09135000E-01	 9.23581000E-03
		 6.88276000E-04	-1.19168000E-01	-1.14734000E-02
		 7.08048000E-04	-1.18847000E-01	-1.14648000E-02
		 7.53297000E-04	-1.08920000E-01	-1.12658000E-02
		 3.71072000E-04	-1.19212000E-01	-6.29684000E-03
		-2.73804000E-05	-1.38953000E-01	-1.25855000E-03
		-6.48365000E-04	-1.39067000E-01	 9.23767000E-03
		 2.72251000E-05	-1.39570000E-01	-1.31869000E-03
		-6.12334000E-04	-1.39647000E-01	 9.15413000E-03
		 2.60630000E-05	-1.28399000E-01	-1.16068000E-03
		-3.48280000E-04	-1.39007000E-01	 3.98190000E-03
		-6.22213000E-04	-1.28531000E-01	 9.29070000E-03
		-8.57915000E-06	-1.39269000E-01	-1.29517000E-03
		-6.35907000E-04	-1.39356000E-01	 9.19742000E-03
		 4.23533000E-05	-1.29055000E-01	-1.21528000E-03
		-2.99354000E-04	-1.39602000E-01	 3.91258000E-03
		-6.00047000E-04	-1.29159000E-01	 9.21991000E-03
		 6.53689000E-04	-1.38871000E-01	-1.18053000E-02
		 6.69565000E-04	-1.39507000E-01	-1.18303000E-02
		 7.19372000E-04	-1.28287000E-01	-1.16477000E-02
		 3.08486000E-04	-1.38913000E-01	-6.51385000E-03
		 6.58542000E-04	-1.39203000E-01	-1.18329000E-02
		 6.88940000E-04	-1.28965000E-01	-1.16793000E-02
		 3.55741000E-04	-1.39544000E-01	-6.55967000E-03
		 7.90880000E-05	-1.40175000E-01	-1.31880000E-03
		-5.80861000E-04	-1.40276000E-01	 9.12512000E-03
		 6.18493000E-05	-1.39867000E-01	-1.32530000E-03
		-5.91387000E-04	-1.39953000E-01	 9.13129000E-03
		 5.76522000E-05	-1.29691000E-01	-1.21691000E-03
		-2.49732000E-04	-1.40223000E-01	 3.89654000E-03
		-5.85212000E-04	-1.29808000E-01	 9.19777000E-03
		 6.89783000E-04	-1.40075000E-01	-1.17928000E-02
		 6.82801000E-04	-1.39793000E-01	-1.18126000E-02
		 6.69042000E-04	-1.29581000E-01	-1.16569000E-02
		 3.95703000E-04	-1.40126000E-01	-6.54331000E-03
		 0.00000000E+00	 0.00000000E+00	 0.00000000E+00
		 0.00000000E+00	 0.00000000E+00	 0.00000000E+00
		 1.39747000E-05	-1.09755000E-02	-2.42538000E-04
		-2.56773000E-03	-1.17844000E-02	 1.12832000E-02
		 0.00000000E+00	 0.00000000E+00	 0.00000000E+00
		 0.00000000E+00	 0.00000000E+00	 0.00000000E+00
		-7.85433000E-06	-1.27621000E-02	-2.89910000E-04
		-1.04425000E-03	-1.36255000E-02	 1.13584000E-02
		 0.00000000E+00	 0.00000000E+00	 0.00000000E+00
		 2.86593000E-05	-2.10116000E-03	-8.43227000E-05
		-1.27898000E-03	-1.11107000E-02	 5.50576000E-03
		-2.20887000E-03	-3.12288000E-03	 5.71619000E-03
		 0.00000000E+00	 0.00000000E+00	 0.00000000E+00
		 0.00000000E+00	 0.00000000E+00	 0.00000000E+00
		 3.67255000E-06	-1.21272000E-02	-2.70955000E-04
		-1.79305000E-03	-1.29610000E-02	 1.12203000E-02
		 0.00000000E+00	 0.00000000E+00	 0.00000000E+00
		-2.97524000E-06	-3.38471000E-03	-1.05772000E-04
		-5.25244000E-04	-1.29132000E-02	 5.41689000E-03
		-5.14105000E-04	-4.39445000E-03	 5.53469000E-03
		 0.00000000E+00	 0.00000000E+00	 0.00000000E+00
		 2.57156000E-03	-1.15288000E-02	-1.18102000E-02
		 0.00000000E+00	 0.00000000E+00	 0.00000000E+00
		 1.01920000E-03	-1.33630000E-02	-1.19855000E-02
		 0.00000000E+00	 0.00000000E+00	 0.00000000E+00
		 2.25168000E-03	-3.06587000E-03	-5.91224000E-03
		 1.29742000E-03	-1.09823000E-02	-6.00342000E-03
		 0.00000000E+00	 0.00000000E+00	 0.00000000E+00
		 1.78872000E-03	-1.27005000E-02	-1.18050000E-02
		 0.00000000E+00	 0.00000000E+00	 0.00000000E+00
		 5.01455000E-04	-4.34639000E-03	-5.76346000E-03
		 5.04361000E-04	-1.27831000E-02	-6.01181000E-03
		 0.00000000E+00	 0.00000000E+00	 0.00000000E+00
		 0.00000000E+00	 0.00000000E+00	 0.00000000E+00
		-3.58382000E-05	-1.30399000E-02	-2.96199000E-04
		 4.82912000E-04	-1.38527000E-02	 1.12342000E-02
		 0.00000000E+00	 0.00000000E+00	 0.00000000E+00
		 0.00000000E+00	 0.00000000E+00	 0.00000000E+00
		-1.95975000E-05	-1.31590000E-02	-2.99128000E-04
		-2.90901000E-04	-1.39948000E-02	 1.13815000E-02
		 0.00000000E+00	 0.00000000E+00	 0.00000000E+00
		-4.23568000E-05	-3.11706000E-03	-1.12579000E-04
		 2.26078000E-04	-1.31761000E-02	 5.26708000E-03
		 1.21247000E-03	-4.10410000E-03	 5.69605000E-03
		 0.00000000E+00	 0.00000000E+00	 0.00000000E+00
		-5.51860000E-04	-1.35743000E-02	-1.18666000E-02
		 0.00000000E+00	 0.00000000E+00	 0.00000000E+00
		 2.40640000E-04	-1.37258000E-02	-1.20264000E-02
		 0.00000000E+00	 0.00000000E+00	 0.00000000E+00
		-1.29688000E-03	-4.04231000E-03	-5.93896000E-03
		-2.93679000E-04	-1.30376000E-02	-5.86976000E-03
		 2.98694000E-05	-4.45592000E-02	-9.79045000E-04
		-3.16037000E-03	-4.55403000E-02	 1.98818000E-02
		 9.27743000E-06	-4.71587000E-02	-1.05490000E-03
		-2.02920000E-03	-4.81526000E-02	 1.98640000E-02
		 1.89682000E-05	-2.52982000E-02	-5.30432000E-04
		-1.56371000E-03	-4.49221000E-02	 9.37208000E-03
		-2.94263000E-03	-2.62734000E-02	 1.60528000E-02
		 1.93848000E-05	-4.59854000E-02	-1.02630000E-03
		-2.59489000E-03	-4.69733000E-02	 1.98363000E-02
		-7.78439000E-06	-2.75481000E-02	-5.93496000E-04
		-1.00604000E-03	-4.75271000E-02	 9.29648000E-03
		-1.56263000E-03	-2.85302000E-02	 1.60450000E-02
		 3.21604000E-03	-4.46601000E-02	-2.18927000E-02
		 2.05555000E-03	-4.72812000E-02	-2.20283000E-02
		 2.96205000E-03	-2.57330000E-02	-1.71649000E-02
		 1.62032000E-03	-4.44842000E-02	-1.13425000E-02
		 2.63698000E-03	-4.61031000E-02	-2.19384000E-02
		 1.54767000E-03	-2.79878000E-02	-1.72903000E-02
		 1.03245000E-03	-4.70975000E-02	-1.14158000E-02
		-1.21321000E-05	-4.86436000E-02	-1.07976000E-03
		-8.85152000E-04	-4.95990000E-02	 1.97828000E-02
		-3.12811000E-06	-4.80257000E-02	-1.07134000E-03
		-1.45713000E-03	-4.90387000E-02	 1.99164000E-02
		-3.66761000E-05	-2.84103000E-02	-6.08264000E-04
		-4.58438000E-04	-4.89822000E-02	 9.15043000E-03
		-1.87877000E-04	-2.93833000E-02	 1.59717000E-02
		 9.13095000E-04	-4.87712000E-02	-2.19974000E-02
		 1.48412000E-03	-4.81485000E-02	-2.21187000E-02
		 1.42811000E-04	-2.88578000E-02	-1.72505000E-02
		 4.49835000E-04	-4.85884000E-02	-1.13175000E-02
		 1.79506000E-04	-9.38860000E-02	-2.38569000E-03
		-3.23069000E-03	-9.48258000E-02	 2.42292000E-02
		 1.65506000E-04	-9.69532000E-02	-2.41229000E-03
		-2.62470000E-03	-9.80202000E-02	 2.42574000E-02
		 7.74173000E-05	-6.77334000E-02	-1.59936000E-03
		-1.51872000E-03	-9.42702000E-02	 1.08192000E-02
		-3.25620000E-03	-6.87355000E-02	 2.25601000E-02
		 1.72566000E-04	-9.54991000E-02	-2.39989000E-03
		-2.92994000E-03	-9.65168000E-02	 2.42206000E-02
		 5.84895000E-05	-7.06197000E-02	-1.66522000E-03
		-1.25274000E-03	-9.74046000E-02	 1.07891000E-02
		-2.40182000E-03	-7.16418000E-02	 2.25638000E-02
		 3.54172000E-03	-9.34845000E-02	-2.90234000E-02
		 2.94463000E-03	-9.65606000E-02	-2.91390000E-02
		 3.40229000E-03	-6.75813000E-02	-2.58141000E-02
		 1.86265000E-03	-9.36139000E-02	-1.55874000E-02
		 3.23975000E-03	-9.50962000E-02	-2.90744000E-02
		 2.52788000E-03	-7.04654000E-02	-2.59446000E-02
		 1.55828000E-03	-9.66902000E-02	-1.56423000E-02
		 1.54255000E-04	-9.94486000E-02	-2.40958000E-03
		-2.12232000E-03	-1.00646000E-01	 2.42039000E-02
		 1.59233000E-04	-9.82918000E-02	-2.41710000E-03
		-2.37930000E-03	-9.92960000E-02	 2.43101000E-02
		 5.37377000E-05	-7.26586000E-02	-1.68880000E-03
		-9.49839000E-04	-9.99680000E-02	 1.06824000E-02
		-1.58250000E-03	-7.37081000E-02	 2.24828000E-02
		 2.37740000E-03	-9.90788000E-02	-2.91051000E-02
		 2.66156000E-03	-9.78853000E-02	-2.92000000E-02
		 1.66638000E-03	-7.25143000E-02	-2.59076000E-02
		 1.25660000E-03	-9.92090000E-02	-1.55543000E-02
		 6.04169000E-04	-1.51380000E-01	-4.25481000E-03
		-2.54630000E-03	-1.52097000E-01	 2.43958000E-02
		 5.87766000E-04	-1.54576000E-01	-4.16304000E-03
		-2.64603000E-03	-1.55758000E-01	 2.45335000E-02
		 3.27337000E-04	-1.22087000E-01	-3.28934000E-03
		-9.70400000E-04	-1.51730000E-01	 9.94421000E-03
		-3.00633000E-03	-1.23020000E-01	 2.47589000E-02
		 5.96428000E-04	-1.52946000E-01	-4.20779000E-03
		-2.58911000E-03	-1.53844000E-01	 2.45086000E-02
		 3.08019000E-04	-1.25297000E-01	-3.30445000E-03
		-9.04696000E-04	-1.55148000E-01	 1.00916000E-02
		-2.76491000E-03	-1.26201000E-01	 2.48829000E-02
		 3.57491000E-03	-1.50614000E-01	-3.29043000E-02
		 3.51650000E-03	-1.53637000E-01	-3.28501000E-02
		 3.61487000E-03	-1.21479000E-01	-3.13529000E-02
		 2.09136000E-03	-1.51010000E-01	-1.84521000E-02
		 3.54932000E-03	-1.52120000E-01	-3.29206000E-02
		 3.29469000E-03	-1.24639000E-01	-3.14046000E-02
		 2.04113000E-03	-1.54090000E-01	-1.84186000E-02
		 4.39816000E-04	-1.57750000E-01	-4.07233000E-03
		-2.60442000E-03	-1.59304000E-01	 2.45860000E-02
		 5.14557000E-04	-1.56128000E-01	-4.12000000E-03
		-2.62388000E-03	-1.58017000E-01	 2.45656000E-02
		 2.70641000E-04	-1.28206000E-01	-3.32810000E-03
		-1.19791000E-03	-1.58491000E-01	 1.01564000E-02
		-2.36231000E-03	-1.29012000E-01	 2.48666000E-02
		 3.48153000E-03	-1.56655000E-01	-3.27121000E-02