<?xml version="1.0"?>
<VTKFile type="UnstructuredGrid" version="0.1" byte_order="LittleEndian">
	<UnstructuredGrid>
		<Piece NumberOfPoints="522" NumberOfCells="64">
			<Points>
				<DataArray type="Float64" NumberOfComponents="3" format="ascii">
					 1.00000000E+00	 1.00000000E+00	-5.96046000E-08
					 1.00000000E+00	 5.00000000E-01	-5.96046000E-08
					 1.00000000E+00	 5.00000000E-01	 1.00000000E+00
					 1.00000000E+00	 1.00000000E+00	 1.00000000E+00
					 5.00000000E-01	 1.00000000E+00	-5.96046000E-08
					 5.00000000E-01	 5.00000000E-01	-5.96046000E-08
					 5.00000000E-01	 5.00000000E-01	 1.00000000E+00
					 5.00000000E-01	 1.00000000E+00	 1.00000000E+00
					 1.00000000E+00	 7.50000000E-01	-5.96046000E-08
					 1.00000000E+00	 5.00000000E-01	 5.00000000E-01
					 1.00000000E+00	 7.50000000E-01	 1.00000000E+00
					 1.00000000E+00	 1.00000000E+00	 5.00000000E-01
					 7.50000000E-01	 1.00000000E+00	-5.96046000E-08
					 7.50000000E-01	 5.00000000E-01	-5.96046000E-08
					 7.50000000E-01	 5.00000000E-01	 1.00000000E+00
					 7.50000000E-01	 1.00000000E+00	 1.00000000E+00
					 5.00000000E-01	 7.50000000E-01	-5.96046000E-08
					 5.00000000E-01	 5.00000000E-01	 5.00000000E-01
					 5.00000000E-01	 7.50000000E-01	 1.00000000E+00
					 5.00000000E-01	 1.00000000E+00	 5.00000000E-01
					 1.00000000E+00	-1.49012000E-08	-5.96046000E-08
					 1.00000000E+00	-1.49012000E-08	 1.00000000E+00
					 5.00000000E-01	-1.49012000E-08	-5.96046000E-08
					 5.00000000E-01	-1.49012000E-08	 1.00000000E+00
					 1.00000000E+00	 2.50000000E-01	-5.96046000E-08
					 1.00000000E+00	-1.49012000E-08	 5.00000000E-01
					 1.00000000E+00	 2.50000000E-01	 1.00000000E+00
					 7.50000000E-01	-1.49012000E-08	-5.96046000E-08
					 7.50000000E-01	-1.49012000E-08	 1.00000000E+00
					 5.00000000E-01	 2.50000000E-01	-5.96046000E-08
					 5.00000000E-01	-1.49012000E-08	 5.00000000E-01
					 5.00000000E-01	 2.50000000E-01	 1.00000000E+00
					-7.45058000E-09	 1.00000000E+00	-5.96046000E-08
					-7.45058000E-09	 5.00000000E-01	-5.96046000E-08
					-7.45058000E-09	 5.00000000E-01	 1.00000000E+00
					-7.45058000E-09	 1.00000000E+00	 1.00000000E+00
					 2.50000000E-01	 1.00000000E+00	-5.96046000E-08
					 2.50000000E-01	 5.00000000E-01	-5.96046000E-08
					 2.50000000E-01	 5.00000000E-01	 1.00000000E+00
					 2.50000000E-01	 1.00000000E+00	 1.00000000E+00
					-7.45058000E-09	 7.50000000E-01	-5.96046000E-08
					-7.45058000E-09	 5.00000000E-01	 5.00000000E-01
					-7.45058000E-09	 7.50000000E-01	 1.00000000E+00
					-7.45058000E-09	 1.00000000E+00	 5.00000000E-01
					-7.45058000E-09	-1.49012000E-08	-5.96046000E-08
					-7.45058000E-09	-1.49012000E-08	 1.00000000E+00
					 2.50000000E-01	-1.49012000E-08	-5.96046000E-08
					 2.50000000E-01	-1.49012000E-08	 1.00000000E+00
					-7.45058000E-09	 2.50000000E-01	-5.96046000E-08
					-7.45058000E-09	-1.49012000E-08	 5.00000000E-01
					-7.45058000E-09	 2.50000000E-01	 1.00000000E+00
					 1.00000000E+00	 5.00000000E-01	 2.00000000E+00
					 1.00000000E+00	 1.00000000E+00	 2.00000000E+00
					 5.00000000E-01	 5.00000000E-01	 2.00000000E+00
					 5.00000000E-01	 1.00000000E+00	 2.00000000E+00
					 1.00000000E+00	 5.00000000E-01	 1.50000000E+00
					 1.00000000E+00	 7.50000000E-01	 2.00000000E+00
					 1.00000000E+00	 1.00000000E+00	 1.50000000E+00
					 7.50000000E-01	 5.00000000E-01	 2.00000000E+00
					 7.50000000E-01	 1.00000000E+00	 2.00000000E+00
					 5.00000000E-01	 5.00000000E-01	 1.50000000E+00
					 5.00000000E-01	 7.50000000E-01	 2.00000000E+00
					 5.00000000E-01	 1.00000000E+00	 1.50000000E+00
					 1.00000000E+00	-1.49012000E-08	 2.00000000E+00
					 5.00000000E-01	-1.49012000E-08	 2.00000000E+00
					 1.00000000E+00	-1.49012000E-08	 1.50000000E+00
					 1.00000000E+00	 2.50000000E-01	 2.00000000E+00
					 7.50000000E-01	-1.49012000E-08	 2.00000000E+00
					 5.00000000E-01	-1.49012000E-08	 1.50000000E+00
					 5.00000000E-01	 2.50000000E-01	 2.00000000E+00
					-7.45058000E-09	 5.00000000E-01	 2.00000000E+00
					-7.45058000E-09	 1.00000000E+00	 2.00000000E+00
					 2.50000000E-01	 5.00000000E-01	 2.00000000E+00
					 2.50000000E-01	 1.00000000E+00	 2.00000000E+00
					-7.45058000E-09	 5.00000000E-01	 1.50000000E+00
					-7.45058000E-09	 7.50000000E-01	 2.00000000E+00
					-7.45058000E-09	 1.00000000E+00	 1.50000000E+00
					-7.45058000E-09	-1.49012000E-08	 2.00000000E+00
					 2.50000000E-01	-1.49012000E-08	 2.00000000E+00
					-7.45058000E-09	-1.49012000E-08	 1.50000000E+00
					-7.45058000E-09	 2.50000000E-01	 2.00000000E+00
					 1.00000000E+00	 5.00000000E-01	 3.00000000E+00
					 1.00000000E+00	 1.00000000E+00	 3.00000000E+00
					 5.00000000E-01	 5.00000000E-01	 3.00000000E+00
					 5.00000000E-01	 1.00000000E+00	 3.00000000E+00
					 1.00000000E+00	 5.00000000E-01	 2.50000000E+00
					 1.00000000E+00	 7.50000000E-01	 3.00000000E+00
					 1.00000000E+00	 1.00000000E+00	 2.50000000E+00
					 7.50000000E-01	 5.00000000E-01	 3.00000000E+00
					 7.50000000E-01	 1.00000000E+00	 3.00000000E+00
					 5.00000000E-01	 5.00000000E-01	 2.50000000E+00
					 5.00000000E-01	 7.50000000E-01	 3.00000000E+00
					 5.00000000E-01	 1.00000000E+00	 2.50000000E+00
					 1.00000000E+00	-1.49012000E-08	 3.00000000E+00
					 5.00000000E-01	-1.49012000E-08	 3.00000000E+00
					 1.00000000E+00	-1.49012000E-08	 2.50000000E+00
					 1.00000000E+00	 2.50000000E-01	 3.00000000E+00
					 7.50000000E-01	-1.49012000E-08	 3.00000000E+00
					 5.00000000E-01	-1.49012000E-08	 2.50000000E+00
					 5.00000000E-01	 2.50000000E-01	 3.00000000E+00
					-7.45058000E-09	 5.00000000E-01	 3.00000000E+00
					-7.45058000E-09	 1.00000000E+00	 3.00000000E+00
					 2.50000000E-01	 5.00000000E-01	 3.00000000E+00
					 2.50000000E-01	 1.00000000E+00	 3.00000000E+00
					-7.45058000E-09	 5.00000000E-01	 2.50000000E+00
					-7.45058000E-09	 7.50000000E-01	 3.00000000E+00
					-7.45058000E-09	 1.00000000E+00	 2.50000000E+00
					-7.45058000E-09	-1.49012000E-08	 3.00000000E+00
					 2.50000000E-01	-1.49012000E-08	 3.00000000E+00
					-7.45058000E-09	-1.49012000E-08	 2.50000000E+00
					-7.45058000E-09	 2.50000000E-01	 3.00000000E+00
					 1.00000000E+00	 5.00000000E-01	 4.00000000E+00
					 1.00000000E+00	 1.00000000E+00	 4.00000000E+00
					 5.00000000E-01	 5.00000000E-01	 4.00000000E+00
					 5.00000000E-01	 1.00000000E+00	 4.00000000E+00
					 1.00000000E+00	 5.00000000E-01	 3.50000000E+00
					 1.00000000E+00	 7.50000000E-01	 4.00000000E+00
					 1.00000000E+00	 1.00000000E+00	 3.50000000E+00
					 7.50000000E-01	 5.00000000E-01	 4.00000000E+00
					 7.50000000E-01	 1.00000000E+00	 4.00000000E+00
					 5.00000000E-01	 5.00000000E-01	 3.50000000E+00
					 5.00000000E-01	 7.50000000E-01	 4.00000000E+00
					 5.00000000E-01	 1.00000000E+00	 3.50000000E+00
					 1.00000000E+00	-1.49012000E-08	 4.00000000E+00
					 5.00000000E-01	-1.49012000E-08	 4.00000000E+00
					 1.00000000E+00	-1.49012000E-08	 3.50000000E+00
					 1.00000000E+00	 2.50000000E-01	 4.00000000E+00
					 7.50000000E-01	-1.49012000E-08	 4.00000000E+00
					 5.00000000E-01	-1.49012000E-08	 3.50000000E+00
					 5.00000000E-01	 2.50000000E-01	 4.00000000E+00
					-7.45058000E-09	 5.00000000E-01	 4.00000000E+00
					-7.45058000E-09	 1.00000000E+00	 4.00000000E+00
					 2.50000000E-01	 5.00000000E-01	 4.00000000E+00
					 2.50000000E-01	 1.00000000E+00	 4.00000000E+00
					-7.45058000E-09	 5.00000000E-01	 3.50000000E+00
					-7.45058000E-09	 7.50000000E-01	 4.00000000E+00
					-7.45058000E-09	 1.00000000E+00	 3.50000000E+00
					-7.45058000E-09	-1.49012000E-08	 4.00000000E+00
					 2.50000000E-01	-1.49012000E-08	 4.00000000E+00
					-7.45058000E-09	-1.49012000E-08	 3.50000000E+00
					-7.45058000E-09	 2.50000000E-01	 4.00000000E+00
					 1.00000000E+00	 5.00000000E-01	 5.00000000E+00
					 1.00000000E+00	 1.00000000E+00	 5.00000000E+00
					 5.00000000E-01	 5.00000000E-01	 5.00000000E+00
					 5.00000000E-01	 1.00000000E+00	 5.00000000E+00
					 1.00000000E+00	 5.00000000E-01	 4.50000000E+00
					 1.00000000E+00	 7.50000000E-01	 5.00000000E+00
					 1.00000000E+00	 1.00000000E+00	 4.50000000E+00
					 7.50000000E-01	 5.00000000E-01	 5.00000000E+00
					 7.50000000E-01	 1.00000000E+00	 5.00000000E+00
					 5.00000000E-01	 5.00000000E-01	 4.50000000E+00
					 5.00000000E-01	 7.50000000E-01	 5.00000000E+00
					 5.00000000E-01	 1.00000000E+00	 4.50000000E+00
					 1.00000000E+00	-1.49012000E-08	 5.00000000E+00
					 5.00000000E-01	-1.49012000E-08	 5.00000000E+00
					 1.00000000E+00	-1.49012000E-08	 4.50000000E+00
					 1.00000000E+00	 2.50000000E-01	 5.00000000E+00
					 7.50000000E-01	-1.49012000E-08	 5.00000000E+00
					 5.00000000E-01	-1.49012000E-08	 4.50000000E+00
					 5.00000000E-01	 2.50000000E-01	 5.00000000E+00
					-7.45058000E-09	 5.00000000E-01	 5.00000000E+00
					-7.45058000E-09	 1.00000000E+00	 5.00000000E+00
					 2.50000000E-01	 5.00000000E-01	 5.00000000E+00
					 2.50000000E-01	 1.00000000E+00	 5.00000000E+00
					-7.45058000E-09	 5.00000000E-01	 4.50000000E+00
					-7.45058000E-09	 7.50000000E-01	 5.00000000E+00
					-7.45058000E-09	 1.00000000E+00	 4.50000000E+00
					-7.45058000E-09	-1.49012000E-08	 5.00000000E+00
					 2.50000000E-01	-1.49012000E-08	 5.00000000E+00
					-7.45058000E-09	-1.49012000E-08	 4.50000000E+00
					-7.45058000E-09	 2.50000000E-01	 5.00000000E+00
					 1.00000000E+00	 5.00000000E-01	 6.00000000E+00
					 1.00000000E+00	 1.00000000E+00	 6.00000000E+00
					 5.00000000E-01	 5.00000000E-01	 6.00000000E+00
					 5.00000000E-01	 1.00000000E+00	 6.00000000E+00
					 1.00000000E+00	 5.00000000E-01	 5.50000000E+00
					 1.00000000E+00	 7.50000000E-01	 6.00000000E+00
					 1.00000000E+00	 1.00000000E+00	 5.50000000E+00
					 7.50000000E-01	 5.00000000E-01	 6.00000000E+00
					 7.50000000E-01	 1.00000000E+00	 6.00000000E+00
					 5.00000000E-01	 5.00000000E-01	 5.50000000E+00
					 5.00000000E-01	 7.50000000E-01	 6.00000000E+00
					 5.00000000E-01	 1.00000000E+00	 5.50000000E+00
					 1.00000000E+00	-1.49012000E-08	 6.00000000E+00
[...]
			<PointData>
				<DataArray type="Float32" Name="U" NumberOfComponents="3" ComponentName0="D1" ComponentName1="D2" ComponentName2="D3" format="ascii">
					 0.00000000E+00	 0.00000000E+00	 0.00000000E+00
					 0.00000000E+00	 0.00000000E+00	 0.00000000E+00
					-2.90827000E-06	-4.26953000E-04	-5.42486000E-06
					-1.03133000E-05	-4.28275000E-04	 2.63362000E-04
					 0.00000000E+00	 0.00000000E+00	 0.00000000E+00
					 0.00000000E+00	 0.00000000E+00	 0.00000000E+00
					-9.47287000E-06	-4.00502000E-04	-2.17855000E-05
					 5.44973000E-05	-4.26178000E-04	 2.61636000E-04
					 0.00000000E+00	 0.00000000E+00	 0.00000000E+00
					 1.28598000E-07	-1.28035000E-04	-1.41462000E-05
					-9.95682000E-06	-4.35517000E-04	 1.49075000E-04
					-2.29793000E-05	-1.94757000E-04	 1.61916000E-04
					 0.00000000E+00	 0.00000000E+00	 0.00000000E+00
					 0.00000000E+00	 0.00000000E+00	 0.00000000E+00
					-4.48549000E-06	-4.21876000E-04	-7.37547000E-06
					 2.73420000E-05	-4.25830000E-04	 2.65594000E-04
					 0.00000000E+00	 0.00000000E+00	 0.00000000E+00
					 2.74072000E-06	-1.26937000E-04	-1.81549000E-05
					 1.15173000E-05	-3.96420000E-04	 1.13701000E-04
					-1.50939000E-05	-1.55767000E-04	 1.39351000E-04
					 0.00000000E+00	 0.00000000E+00	 0.00000000E+00
					-2.38424000E-05	-4.47111000E-04	-2.59664000E-04
					 0.00000000E+00	 0.00000000E+00	 0.00000000E+00
					-4.26556000E-05	-3.94407000E-04	-2.89097000E-04
					 0.00000000E+00	 0.00000000E+00	 0.00000000E+00
					 6.03722000E-06	-1.75679000E-04	-1.82578000E-04
					-2.53329000E-05	-4.11237000E-04	-1.44096000E-04
					 0.00000000E+00	 0.00000000E+00	 0.00000000E+00
					-2.57583000E-05	-4.03270000E-04	-2.50475000E-04
					 0.00000000E+00	 0.00000000E+00	 0.00000000E+00
					-1.44592000E-05	-1.41583000E-04	-1.63441000E-04
					-4.44523000E-05	-4.06162000E-04	-1.29539000E-04
					 0.00000000E+00	 0.00000000E+00	 0.00000000E+00
					 0.00000000E+00	 0.00000000E+00	 0.00000000E+00
					 6.63879000E-06	-3.71054000E-04	-1.11561000E-05
					 4.44181000E-05	-3.52332000E-04	 2.64899000E-04
					 0.00000000E+00	 0.00000000E+00	 0.00000000E+00
					 0.00000000E+00	 0.00000000E+00	 0.00000000E+00
					 2.66834000E-06	-3.84536000E-04	-8.82631000E-06
					 3.76650000E-05	-3.80690000E-04	 3.04622000E-04
					 0.00000000E+00	 0.00000000E+00	 0.00000000E+00
					-9.40330000E-06	-1.11995000E-04	-1.54519000E-06
					 3.31813000E-05	-3.66043000E-04	 7.92914000E-05
					 4.76550000E-05	-1.09743000E-04	 1.24068000E-04
					 0.00000000E+00	 0.00000000E+00	 0.00000000E+00
					-3.68649000E-05	-3.48849000E-04	-2.78445000E-04
					 0.00000000E+00	 0.00000000E+00	 0.00000000E+00
					-3.11250000E-05	-3.77227000E-04	-3.23816000E-04
					 0.00000000E+00	 0.00000000E+00	 0.00000000E+00
					-8.00480000E-05	-1.50613000E-04	-1.18192000E-04
					-3.04796000E-05	-3.46465000E-04	-1.08734000E-04
					 1.29951000E-05	-9.10136000E-04	 6.06781000E-05
					-1.09384000E-04	-8.59521000E-04	 4.59489000E-04
					 1.57281000E-06	-9.93554000E-04	 5.05723000E-05
					-9.23303000E-05	-1.00128000E-03	 4.52988000E-04
					 1.58373000E-05	-6.43368000E-04	 1.96762000E-05
					-4.97320000E-05	-8.83735000E-04	 2.91588000E-04
					-4.24471000E-05	-6.25990000E-04	 3.34623000E-04
					 3.94941000E-08	-9.58307000E-04	 3.89291000E-05
					-8.68491000E-05	-9.65256000E-04	 4.05847000E-04
					-5.57080000E-06	-6.59994000E-04	 2.34262000E-05
					-3.21479000E-05	-9.86788000E-04	 2.60156000E-04
					-3.45375000E-06	-7.13619000E-04	 3.36287000E-04
					 1.08164000E-04	-8.81060000E-04	-3.64388000E-04
					 7.66044000E-05	-1.00783000E-03	-3.59933000E-04
					 5.85753000E-05	-6.13147000E-04	-3.20474000E-04
					 5.77917000E-05	-9.04349000E-04	-1.53110000E-04
					 9.72660000E-05	-9.59980000E-04	-3.89094000E-04
					 4.08128000E-05	-6.81739000E-04	-3.05142000E-04
					 2.94679000E-05	-9.90382000E-04	-1.74539000E-04
					 7.61133000E-06	-1.05478000E-03	 9.14385000E-06
					-5.03600000E-05	-1.08014000E-03	 3.97886000E-04
					 2.16015000E-05	-1.03441000E-03	 9.69773000E-06
					-7.38315000E-05	-1.05225000E-03	 4.02775000E-04
					 1.74404000E-05	-6.73858000E-04	-1.34098000E-06
					-6.28097000E-05	-1.06750000E-03	 2.29989000E-04
					 7.77845000E-06	-7.30167000E-04	 3.38163000E-04
					 8.95660000E-05	-1.07427000E-03	-4.28593000E-04
					 6.86302000E-05	-1.03571000E-03	-3.89813000E-04
					 2.97506000E-05	-7.01412000E-04	-3.36108000E-04
					 2.96181000E-05	-1.05666000E-03	-2.06928000E-04
					 3.30106000E-05	-1.90661000E-03	-2.52512000E-05
					 4.26411000E-05	-2.00120000E-03	 7.78607000E-04
					 5.44627000E-06	-1.85524000E-03	-5.38540000E-05
					 1.36981000E-04	-1.91299000E-03	 7.51627000E-04
					-1.21882000E-05	-1.33494000E-03	 3.07751000E-05
					-3.59746000E-07	-1.93049000E-03	 3.63016000E-04
					-1.21354000E-05	-1.34599000E-03	 5.54286000E-04
					 2.21391000E-05	-1.88234000E-03	-2.76263000E-05
					 8.41072000E-05	-1.94089000E-03	 8.11268000E-04
					-8.59497000E-08	-1.34992000E-03	 3.51220000E-06
					 5.71372000E-05	-1.85967000E-03	 3.94366000E-04
					 1.68882000E-06	-1.36650000E-03	 5.52210000E-04
					 3.04640000E-05	-2.00579000E-03	-8.41647000E-04
					-1.15277000E-04	-1.91512000E-03	-8.25135000E-04
					 3.77267000E-05	-1.38795000E-03	-4.92631000E-04
					 2.82910000E-05	-1.92043000E-03	-4.74441000E-04
					-4.23177000E-05	-1.97992000E-03	-8.27410000E-04
					-9.45100000E-06	-1.41145000E-03	-5.35700000E-04
					-4.15051000E-05	-1.87745000E-03	-4.72641000E-04
					-1.05655000E-05	-1.70367000E-03	-2.88289000E-05
					 1.99972000E-04	-1.72733000E-03	 7.67352000E-04
					-8.04327000E-06	-1.78439000E-03	-4.94630000E-05
					 1.61080000E-04	-1.80620000E-03	 7.21744000E-04
					-1.81399000E-05	-1.31939000E-03	-8.03604000E-06
					 1.29952000E-04	-1.70584000E-03	 4.62621000E-04
					 3.04816000E-05	-1.36221000E-03	 5.22385000E-04
					-1.94577000E-04	-1.76917000E-03	-8.54886000E-04
					-1.55898000E-04	-1.86310000E-03	-7.99598000E-04
					-2.74985000E-05	-1.34685000E-03	-5.49136000E-04
					-9.86943000E-05	-1.70593000E-03	-5.05619000E-04
					-1.73779000E-05	-4.06145000E-03	-4.51278000E-05
					-2.79045000E-04	-4.19189000E-03	 2.24301000E-03
					-5.59701000E-07	-4.17262000E-03	-5.14361000E-05
					 6.29343000E-05	-4.32127000E-03	 2.20039000E-03
					 2.05838000E-05	-2.61561000E-03	-4.55175000E-05
					-1.00122000E-04	-4.10087000E-03	 1.13273000E-03
					-5.76085000E-05	-2.73604000E-03	 1.38526000E-03
					-1.30297000E-05	-4.16994000E-03	-3.57133000E-05
					-1.04108000E-04	-4.36342000E-03	 2.19026000E-03
					 8.34061000E-06	-2.63005000E-03	-6.15750000E-05
					 2.70112000E-05	-4.20647000E-03	 1.10155000E-03
					 1.10194000E-04	-2.75012000E-03	 1.33439000E-03
					 2.73047000E-04	-4.22581000E-03	-2.28628000E-03
					-6.17837000E-05	-4.31040000E-03	-2.32880000E-03
					 1.09947000E-04	-2.72328000E-03	-1.46441000E-03
					 1.26172000E-04	-4.11520000E-03	-1.21872000E-03
					 1.13497000E-04	-4.31053000E-03	-2.27147000E-03
					-1.01129000E-04	-2.72655000E-03	-1.42375000E-03
					-2.38102000E-05	-4.20916000E-03	-1.21390000E-03
					-1.88819000E-06	-3.92012000E-03	-8.14583000E-05
					 4.39106000E-04	-4.09203000E-03	 2.24264000E-03
					 1.43660000E-05	-4.10786000E-03	-6.15811000E-05
					 2.42954000E-04	-4.28987000E-03	 2.22355000E-03
					 2.09947000E-05	-2.40734000E-03	-5.87639000E-05
					 1.63967000E-04	-3.99131000E-03	 1.06808000E-03
					 3.77494000E-04	-2.45860000E-03	 1.33895000E-03
					-4.30345000E-04	-4.06171000E-03	-2.33458000E-03
					-2.51689000E-04	-4.23185000E-03	-2.34932000E-03
					-3.73747000E-04	-2.49332000E-03	-1.43968000E-03
					-2.09449000E-04	-3.96515000E-03	-1.19359000E-03
					 2.59900000E-05	-1.05892000E-02	-9.88723000E-05
					-5.29809000E-04	-1.06899000E-02	 3.93596000E-03
					 2.98626000E-05	-1.10529000E-02	-4.79006000E-05
					-3.53490000E-04	-1.11766000E-02	 4.02012000E-03
					-4.18833000E-06	-6.82230000E-03	-6.62551000E-05
					-2.46784000E-04	-1.06104000E-02	 1.92438000E-03
					-4.34386000E-04	-6.91910000E-03	 3.21579000E-03
					 3.38222000E-05	-1.08567000E-02	-9.01561000E-05
					-4.56242000E-04	-1.09466000E-02	 3.96119000E-03
					 1.59670000E-06	-7.10947000E-03	-5.12815000E-05
					-1.43753000E-04	-1.10997000E-02	 1.91727000E-03
					-1.69326000E-04	-7.26006000E-03	 3.22622000E-03
					 5.71208000E-04	-1.06529000E-02	-4.19033000E-03
					 4.16506000E-04	-1.10909000E-02	-4.17732000E-03
					 4.55796000E-04	-6.92728000E-03	-3.36782000E-03
					 2.82824000E-04	-1.05961000E-02	-2.09496000E-03
					 4.82914000E-04	-1.09652000E-02	-4.16371000E-03
					 1.58920000E-04	-7.21723000E-03	-3.35917000E-03
					 2.15265000E-04	-1.10436000E-02	-2.07348000E-03
					 4.94089000E-05	-1.13035000E-02	-5.86624000E-05
					-1.50557000E-04	-1.14340000E-02	 4.01183000E-03
					 1.80534000E-05	-1.12229000E-02	-4.33695000E-05
					-2.46069000E-04	-1.13047000E-02	 4.06264000E-03
					-1.01681000E-05	-7.11369000E-03	-5.22887000E-05
					-2.74243000E-05	-1.13468000E-02	 1.86829000E-03
					 1.80505000E-04	-7.24020000E-03	 3.20971000E-03
					 1.84937000E-04	-1.14377000E-02	-4.13911000E-03
					 3.10559000E-04	-1.13063000E-02	-4.20261000E-03
					-1.62771000E-04	-7.19936000E-03	-3.32960000E-03
					 1.41533000E-04	-1.13588000E-02	-1.98184000E-03
					 5.28413000E-05	-1.97237000E-02	-1.51592000E-04
					-7.37000000E-04	-1.96381000E-02	 4.23674000E-03
					 3.62774000E-05	-2.04341000E-02	-1.48898000E-04
					-7.56551000E-04	-2.04214000E-02	 4.29957000E-03
					 3.09504000E-05	-1.50495000E-02	-1.35553000E-04
					-3.45603000E-04	-1.97008000E-02	 2.01544000E-03
					-6.43993000E-04	-1.50917000E-02	 4.28715000E-03
					 1.63541000E-05	-2.00479000E-02	-1.49580000E-04
					-7.14599000E-04	-2.00428000E-02	 4.24285000E-03
					 2.94429000E-05	-1.56871000E-02	-8.53929000E-05
					-3.69667000E-04	-2.04232000E-02	 2.04139000E-03
					-5.57145000E-04	-1.56788000E-02	 4.33820000E-03
					 6.23955000E-04	-1.97193000E-02	-4.55428000E-03
					 7.70028000E-04	-2.04050000E-02	-4.56378000E-03
					 6.30685000E-04	-1.50268000E-02	-4.53656000E-03
					 3.83053000E-04	-1.97155000E-02	-2.34247000E-03
					 7.22044000E-04	-2.00059000E-02	-4.51245000E-03
					 6.11543000E-04	-1.56894000E-02	-4.56881000E-03
					 4.20621000E-04	-2.04348000E-02	-2.29197000E-03
					 2.12575000E-05	-2.12481000E-02	-2.63164000E-05
					-8.50463000E-04	-2.13031000E-02	 4.31768000E-03
					 5.44903000E-05	-2.08173000E-02	-1.11622000E-04
					-8.09626000E-04	-2.08353000E-02	 4.32406000E-03
					 3.84037000E-05	-1.62586000E-02	-5.95307000E-05
					-3.93783000E-04	-2.12746000E-02	 2.09294000E-03
					-5.30227000E-04	-1.63475000E-02	 4.31856000E-03
					 9.25854000E-04	-2.12039000E-02	-4.47493000E-03
					 8.27403000E-04	-2.07871000E-02	-4.50813000E-03
					 5.74882000E-04	-1.62513000E-02	-4.49234000E-03
					 4.50749000E-04	-2.12038000E-02	-2.22842000E-03
					 8.20474000E-05	-2.77196000E-02	-1.08753000E-04
					-8.58931000E-04	-2.77399000E-02	 3.76772000E-03
					 4.07400000E-05	-2.86915000E-02	-1.23031000E-04
					-9.53211000E-04	-2.86612000E-02	 3.70170000E-03
					 4.23504000E-05	-2.38639000E-02	-1.13249000E-04
					-4.05656000E-04	-2.77427000E-02	 1.82581000E-03
					-7.66459000E-04	-2.38390000E-02	 4.04166000E-03
					 7.50683000E-05	-2.81850000E-02	-1.23613000E-04
					-9.02308000E-04	-2.81887000E-02	 3.73700000E-03
					 5.10167000E-05	-2.47165000E-02	-1.35083000E-04
					-4.50587000E-04	-2.86834000E-02	 1.82398000E-03
					-8.53910000E-04	-2.46806000E-02	 4.00614000E-03
					 1.01611000E-03	-2.76448000E-02	-4.03484000E-03
					 1.02002000E-03	-2.86405000E-02	-3.99956000E-03
					 8.56656000E-04	-2.38192000E-02	-4.31279000E-03
					 4.76023000E-04	-2.76883000E-02	-2.12852000E-03
					 1.00312000E-03	-2.81552000E-02	-4.00180000E-03
					 9.48623000E-04	-2.47001000E-02	-4.27954000E-03
					 5.11901000E-04	-2.86702000E-02	-2.09765000E-03
					 1.27847000E-05	-2.97183000E-02	-2.30386000E-04
					-1.00497000E-03	-2.96676000E-02	 3.73357000E-03
					 2.87920000E-05	-2.91872000E-02	-1.55455000E-04
					-9.92767000E-04	-2.92021000E-02	 3.72913000E-03
					 3.49317000E-05	-2.56639000E-02	-1.44288000E-04
					-4.92777000E-04	-2.97087000E-02	 1.77380000E-03
					-9.09623000E-04	-2.56479000E-02	 3.99619000E-03
					 1.02872000E-03	-2.96514000E-02	-4.04021000E-03
					 1.02994000E-03	-2.91289000E-02	-4.07303000E-03
					 1.02698000E-03	-2.55995000E-02	-4.26262000E-03
					 5.51972000E-04	-2.97046000E-02	-2.11728000E-03
					 1.18583000E-04	-3.51535000E-02	-7.15728000E-05
					-1.33585000E-03	-3.49282000E-02	 3.72026000E-03
					 2.12889000E-04	-3.63147000E-02	-2.38119000E-04
					-1.18260000E-03	-3.60775000E-02	 3.34941000E-03
					 4.59771000E-05	-3.15112000E-02	-8.92174000E-05
					-5.55726000E-04	-3.49753000E-02	 1.83795000E-03
					-9.54841000E-04	-3.14739000E-02	 3.72807000E-03
					 2.03515000E-04	-3.57441000E-02	-1.68195000E-04
					-1.30054000E-03	-3.55767000E-02	 3.45881000E-03
					 3.53962000E-05	-3.25074000E-02	-1.75036000E-04
					-4.71879000E-04	-3.62372000E-02	 1.61948000E-03
					-1.00016000E-03	-3.25050000E-02	 3.56311000E-03
					 8.46617000E-04	-3.55869000E-02	-4.04142000E-03
					 1.02335000E-03	-3.63375000E-02	-4.15078000E-03
					 1.11968000E-03	-3.14508000E-02	-4.01717000E-03
					 4.88522000E-04	-3.53993000E-02	-1.98331000E-03
					 9.48526000E-04	-3.59691000E-02	-4.16164000E-03
					 1.01498000E-03	-3.24550000E-02	-4.01111000E-03
					 6.28266000E-04	-3.63055000E-02	-2.13791000E-03
					 3.20169000E-04	-3.71070000E-02	 1.26977000E-04
					-1.13009000E-03	-3.71496000E-02	 3.43566000E-03
					 2.33369000E-04	-3.66881000E-02	-1.07100000E-04
					-1.09936000E-03	-3.65087000E-02	 3.37148000E-03
					 4.26183000E-06	-3.34796000E-02	-9.27790000E-05
					-3.72634000E-04	-3.71382000E-02	 1.76204000E-03
					-1.07185000E-03	-3.35414000E-02	 3.59696000E-03
					 9.51474000E-04	-3.70585000E-02	-3.93405000E-03
					 1.00335000E-03	-3.68106000E-02	-3.98097000E-03
					 9.24693000E-04	-3.32811000E-02	-3.93568000E-03
					 7.03636000E-04	-3.70934000E-02	-1.92939000E-03
					 0.00000000E+00	 0.00000000E+00	 0.00000000E+00
					 0.00000000E+00	 0.00000000E+00	 0.00000000E+00
					 1.70411000E-05	-1.70682000E-02	-2.43789000E-04
					-4.26677000E-03	-1.84917000E-02	 1.75236000E-02
					 0.00000000E+00	 0.00000000E+00	 0.00000000E+00
					 0.00000000E+00	 0.00000000E+00	 0.00000000E+00
					 8.46244000E-06	-2.01982000E-02	-4.14923000E-04
					-1.97348000E-03	-2.17107000E-02	 1.75631000E-02
					 0.00000000E+00	 0.00000000E+00	 0.00000000E+00
					 2.91366000E-05	-3.27834000E-03	-7.92667000E-05
					-2.13724000E-03	-1.74057000E-02	 8.54065000E-03
					-3.63617000E-03	-4.91263000E-03	 8.95862000E-03
					 0.00000000E+00	 0.00000000E+00	 0.00000000E+00
					 0.00000000E+00	 0.00000000E+00	 0.00000000E+00
					 1.80434000E-05	-1.90367000E-02	-3.16134000E-04
					-3.09509000E-03	-2.05082000E-02	 1.74176000E-02
					 0.00000000E+00	 0.00000000E+00	 0.00000000E+00
					-1.87647000E-05	-5.49282000E-03	-1.55031000E-04
					-9.71506000E-04	-2.05143000E-02	 8.37177000E-03
					-9.47757000E-04	-7.13061000E-03	 8.66554000E-03
					 0.00000000E+00	 0.00000000E+00	 0.00000000E+00
					 4.13556000E-03	-1.77068000E-02	-1.79721000E-02
					 0.00000000E+00	 0.00000000E+00	 0.00000000E+00
					 1.88048000E-03	-2.08526000E-02	-1.83699000E-02
					 0.00000000E+00	 0.00000000E+00	 0.00000000E+00
					 3.69405000E-03	-4.58380000E-03	-9.06150000E-03
					 2.07528000E-03	-1.69776000E-02	-8.97259000E-03
					 0.00000000E+00	 0.00000000E+00	 0.00000000E+00
					 2.99484000E-03	-1.96965000E-02	-1.80702000E-02
					 0.00000000E+00	 0.00000000E+00	 0.00000000E+00
					 9.52365000E-04	-6.86171000E-03	-8.91681000E-03
					 9.36402000E-04	-2.01187000E-02	-9.14534000E-03
					 0.00000000E+00	 0.00000000E+00	 0.00000000E+00
					 0.00000000E+00	 0.00000000E+00	 0.00000000E+00
					 4.37744000E-06	-2.10093000E-02	-4.55384000E-04
					 4.69194000E-04	-2.24387000E-02	 1.72916000E-02
					 0.00000000E+00	 0.00000000E+00	 0.00000000E+00
					 0.00000000E+00	 0.00000000E+00	 0.00000000E+00
					 1.58570000E-05	-2.10185000E-02	-4.25348000E-04
					-7.60827000E-04	-2.25100000E-02	 1.74855000E-02
					 0.00000000E+00	 0.00000000E+00	 0.00000000E+00
					-8.21758000E-05	-5.19551000E-03	-1.38382000E-04
					 2.01624000E-04	-2.13273000E-02	 8.08670000E-03
					 1.77080000E-03	-6.69894000E-03	 8.95702000E-03
					 0.00000000E+00	 0.00000000E+00	 0.00000000E+00
					-3.98928000E-04	-2.16971000E-02	-1.82396000E-02
					 0.00000000E+00	 0.00000000E+00	 0.00000000E+00
					 7.31573000E-04	-2.16662000E-02	-1.84521000E-02
					 0.00000000E+00	 0.00000000E+00	 0.00000000E+00
					-1.82093000E-03	-6.58475000E-03	-9.22420000E-03
					-1.93143000E-04	-2.09333000E-02	-8.97314000E-03
					 1.45986000E-05	-6.85679000E-02	-1.45575000E-03
					-4.85738000E-03	-7.05312000E-02	 2.94461000E-02
					-1.05777000E-04	-7.25765000E-02	-1.69604000E-03
					-3.22678000E-03	-7.44508000E-02	 2.93086000E-02
					-5.30696000E-05	-3.94186000E-02	-6.83321000E-04
					-2.44672000E-03	-6.93571000E-02	 1.38600000E-02
					-4.55590000E-03	-4.11828000E-02	 2.43338000E-02
					-3.30641000E-05	-7.07511000E-02	-1.59672000E-03
					-4.04705000E-03	-7.25946000E-02	 2.92932000E-02
					-2.81034000E-05	-4.30424000E-02	-8.65691000E-04
					-1.68831000E-03	-7.33604000E-02	 1.36236000E-02
					-2.65255000E-03	-4.47546000E-02	 2.42729000E-02
					 4.61712000E-03	-6.84111000E-02	-3.24356000E-02
					 3.20755000E-03	-7.21849000E-02	-3.26961000E-02
					 4.48652000E-03	-3.99016000E-02	-2.58296000E-02
					 2.41061000E-03	-6.83114000E-02	-1.67618000E-02
					 3.94113000E-03	-7.03273000E-02	-3.25548000E-02
					 2.64267000E-03	-4.33405000E-02	-2.60863000E-02
					 1.55047000E-03	-7.22290000E-02	-1.70200000E-02
					-9.41610000E-05	-7.50757000E-02	-1.85167000E-03
					-1.66338000E-03	-7.67501000E-02	 2.89231000E-02
					-9.71614000E-05	-7.39456000E-02	-1.81107000E-03
					-2.45567000E-03	-7.57871000E-02	 2.92900000E-02
					-2.53073000E-05	-4.47381000E-02	-1.00421000E-03
					-9.33803000E-04	-7.57271000E-02	 1.32205000E-02
					-6.14340000E-04	-4.63312000E-02	 2.40146000E-02
					 1.74610000E-03	-7.48106000E-02	-3.29211000E-02
					 2.47901000E-03	-7.36927000E-02	-3.29620000E-02
					 6.76710000E-04	-4.50019000E-02	-2.61217000E-02
					 7.97879000E-04	-7.47958000E-02	-1.70279000E-02
					 7.73305000E-05	-1.39852000E-01	-3.89622000E-03
					-5.69133000E-03	-1.41734000E-01	 3.42981000E-02
					 8.36289000E-05	-1.45199000E-01	-4.27729000E-03
					-4.92295000E-03	-1.47197000E-01	 3.40896000E-02
					-4.68201000E-05	-1.02364000E-01	-2.51885000E-03
					-2.80019000E-03	-1.40731000E-01	 1.51366000E-02
					-5.23943000E-03	-1.04259000E-01	 3.27115000E-02
					 7.15155000E-05	-1.42651000E-01	-4.11517000E-03
					-5.30242000E-03	-1.44539000E-01	 3.41144000E-02
					 1.63924000E-05	-1.07005000E-01	-2.83512000E-03
					-2.42704000E-03	-1.46081000E-01	 1.47218000E-02
					-4.10845000E-03	-1.08896000E-01	 3.24379000E-02
					 5.82890000E-03	-1.38558000E-01	-4.23396000E-02
					 5.11369000E-03	-1.44023000E-01	-4.28161000E-02
					 5.08056000E-03	-1.01812000E-01	-3.79252000E-02
					 2.93642000E-03	-1.39112000E-01	-2.30603000E-02
					 5.47863000E-03	-1.41415000E-01	-4.24191000E-02
					 4.07670000E-03	-1.06249000E-01	-3.82476000E-02
					 2.56393000E-03	-1.44557000E-01	-2.33326000E-02
					 6.98998000E-05	-1.49793000E-01	-4.47088000E-03
					-4.25765000E-03	-1.51942000E-01	 3.37250000E-02
					 7.92359000E-05	-1.47623000E-01	-4.39615000E-03
					-4.59698000E-03	-1.49506000E-01	 3.41507000E-02
					 3.38292000E-05	-1.10549000E-01	-3.02420000E-03
					-2.01685000E-03	-1.50776000E-01	 1.42176000E-02
					-3.01495000E-03	-1.12498000E-01	 3.21307000E-02
					 4.38417000E-03	-1.48648000E-01	-4.29339000E-02
					 4.75168000E-03	-1.46444000E-01	-4.31019000E-02
					 2.87243000E-03	-1.09707000E-01	-3.83879000E-02
					 2.26459000E-03	-1.49169000E-01	-2.32884000E-02
					 3.72800000E-04	-2.20774000E-01	-7.12355000E-03
					-6.06602000E-03	-2.22122000E-01	 3.28813000E-02