<?xml version="1.0"?>
<VTKFile type="UnstructuredGrid" version="0.1" byte_order="LittleEndian">
	<UnstructuredGrid>
		<Piece NumberOfPoints="522" NumberOfCells="64">
			<Points>
				<DataArray type="Float64" NumberOfComponents="3" format="ascii">
					 1.00000000E+00	 1.00000000E+00	-5.96046000E-08
					 1.00000000E+00	 5.00000000E-01	-5.96046000E-08
					 1.00000000E+00	 5.00000000E-01	 1.00000000E+00
					 1.00000000E+00	 1.00000000E+00	 1.00000000E+00
					 5.00000000E-01	 1.00000000E+00	-5.96046000E-08
					 5.00000000E-01	 5.00000000E-01	-5.96046000E-08
					 5.00000000E-01	 5.00000000E-01	 1.00000000E+00
					 5.00000000E-01	 1.00000000E+00	 1.00000000E+00
					 1.00000000E+00	 7.50000000E-01	-5.96046000E-08
					 1.00000000E+00	 5.00000000E-01	 5.00000000E-01
					 1.00000000E+00	 7.50000000E-01	 1.00000000E+00
					 1.00000000E+00	 1.00000000E+00	 5.00000000E-01
					 7.50000000E-01	 1.00000000E+00	-5.96046000E-08
					 7.50000000E-01	 5.00000000E-01	-5.96046000E-08
					 7.50000000E-01	 5.00000000E-01	 1.00000000E+00
					 7.50000000E-01	 1.00000000E+00	 1.00000000E+00
					 5.00000000E-01	 7.50000000E-01	-5.96046000E-08
					 5.00000000E-01	 5.00000000E-01	 5.00000000E-01
					 5.00000000E-01	 7.50000000E-01	 1.00000000E+00
					 5.00000000E-01	 1.00000000E+00	 5.00000000E-01
					 1.00000000E+00	-1.49012000E-08	-5.96046000E-08
					 1.00000000E+00	-1.49012000E-08	 1.00000000E+00
					 5.00000000E-01	-1.49012000E-08	-5.96046000E-08
					 5.00000000E-01	-1.49012000E-08	 1.00000000E+00
					 1.00000000E+00	 2.50000000E-01	-5.96046000E-08
					 1.00000000E+00	-1.49012000E-08	 5.00000000E-01
					 1.00000000E+00	 2.50000000E-01	 1.00000000E+00
					 7.50000000E-01	-1.49012000E-08	-5.96046000E-08
					 7.50000000E-01	-1.49012000E-08	 1.00000000E+00
					 5.00000000E-01	 2.50000000E-01	-5.96046000E-08
					 5.00000000E-01	-1.49012000E-08	 5.00000000E-01
					 5.00000000E-01	 2.50000000E-01	 1.00000000E+00
					-7.45058000E-09	 1.00000000E+00	-5.96046000E-08
					-7.45058000E-09	 5.00000000E-01	-5.96046000E-08
					-7.45058000E-09	 5.00000000E-01	 1.00000000E+00
					-7.45058000E-09	 1.00000000E+00	 1.00000000E+00
					 2.50000000E-01	 1.00000000E+00	-5.96046000E-08
					 2.50000000E-01	 5.00000000E-01	-5.96046000E-08
					 2.50000000E-01	 5.00000000E-01	 1.00000000E+00
					 2.50000000E-01	 1.00000000E+00	 1.00000000E+00
					-7.45058000E-09	 7.50000000E-01	-5.96046000E-08
					-7.45058000E-09	 5.00000000E-01	 5.00000000E-01
					-7.45058000E-09	 7.50000000E-01	 1.00000000E+00
					-7.45058000E-09	 1.00000000E+00	 5.00000000E-01
					-7.45058000E-09	-1.49012000E-08	-5.96046000E-08
					-7.45058000E-09	-1.49012000E-08	 1.00000000E+00
					 2.50000000E-01	-1.49012000E-08	-5.96046000E-08
					 2.50000000E-01	-1.49012000E-08	 1.00000000E+00
					-7.45058000E-09	 2.50000000E-01	-5.96046000E-08
					-7.45058000E-09	-1.49012000E-08	 5.00000000E-01
					-7.45058000E-09	 2.50000000E-01	 1.00000000E+00
					 1.00000000E+00	 5.00000000E-01	 2.00000000E+00
					 1.00000000E+00	 1.00000000E+00	 2.00000000E+00
					 5.00000000E-01	 5.00000000E-01	 2.00000000E+00
					 5.00000000E-01	 1.00000000E+00	 2.00000000E+00
					 1.00000000E+00	 5.00000000E-01	 1.50000000E+00
					 1.00000000E+00	 7.50000000E-01	 2.00000000E+00
					 1.00000000E+00	 1.00000000E+00	 1.50000000E+00
					 7.50000000E-01	 5.00000000E-01	 2.00000000E+00
					 7.50000000E-01	 1.00000000E+00	 2.00000000E+00
					 5.00000000E-01	 5.00000000E-01	 1.50000000E+00
					 5.00000000E-01	 7.50000000E-01	 2.00000000E+00
					 5.00000000E-01	 1.00000000E+00	 1.50000000E+00
					 1.00000000E+00	-1.49012000E-08	 2.00000000E+00
					 5.00000000E-01	-1.49012000E-08	 2.00000000E+00
					 1.00000000E+00	-1.49012000E-08	 1.50000000E+00
					 1.00000000E+00	 2.50000000E-01	 2.00000000E+00
					 7.50000000E-01	-1.49012000E-08	 2.00000000E+00
					 5.00000000E-01	-1.49012000E-08	 1.50000000E+00
					 5.00000000E-01	 2.50000000E-01	 2.00000000E+00
					-7.45058000E-09	 5.00000000E-01	 2.00000000E+00
					-7.45058000E-09	 1.00000000E+00	 2.00000000E+00
					 2.50000000E-01	 5.00000000E-01	 2.00000000E+00
					 2.50000000E-01	 1.00000000E+00	 2.00000000E+00
					-7.45058000E-09	 5.00000000E-01	 1.50000000E+00
					-7.45058000E-09	 7.50000000E-01	 2.00000000E+00
					-7.45058000E-09	 1.00000000E+00	 1.50000000E+00
					-7.45058000E-09	-1.49012000E-08	 2.00000000E+00
					 2.50000000E-01	-1.49012000E-08	 2.00000000E+00
					-7.45058000E-09	-1.49012000E-08	 1.50000000E+00
					-7.45058000E-09	 2.50000000E-01	 2.00000000E+00
					 1.00000000E+00	 5.00000000E-01	 3.00000000E+00
					 1.00000000E+00	 1.00000000E+00	 3.00000000E+00
					 5.00000000E-01	 5.00000000E-01	 3.00000000E+00
					 5.00000000E-01	 1.00000000E+00	 3.00000000E+00
					 1.00000000E+00	 5.00000000E-01	 2.50000000E+00
					 1.00000000E+00	 7.50000000E-01	 3.00000000E+00
					 1.00000000E+00	 1.00000000E+00	 2.50000000E+00
					 7.50000000E-01	 5.00000000E-01	 3.00000000E+00
					 7.50000000E-01	 1.00000000E+00	 3.00000000E+00
					 5.00000000E-01	 5.00000000E-01	 2.50000000E+00
					 5.00000000E-01	 7.50000000E-01	 3.00000000E+00
					 5.00000000E-01	 1.00000000E+00	 2.50000000E+00
					 1.00000000E+00	-1.49012000E-08	 3.00000000E+00
					 5.00000000E-01	-1.49012000E-08	 3.00000000E+00
					 1.00000000E+00	-1.49012000E-08	 2.50000000E+00
					 1.00000000E+00	 2.50000000E-01	 3.00000000E+00
					 7.50000000E-01	-1.49012000E-08	 3.00000000E+00
					 5.00000000E-01	-1.49012000E-08	 2.50000000E+00
					 5.00000000E-01	 2.50000000E-01	 3.00000000E+00
					-7.45058000E-09	 5.00000000E-01	 3.00000000E+00
					-7.45058000E-09	 1.00000000E+00	 3.00000000E+00
					 2.50000000E-01	 5.00000000E-01	 3.00000000E+00
					 2.50000000E-01	 1.00000000E+00	 3.00000000E+00
					-7.45058000E-09	 5.00000000E-01	 2.50000000E+00
					-7.45058000E-09	 7.50000000E-01	 3.00000000E+00
					-7.45058000E-09	 1.00000000E+00	 2.50000000E+00
					-7.45058000E-09	-1.49012000E-08	 3.00000000E+00
					 2.50000000E-01	-1.49012000E-08	 3.00000000E+00
					-7.45058000E-09	-1.49012000E-08	 2.50000000E+00
					-7.45058000E-09	 2.50000000E-01	 3.00000000E+00
					 1.00000000E+00	 5.00000000E-01	 4.00000000E+00
					 1.00000000E+00	 1.00000000E+00	 4.00000000E+00
					 5.00000000E-01	 5.00000000E-01	 4.00000000E+00
					 5.00000000E-01	 1.00000000E+00	 4.00000000E+00
					 1.00000000E+00	 5.00000000E-01	 3.50000000E+00
					 1.00000000E+00	 7.50000000E-01	 4.00000000E+00
					 1.00000000E+00	 1.00000000E+00	 3.50000000E+00
					 7.50000000E-01	 5.00000000E-01	 4.00000000E+00
					 7.50000000E-01	 1.00000000E+00	 4.00000000E+00
					 5.00000000E-01	 5.00000000E-01	 3.50000000E+00
					 5.00000000E-01	 7.50000000E-01	 4.00000000E+00
					 5.00000000E-01	 1.00000000E+00	 3.50000000E+00
					 1.00000000E+00	-1.49012000E-08	 4.00000000E+00
					 5.00000000E-01	-1.49012000E-08	 4.00000000E+00
					 1.00000000E+00	-1.49012000E-08	 3.50000000E+00
					 1.00000000E+00	 2.50000000E-01	 4.00000000E+00
					 7.50000000E-01	-1.49012000E-08	 4.00000000E+00
					 5.00000000E-01	-1.49012000E-08	 3.50000000E+00
					 5.00000000E-01	 2.50000000E-01	 4.00000000E+00
					-7.45058000E-09	 5.00000000E-01	 4.00000000E+00
					-7.45058000E-09	 1.00000000E+00	 4.00000000E+00
					 2.50000000E-01	 5.00000000E-01	 4.00000000E+00
					 2.50000000E-01	 1.00000000E+00	 4.00000000E+00
					-7.45058000E-09	 5.00000000E-01	 3.50000000E+00
					-7.45058000E-09	 7.50000000E-01	 4.00000000E+00
					-7.45058000E-09	 1.00000000E+00	 3.50000000E+00
					-7.45058000E-09	-1.49012000E-08	 4.00000000E+00
					 2.50000000E-01	-1.49012000E-08	 4.00000000E+00
					-7.45058000E-09	-1.49012000E-08	 3.50000000E+00
					-7.45058000E-09	 2.50000000E-01	 4.00000000E+00
					 1.00000000E+00	 5.00000000E-01	 5.00000000E+00
					 1.00000000E+00	 1.00000000E+00	 5.00000000E+00
					 5.00000000E-01	 5.00000000E-01	 5.00000000E+00
					 5.00000000E-01	 1.00000000E+00	 5.00000000E+00
					 1.00000000E+00	 5.00000000E-01	 4.50000000E+00
					 1.00000000E+00	 7.50000000E-01	 5.00000000E+00
					 1.00000000E+00	 1.00000000E+00	 4.50000000E+00
					 7.50000000E-01	 5.00000000E-01	 5.00000000E+00
					 7.50000000E-01	 1.00000000E+00	 5.00000000E+00
					 5.00000000E-01	 5.00000000E-01	 4.50000000E+00
					 5.00000000E-01	 7.50000000E-01	 5.00000000E+00
					 5.00000000E-01	 1.00000000E+00	 4.50000000E+00
					 1.00000000E+00	-1.49012000E-08	 5.00000000E+00
					 5.00000000E-01	-1.49012000E-08	 5.00000000E+00
					 1.00000000E+00	-1.49012000E-08	 4.50000000E+00
					 1.00000000E+00	 2.50000000E-01	 5.00000000E+00
					 7.50000000E-01	-1.49012000E-08	 5.00000000E+00
					 5.00000000E-01	-1.49012000E-08	 4.50000000E+00
					 5.00000000E-01	 2.50000000E-01	 5.00000000E+00
					-7.45058000E-09	 5.00000000E-01	 5.00000000E+00
					-7.45058000E-09	 1.00000000E+00	 5.00000000E+00
					 2.50000000E-01	 5.00000000E-01	 5.00000000E+00
					 2.50000000E-01	 1.00000000E+00	 5.00000000E+00
					-7.45058000E-09	 5.00000000E-01	 4.50000000E+00
					-7.45058000E-09	 7.50000000E-01	 5.00000000E+00
					-7.45058000E-09	 1.00000000E+00	 4.50000000E+00
					-7.45058000E-09	-1.49012000E-08	 5.00000000E+00
					 2.50000000E-01	-1.49012000E-08	 5.00000000E+00
					-7.45058000E-09	-1.49012000E-08	 4.50000000E+00
					-7.45058000E-09	 2.50000000E-01	 5.00000000E+00
					 1.00000000E+00	 5.00000000E-01	 6.00000000E+00
					 1.00000000E+00	 1.00000000E+00	 6.00000000E+00
					 5.00000000E-01	 5.00000000E-01	 6.00000000E+00
					 5.00000000E-01	 1.00000000E+00	 6.00000000E+00
					 1.00000000E+00	 5.00000000E-01	 5.50000000E+00
					 1.00000000E+00	 7.50000000E-01	 6.00000000E+00
					 1.00000000E+00	 1.00000000E+00	 5.50000000E+00
					 7.50000000E-01	 5.00000000E-01	 6.00000000E+00
					 7.50000000E-01	 1.00000000E+00	 6.00000000E+00
					 5.00000000E-01	 5.00000000E-01	 5.50000000E+00
					 5.00000000E-01	 7.50000000E-01	 6.00000000E+00
					 5.00000000E-01	 1.00000000E+00	 5.50000000E+00
					 1.00000000E+00	-1.49012000E-08	 6.00000000E+00
[...]
			<PointData>
				<DataArray type="Float32" Name="U" NumberOfComponents="3" ComponentName0="D1" ComponentName1="D2" ComponentName2="D3" format="ascii">
					 0.00000000E+00	 0.00000000E+00	 0.00000000E+00
					 0.00000000E+00	 0.00000000E+00	 0.00000000E+00
					-1.22603000E-05	 2.74343000E-03	 3.07663000E-05
					-6.86383000E-04	 2.77504000E-03	-1.37357000E-03
					 0.00000000E+00	 0.00000000E+00	 0.00000000E+00
					 0.00000000E+00	 0.00000000E+00	 0.00000000E+00
					-6.75223000E-06	 2.00058000E-03	 2.82418000E-05
					-8.06905000E-04	 2.04559000E-03	-1.40867000E-03
					 0.00000000E+00	 0.00000000E+00	 0.00000000E+00
					-6.86060000E-06	 9.05062000E-04	 1.53030000E-05
					-3.51756000E-04	 2.73172000E-03	-5.38750000E-04
					-1.65464000E-04	 9.93937000E-04	-7.72642000E-04
					 0.00000000E+00	 0.00000000E+00	 0.00000000E+00
					 0.00000000E+00	 0.00000000E+00	 0.00000000E+00
					-9.42441000E-06	 2.39615000E-03	 2.92729000E-05
					-7.47287000E-04	 2.43762000E-03	-1.47526000E-03
					 0.00000000E+00	 0.00000000E+00	 0.00000000E+00
					-2.02338000E-06	 6.05838000E-04	 1.23748000E-05
					-4.05839000E-04	 1.99399000E-03	-6.38302000E-04
					-3.91881000E-04	 7.16059000E-04	-7.62286000E-04
					 0.00000000E+00	 0.00000000E+00	 0.00000000E+00
					 6.61474000E-04	 2.79095000E-03	 1.43461000E-03
					 0.00000000E+00	 0.00000000E+00	 0.00000000E+00
					 7.93294000E-04	 2.06255000E-03	 1.46469000E-03
					 0.00000000E+00	 0.00000000E+00	 0.00000000E+00
					 1.51977000E-04	 1.00696000E-03	 8.04988000E-04
					 3.27099000E-04	 2.73901000E-03	 6.00176000E-04
					 0.00000000E+00	 0.00000000E+00	 0.00000000E+00
					 7.28153000E-04	 2.45467000E-03	 1.53293000E-03
					 0.00000000E+00	 0.00000000E+00	 0.00000000E+00
					 3.88271000E-04	 7.28192000E-04	 7.88768000E-04
					 3.92225000E-04	 2.00235000E-03	 6.94440000E-04
					 0.00000000E+00	 0.00000000E+00	 0.00000000E+00
					 0.00000000E+00	 0.00000000E+00	 0.00000000E+00
					-1.30166000E-06	 1.14248000E-03	 2.60512000E-05
					-9.17476000E-04	 1.18361000E-03	-1.37727000E-03
					 0.00000000E+00	 0.00000000E+00	 0.00000000E+00
					 0.00000000E+00	 0.00000000E+00	 0.00000000E+00
					-4.06050000E-06	 1.59716000E-03	 2.69978000E-05
					-8.60564000E-04	 1.63898000E-03	-1.32883000E-03
					 0.00000000E+00	 0.00000000E+00	 0.00000000E+00
					 2.26141000E-06	 1.24995000E-04	 1.16065000E-05
					-4.59971000E-04	 1.13601000E-03	-6.90736000E-04
					-5.87207000E-04	 2.45918000E-04	-7.75823000E-04
					 0.00000000E+00	 0.00000000E+00	 0.00000000E+00
					 9.15235000E-04	 1.19967000E-03	 1.42920000E-03
					 0.00000000E+00	 0.00000000E+00	 0.00000000E+00
					 8.52563000E-04	 1.65534000E-03	 1.38273000E-03
					 0.00000000E+00	 0.00000000E+00	 0.00000000E+00
					 5.92622000E-04	 2.56903000E-04	 8.00472000E-04
					 4.57345000E-04	 1.14426000E-03	 7.42481000E-04
					-2.59519000E-05	 7.36642000E-03	 5.89177000E-05
					-1.68771000E-03	 7.32513000E-03	-1.49670000E-03
					-1.77582000E-05	 5.75482000E-03	 5.78811000E-05
					-1.59380000E-03	 5.70478000E-03	-1.51178000E-03
					-1.87944000E-05	 5.05440000E-03	 4.39613000E-05
					-8.52435000E-04	 7.36181000E-03	-6.31619000E-04
					-1.21077000E-03	 5.06883000E-03	-1.59929000E-03
					-2.15253000E-05	 6.54838000E-03	 5.84586000E-05
					-1.64073000E-03	 6.49788000E-03	-1.56174000E-03
					-1.20542000E-05	 3.85956000E-03	 4.24979000E-05
					-8.06409000E-04	 5.74608000E-03	-6.95505000E-04
					-1.21808000E-03	 3.86572000E-03	-1.62488000E-03
					 1.63436000E-03	 7.34785000E-03	 1.61555000E-03
					 1.55807000E-03	 5.72827000E-03	 1.62858000E-03
					 1.17137000E-03	 5.08803000E-03	 1.68744000E-03
					 8.00023000E-04	 7.37242000E-03	 7.49549000E-04
					 1.59659000E-03	 6.52178000E-03	 1.67993000E-03
					 1.19347000E-03	 3.88649000E-03	 1.71016000E-03
					 7.70689000E-04	 5.75796000E-03	 8.11514000E-04
					-1.06676000E-05	 4.21390000E-03	 5.65624000E-05
					-1.50716000E-03	 4.16668000E-03	-1.49915000E-03
					-1.42234000E-05	 4.97035000E-03	 5.72708000E-05
					-1.55099000E-03	 4.92146000E-03	-1.46833000E-03
					-5.81435000E-06	 2.64177000E-03	 4.10711000E-05
					-7.60607000E-04	 4.20493000E-03	-7.28553000E-04
					-1.23643000E-03	 2.64506000E-03	-1.60158000E-03
					 1.48714000E-03	 4.18810000E-03	 1.61316000E-03
					 1.52325000E-03	 4.94390000E-03	 1.58366000E-03
					 1.22556000E-03	 2.66503000E-03	 1.68419000E-03
					 7.39579000E-04	 4.21601000E-03	 8.42024000E-04
					-4.26649000E-05	 1.03701000E-02	 9.75725000E-05
					-2.32977000E-03	 1.03313000E-02	-7.66731000E-04
					-3.23037000E-05	 8.12428000E-03	 9.60224000E-05
					-2.25036000E-03	 8.07947000E-03	-7.49702000E-04
					-3.44572000E-05	 9.18405000E-03	 7.76537000E-05
					-1.18378000E-03	 1.03612000E-02	-3.43110000E-04
					-2.05670000E-03	 9.14241000E-03	-1.12191000E-03
					-3.73459000E-05	 9.23761000E-03	 9.66971000E-05
					-2.29027000E-03	 9.19386000E-03	-7.88738000E-04
					-2.52315000E-05	 7.22669000E-03	 7.58271000E-05
					-1.14112000E-03	 8.11323000E-03	-3.68261000E-04
					-1.93261000E-03	 7.17447000E-03	-1.12309000E-03
					 2.24251000E-03	 1.03558000E-02	 9.61033000E-04
					 2.18540000E-03	 8.10570000E-03	 9.41290000E-04
					 1.98665000E-03	 9.16711000E-03	 1.27782000E-03
					 1.09788000E-03	 1.03737000E-02	 5.38158000E-04
					 2.21421000E-03	 9.21972000E-03	 9.81269000E-04
					 1.88232000E-03	 7.19933000E-03	 1.27533000E-03
					 1.07634000E-03	 8.12695000E-03	 5.60165000E-04
					-2.17697000E-05	 5.93427000E-03	 9.47325000E-05
					-2.16829000E-03	 5.89802000E-03	-7.69822000E-04
					-2.72589000E-05	 7.02032000E-03	 9.54455000E-05
					-2.20889000E-03	 6.97658000E-03	-7.04034000E-04
					-1.67633000E-05	 5.36870000E-03	 7.39664000E-05
					-1.09836000E-03	 5.92686000E-03	-4.32346000E-04
					-1.81192000E-03	 5.32556000E-03	-1.12604000E-03
					 2.12576000E-03	 5.92325000E-03	 9.59262000E-04
					 2.15499000E-03	 7.00243000E-03	 8.94848000E-04
					 1.78008000E-03	 5.34782000E-03	 1.27445000E-03
					 1.05505000E-03	 5.93990000E-03	 6.21638000E-04
					-4.53863000E-05	 1.21318000E-02	 1.31071000E-04
					-2.75506000E-03	 1.22066000E-02	-1.17110000E-03
					-3.18114000E-05	 9.31153000E-03	 1.34964000E-04
					-2.94884000E-03	 9.39443000E-03	-1.14745000E-03
					-4.54854000E-05	 1.11223000E-02	 1.15134000E-04
					-1.40387000E-03	 1.21406000E-02	-5.14454000E-04
					-2.51921000E-03	 1.11397000E-02	-7.65173000E-04
					-3.86719000E-05	 1.07477000E-02	 1.33491000E-04
					-2.85155000E-03	 1.08304000E-02	-1.20495000E-03
					-3.38555000E-05	 8.61446000E-03	 1.16409000E-04
					-1.48975000E-03	 9.32332000E-03	-5.49766000E-04
					-2.57585000E-03	 8.63380000E-03	-7.32317000E-04
					 2.66117000E-03	 1.22343000E-02	 1.43193000E-03
					 2.88193000E-03	 9.42644000E-03	 1.41585000E-03
					 2.42494000E-03	 1.11632000E-02	 9.94159000E-04
					 1.31220000E-03	 1.21543000E-02	 7.76009000E-04
					 2.77091000E-03	 1.08606000E-02	 1.47060000E-03
					 2.50594000E-03	 8.66139000E-03	 9.64202000E-04
					 1.42510000E-03	 9.33975000E-03	 8.19207000E-04
					-1.75281000E-05	 6.30171000E-03	 1.39512000E-04
					-3.13642000E-03	 6.37737000E-03	-1.16308000E-03
					-2.47127000E-05	 7.83383000E-03	 1.36730000E-04
					-3.04293000E-03	 7.91471000E-03	-1.08224000E-03
					-2.16892000E-05	 6.04122000E-03	 1.18086000E-04
					-1.57446000E-03	 6.31081000E-03	-6.25924000E-04
					-2.62403000E-03	 6.06350000E-03	-7.62505000E-04
					 3.09873000E-03	 6.41414000E-03	 1.44016000E-03
					 2.99029000E-03	 7.94869000E-03	 1.35422000E-03
					 2.57965000E-03	 6.09353000E-03	 9.98037000E-04
					 1.53881000E-03	 6.33029000E-03	 9.04179000E-04
					-7.01096000E-05	 1.72479000E-02	 1.46930000E-04
					-3.70578000E-03	 1.73172000E-02	-2.73011000E-03
					-5.17556000E-05	 1.35114000E-02	 1.55338000E-04
					-3.88171000E-03	 1.35813000E-02	-2.74010000E-03
					-5.21563000E-05	 1.41234000E-02	 1.44265000E-04
					-1.88957000E-03	 1.72565000E-02	-1.16790000E-03
					-3.16146000E-03	 1.41962000E-02	-1.95023000E-03
					-6.16358000E-05	 1.54055000E-02	 1.50404000E-04
					-3.79448000E-03	 1.54758000E-02	-2.81909000E-03
					-3.66804000E-05	 1.08809000E-02	 1.48943000E-04
					-1.96670000E-03	 1.35191000E-02	-1.24917000E-03
					-3.39629000E-03	 1.09644000E-02	-1.94705000E-03
					 3.56530000E-03	 1.73652000E-02	 3.01977000E-03
					 3.77575000E-03	 1.36323000E-02	 3.04652000E-03
					 3.05619000E-03	 1.42335000E-02	 2.23599000E-03
					 1.74928000E-03	 1.72790000E-02	 1.46101000E-03
					 3.67040000E-03	 1.55258000E-02	 3.11546000E-03
					 3.32022000E-03	 1.10047000E-02	 2.24183000E-03
					 1.86266000E-03	 1.35436000E-02	 1.55887000E-03
					-3.07756000E-05	 9.59026000E-03	 1.65034000E-04
					-4.06234000E-03	 9.64679000E-03	-2.71194000E-03
					-4.13170000E-05	 1.15758000E-02	 1.60547000E-04
					-3.97244000E-03	 1.16429000E-02	-2.66883000E-03
					-1.94081000E-05	 7.40711000E-03	 1.54823000E-04
					-2.04271000E-03	 9.59128000E-03	-1.29009000E-03
					-3.62438000E-03	 7.47998000E-03	-1.93978000E-03
					 3.99619000E-03	 9.70540000E-03	 3.03808000E-03
					 3.88571000E-03	 1.16964000E-02	 2.98607000E-03
					 3.58191000E-03	 7.52633000E-03	 2.24613000E-03
					 1.98017000E-03	 9.62065000E-03	 1.61898000E-03
					-9.89089000E-05	 2.50948000E-02	 1.24148000E-04
					-4.60957000E-03	 2.50686000E-02	-3.30990000E-03
					-7.45910000E-05	 2.06028000E-02	 1.48325000E-04
					-4.56417000E-03	 2.05653000E-02	-3.30014000E-03
					-8.88502000E-05	 2.11258000E-02	 1.36516000E-04
					-2.35058000E-03	 2.50870000E-02	-1.53069000E-03
					-4.24934000E-03	 2.11524000E-02	-3.17635000E-03
					-8.71542000E-05	 2.28469000E-02	 1.37317000E-04
					-4.58788000E-03	 2.28105000E-02	-3.33660000E-03
					-6.68534000E-05	 1.69353000E-02	 1.53877000E-04
					-2.32039000E-03	 2.05894000E-02	-1.54504000E-03
					-4.29907000E-03	 1.69502000E-02	-3.18346000E-03
					 4.41358000E-03	 2.51354000E-02	 3.56089000E-03
					 4.41460000E-03	 2.06302000E-02	 3.59919000E-03
					 4.07183000E-03	 2.12097000E-02	 3.44737000E-03
					 2.15332000E-03	 2.51187000E-02	 1.77956000E-03
					 4.41473000E-03	 2.28765000E-02	 3.61391000E-03
					 4.16355000E-03	 1.70091000E-02	 3.48905000E-03
					 2.17101000E-03	 2.06203000E-02	 1.84229000E-03
					-5.03028000E-05	 1.61171000E-02	 1.70261000E-04
					-4.53419000E-03	 1.60750000E-02	-3.26509000E-03
					-6.20356000E-05	 1.83563000E-02	 1.58682000E-04
					-4.54909000E-03	 1.83177000E-02	-3.26679000E-03
					-4.33112000E-05	 1.26628000E-02	 1.71197000E-04
					-2.29241000E-03	 1.60999000E-02	-1.53448000E-03
					-4.36772000E-03	 1.26652000E-02	-3.14247000E-03
					 4.43089000E-03	 1.61425000E-02	 3.60756000E-03
					 4.42308000E-03	 1.83832000E-02	 3.58595000E-03
					 4.27687000E-03	 1.27307000E-02	 3.48264000E-03
					 2.19088000E-03	 1.61328000E-02	 1.87593000E-03
					-1.14114000E-04	 3.20090000E-02	 1.22263000E-04
					-4.79106000E-03	 3.19532000E-02	-3.01302000E-03
					-9.16509000E-05	 2.73631000E-02	 1.41080000E-04
					-4.71655000E-03	 2.73038000E-02	-2.98756000E-03
					-1.04621000E-04	 2.87379000E-02	 1.20577000E-04
					-2.45251000E-03	 3.19871000E-02	-1.45680000E-03
					-4.76433000E-03	 2.86951000E-02	-3.19170000E-03
					-1.02426000E-04	 2.96787000E-02	 1.31428000E-04
					-4.75326000E-03	 2.96207000E-02	-2.99463000E-03
					-8.09095000E-05	 2.41139000E-02	 1.43721000E-04
					-2.40543000E-03	 2.73402000E-02	-1.42787000E-03
					-4.68482000E-03	 2.40620000E-02	-3.17177000E-03
					 4.56514000E-03	 3.20262000E-02	 3.25466000E-03
					 4.53308000E-03	 2.73735000E-02	 3.26732000E-03
					 4.55688000E-03	 2.87683000E-02	 3.43627000E-03
					 2.22465000E-03	 3.20253000E-02	 1.69983000E-03
					 4.55008000E-03	 2.96913000E-02	 3.25500000E-03
					 4.52330000E-03	 2.41319000E-02	 3.46277000E-03
					 2.22189000E-03	 2.73762000E-02	 1.70885000E-03
					-6.99193000E-05	 2.27636000E-02	 1.60429000E-04
					-4.64721000E-03	 2.27026000E-02	-2.96628000E-03
					-8.08860000E-05	 2.50577000E-02	 1.51311000E-04
					-4.68294000E-03	 2.49972000E-02	-2.97647000E-03
					-5.80254000E-05	 1.95337000E-02	 1.63779000E-04
					-2.35941000E-03	 2.27394000E-02	-1.40520000E-03
					-4.61852000E-03	 1.94799000E-02	-3.14790000E-03
					 4.50514000E-03	 2.27741000E-02	 3.28519000E-03
					 4.51925000E-03	 2.50673000E-02	 3.27752000E-03
					 4.50175000E-03	 1.95491000E-02	 3.47905000E-03
					 2.21889000E-03	 2.27770000E-02	 1.72443000E-03
					-1.39937000E-04	 3.79287000E-02	 1.14675000E-04
					-4.71077000E-03	 3.79000000E-02	-2.87945000E-03
					-1.07688000E-04	 3.33284000E-02	 1.30056000E-04
					-4.68564000E-03	 3.33060000E-02	-2.84130000E-03
					-1.25979000E-04	 3.49957000E-02	 1.21640000E-04
					-2.42375000E-03	 3.79148000E-02	-1.39119000E-03
					-4.74742000E-03	 3.49539000E-02	-2.90886000E-03
					-1.25320000E-04	 3.56321000E-02	 1.20977000E-04
					-4.69969000E-03	 3.56067000E-02	-2.85791000E-03
					-1.01638000E-04	 3.03818000E-02	 1.37490000E-04
					-2.39271000E-03	 3.33182000E-02	-1.35851000E-03
					-4.70409000E-03	 3.03410000E-02	-2.87577000E-03
					 4.44258000E-03	 3.79464000E-02	 3.09249000E-03
					 4.46863000E-03	 3.33414000E-02	 3.08479000E-03
					 4.50283000E-03	 3.50194000E-02	 3.13927000E-03
					 2.14707000E-03	 3.79363000E-02	 1.61572000E-03
					 4.45573000E-03	 3.56446000E-02	 3.08393000E-03
					 4.49961000E-03	 3.03994000E-02	 3.13812000E-03
					 2.17684000E-03	 3.33325000E-02	 1.61418000E-03
					-7.53890000E-05	 2.87419000E-02	 1.58485000E-04
					-4.65093000E-03	 2.87101000E-02	-2.80145000E-03
					-9.02007000E-05	 3.10313000E-02	 1.42690000E-04
					-4.66712000E-03	 3.10070000E-02	-2.82168000E-03
					-7.76171000E-05	 2.57937000E-02	 1.61972000E-04
					-2.35928000E-03	 2.87264000E-02	-1.32232000E-03
					-4.65637000E-03	 2.57463000E-02	-2.84469000E-03
					 4.48520000E-03	 2.87599000E-02	 3.10109000E-03
					 4.47667000E-03	 3.10461000E-02	 3.09048000E-03
					 4.49138000E-03	 2.58146000E-02	 3.15610000E-03
					 2.20469000E-03	 2.87499000E-02	 1.63423000E-03
					 0.00000000E+00	 0.00000000E+00	 0.00000000E+00
					 0.00000000E+00	 0.00000000E+00	 0.00000000E+00
					-1.87230000E-05	-5.48441000E-03	 2.26481000E-05
					-1.22323000E-03	-5.70687000E-03	 4.78276000E-03
					 0.00000000E+00	 0.00000000E+00	 0.00000000E+00
					 0.00000000E+00	 0.00000000E+00	 0.00000000E+00
					-1.37420000E-05	-6.44819000E-03	-5.47530000E-06
					-7.49098000E-04	-6.69355000E-03	 4.84833000E-03
					 0.00000000E+00	 0.00000000E+00	 0.00000000E+00
					-4.65959000E-06	-1.27142000E-03	 1.58828000E-05
					-6.20906000E-04	-5.49810000E-03	 2.31887000E-03
					-1.07276000E-03	-1.68864000E-03	 2.62508000E-03
					 0.00000000E+00	 0.00000000E+00	 0.00000000E+00
					 0.00000000E+00	 0.00000000E+00	 0.00000000E+00
					-1.52364000E-05	-6.05770000E-03	 8.05201000E-06
					-9.80724000E-04	-6.29175000E-03	 4.76843000E-03
					 0.00000000E+00	 0.00000000E+00	 0.00000000E+00
					-1.27915000E-06	-1.93740000E-03	 2.56796000E-06
					-3.82429000E-04	-6.46785000E-03	 2.28262000E-03
					-3.55182000E-04	-2.35126000E-03	 2.56171000E-03
					 0.00000000E+00	 0.00000000E+00	 0.00000000E+00
					 1.18490000E-03	-5.64221000E-03	-4.74761000E-03
					 0.00000000E+00	 0.00000000E+00	 0.00000000E+00
					 7.24373000E-04	-6.63021000E-03	-4.86969000E-03
					 0.00000000E+00	 0.00000000E+00	 0.00000000E+00
					 1.06429000E-03	-1.65257000E-03	-2.59639000E-03
					 5.82817000E-04	-5.46667000E-03	-2.27631000E-03
					 0.00000000E+00	 0.00000000E+00	 0.00000000E+00
					 9.50832000E-04	-6.22669000E-03	-4.76291000E-03
					 0.00000000E+00	 0.00000000E+00	 0.00000000E+00
					 3.55896000E-04	-2.32217000E-03	-2.55907000E-03
					 3.53936000E-04	-6.43732000E-03	-2.29717000E-03
					 0.00000000E+00	 0.00000000E+00	 0.00000000E+00
					 0.00000000E+00	 0.00000000E+00	 0.00000000E+00
					-1.27351000E-05	-6.95574000E-03	-2.92507000E-05
					-2.70388000E-04	-7.16641000E-03	 4.73227000E-03
					 0.00000000E+00	 0.00000000E+00	 0.00000000E+00
					 0.00000000E+00	 0.00000000E+00	 0.00000000E+00
					-1.25546000E-05	-6.79220000E-03	-1.88330000E-05
					-5.13158000E-04	-7.01851000E-03	 4.87952000E-03
					 0.00000000E+00	 0.00000000E+00	 0.00000000E+00
					-2.03790000E-06	-1.98177000E-03	-5.46425000E-06
					-1.44102000E-04	-6.96251000E-03	 2.12904000E-03
					 3.84656000E-04	-2.36555000E-03	 2.60323000E-03
					 0.00000000E+00	 0.00000000E+00	 0.00000000E+00
					 2.47629000E-04	-7.10925000E-03	-4.79860000E-03
					 0.00000000E+00	 0.00000000E+00	 0.00000000E+00
					 4.90017000E-04	-6.96220000E-03	-4.92643000E-03
					 0.00000000E+00	 0.00000000E+00	 0.00000000E+00
					-3.85924000E-04	-2.34138000E-03	-2.61779000E-03
					 1.19725000E-04	-6.93679000E-03	-2.18991000E-03
					-7.59335000E-05	-1.81153000E-02	-2.81930000E-05
					-1.62668000E-03	-1.81419000E-02	 6.29288000E-03
					-7.20743000E-05	-1.96923000E-02	-8.17233000E-05
					-1.67012000E-03	-1.97107000E-02	 6.28990000E-03
					-4.21532000E-05	-1.14215000E-02	 6.94170000E-06
					-8.55435000E-04	-1.81441000E-02	 3.06758000E-03
					-1.42056000E-03	-1.15951000E-02	 5.97609000E-03
					-7.41151000E-05	-1.88904000E-02	-5.68644000E-05
					-1.64805000E-03	-1.89073000E-02	 6.25710000E-03
					-3.89055000E-05	-1.26880000E-02	-3.58924000E-05
					-8.65328000E-04	-1.97168000E-02	 3.00397000E-03
					-1.18994000E-03	-1.28559000E-02	 5.99580000E-03
					 1.47517000E-03	-1.80534000E-02	-6.35156000E-03
					 1.51977000E-03	-1.96267000E-02	-6.45343000E-03
					 1.33469000E-03	-1.15119000E-02	-5.97198000E-03
					 7.03310000E-04	-1.81015000E-02	-3.12524000E-03
					 1.49871000E-03	-1.88259000E-02	-6.36999000E-03
					 1.11244000E-03	-1.27752000E-02	-6.07648000E-03
					 7.24097000E-04	-1.96775000E-02	-3.16497000E-03
					-7.40292000E-05	-2.13038000E-02	-1.36633000E-04
					-1.69058000E-03	-2.13062000E-02	 6.18338000E-03
					-7.32773000E-05	-2.04810000E-02	-1.06312000E-04
					-1.67931000E-03	-2.05233000E-02	 6.33151000E-03
					-3.87162000E-05	-1.37242000E-02	-7.71859000E-05
					-8.86858000E-04	-2.13155000E-02	 2.83634000E-03
					-9.54820000E-04	-1.38839000E-02	 5.89227000E-03
					 1.56611000E-03	-2.12411000E-02	-6.45736000E-03
					 1.54250000E-03	-2.04183000E-02	-6.54703000E-03
					 8.89362000E-04	-1.38172000E-02	-6.05300000E-03
					 7.45034000E-04	-2.12874000E-02	-3.10611000E-03
					-1.40134000E-04	-2.96771000E-02	-1.14667000E-04
					-2.39331000E-03	-2.94923000E-02	 4.68420000E-03
					-1.36272000E-04	-3.20688000E-02	-1.50318000E-04
					-2.71005000E-03	-3.19918000E-02	 4.65820000E-03
					-1.10450000E-04	-2.44387000E-02	-7.17042000E-05
					-1.26411000E-03	-2.96299000E-02	 2.33422000E-03
					-1.95041000E-03	-2.43812000E-02	 5.73160000E-03
					-1.37233000E-04	-3.08324000E-02	-1.28693000E-04
					-2.55462000E-03	-3.07122000E-02	 4.59272000E-03
					-1.08513000E-04	-2.63957000E-02	-1.24528000E-04
					-1.44646000E-03	-3.20820000E-02	 2.21385000E-03
					-2.18162000E-03	-2.63401000E-02	 5.71685000E-03
					 2.06641000E-03	-2.94915000E-02	-4.89390000E-03
					 2.42849000E-03	-3.18847000E-02	-4.97212000E-03
					 1.71786000E-03	-2.43163000E-02	-5.87044000E-03
					 9.68726000E-04	-2.96305000E-02	-2.55073000E-03
					 2.24501000E-03	-3.06376000E-02	-4.85926000E-03
					 1.96289000E-03	-2.62528000E-02	-5.96187000E-03
					 1.14820000E-03	-3.20291000E-02	-2.53340000E-03
					-1.34355000E-04	-3.47997000E-02	-1.91302000E-04
					-3.12482000E-03	-3.48573000E-02	 4.60710000E-03
					-1.35746000E-04	-3.34041000E-02	-1.72411000E-04
					-2.92099000E-03	-3.32610000E-02	 4.72720000E-03
					-9.85479000E-05	-2.85758000E-02	-1.80778000E-04
					-1.59367000E-03	-3.48840000E-02	 2.06791000E-03
					-2.43546000E-03	-2.85559000E-02	 5.62623000E-03
					 2.80888000E-03	-3.46495000E-02	-5.02879000E-03
					 2.61823000E-03	-3.32141000E-02	-5.08475000E-03
					 2.19801000E-03	-2.84352000E-02	-5.98630000E-03
					 1.32594000E-03	-3.47841000E-02	-2.49453000E-03
					-1.01171000E-04	-3.59740000E-02	-1.85380000E-04
					-3.27181000E-03	-3.57101000E-02	 2.24484000E-03