# vtk DataFile Version 3.0

ASCII
DATASET UNSTRUCTURED_GRID

POINTS 522 double
	 1.00000000E+00	 1.00000000E+00	-5.96046000E-08
	 1.00000000E+00	 5.00000000E-01	-5.96046000E-08
	 1.00000000E+00	 5.00000000E-01	 1.00000000E+00
	 1.00000000E+00	 1.00000000E+00	 1.00000000E+00
	 5.00000000E-01	 1.00000000E+00	-5.96046000E-08
	 5.00000000E-01	 5.00000000E-01	-5.96046000E-08
	 5.00000000E-01	 5.00000000E-01	 1.00000000E+00
	 5.00000000E-01	 1.00000000E+00	 1.00000000E+00
	 1.00000000E+00	 7.50000000E-01	-5.96046000E-08
	 1.00000000E+00	 5.00000000E-01	 5.00000000E-01
	 1.00000000E+00	 7.50000000E-01	 1.00000000E+00
	 1.00000000E+00	 1.00000000E+00	 5.00000000E-01
	 7.50000000E-01	 1.00000000E+00	-5.96046000E-08
	 7.50000000E-01	 5.00000000E-01	-5.96046000E-08
	 7.50000000E-01	 5.00000000E-01	 1.00000000E+00
	 7.50000000E-01	 1.00000000E+00	 1.00000000E+00
	 5.00000000E-01	 7.50000000E-01	-5.96046000E-08
	 5.00000000E-01	 5.00000000E-01	 5.00000000E-01
	 5.00000000E-01	 7.50000000E-01	 1.00000000E+00
	 5.00000000E-01	 1.00000000E+00	 5.00000000E-01
	 1.00000000E+00	-1.49012000E-08	-5.96046000E-08
	 1.00000000E+00	-1.49012000E-08	 1.00000000E+00
	 5.00000000E-01	-1.49012000E-08	-5.96046000E-08
	 5.00000000E-01	-1.49012000E-08	 1.00000000E+00
	 1.00000000E+00	 2.50000000E-01	-5.96046000E-08
	 1.00000000E+00	-1.49012000E-08	 5.00000000E-01
	 1.00000000E+00	 2.50000000E-01	 1.00000000E+00
	 7.50000000E-01	-1.49012000E-08	-5.96046000E-08
	 7.50000000E-01	-1.49012000E-08	 1.00000000E+00
	 5.00000000E-01	 2.50000000E-01	-5.96046000E-08
	 5.00000000E-01	-1.49012000E-08	 5.00000000E-01
	 5.00000000E-01	 2.50000000E-01	 1.00000000E+00
	-7.45058000E-09	 1.00000000E+00	-5.96046000E-08
	-7.45058000E-09	 5.00000000E-01	-5.96046000E-08
	-7.45058000E-09	 5.00000000E-01	 1.00000000E+00
	-7.45058000E-09	 1.00000000E+00	 1.00000000E+00
	 2.50000000E-01	 1.00000000E+00	-5.96046000E-08
	 2.50000000E-01	 5.00000000E-01	-5.96046000E-08
	 2.50000000E-01	 5.00000000E-01	 1.00000000E+00
	 2.50000000E-01	 1.00000000E+00	 1.00000000E+00
	-7.45058000E-09	 7.50000000E-01	-5.96046000E-08
	-7.45058000E-09	 5.00000000E-01	 5.00000000E-01
	-7.45058000E-09	 7.50000000E-01	 1.00000000E+00
	-7.45058000E-09	 1.00000000E+00	 5.00000000E-01
	-7.45058000E-09	-1.49012000E-08	-5.96046000E-08
	-7.45058000E-09	-1.49012000E-08	 1.00000000E+00
	 2.50000000E-01	-1.49012000E-08	-5.96046000E-08
	 2.50000000E-01	-1.49012000E-08	 1.00000000E+00
	-7.45058000E-09	 2.50000000E-01	-5.96046000E-08
	-7.45058000E-09	-1.49012000E-08	 5.00000000E-01
	-7.45058000E-09	 2.50000000E-01	 1.00000000E+00
	 1.00000000E+00	 5.00000000E-01	 2.00000000E+00
	 1.00000000E+00	 1.00000000E+00	 2.00000000E+00
	 5.00000000E-01	 5.00000000E-01	 2.00000000E+00
	 5.00000000E-01	 1.00000000E+00	 2.00000000E+00
	 1.00000000E+00	 5.00000000E-01	 1.50000000E+00
	 1.00000000E+00	 7.50000000E-01	 2.00000000E+00
	 1.00000000E+00	 1.00000000E+00	 1.50000000E+00
	 7.50000000E-01	 5.00000000E-01	 2.00000000E+00
	 7.50000000E-01	 1.00000000E+00	 2.00000000E+00
	 5.00000000E-01	 5.00000000E-01	 1.50000000E+00
	 5.00000000E-01	 7.50000000E-01	 2.00000000E+00
	 5.00000000E-01	 1.00000000E+00	 1.50000000E+00
	 1.00000000E+00	-1.49012000E-08	 2.00000000E+00
	 5.00000000E-01	-1.49012000E-08	 2.00000000E+00
	 1.00000000E+00	-1.49012000E-08	 1.50000000E+00
	 1.00000000E+00	 2.50000000E-01	 2.00000000E+00
	 7.50000000E-01	-1.49012000E-08	 2.00000000E+00
	 5.00000000E-01	-1.49012000E-08	 1.50000000E+00
	 5.00000000E-01	 2.50000000E-01	 2.00000000E+00
	-7.45058000E-09	 5.00000000E-01	 2.00000000E+00
	-7.45058000E-09	 1.00000000E+00	 2.00000000E+00
	 2.50000000E-01	 5.00000000E-01	 2.00000000E+00
	 2.50000000E-01	 1.00000000E+00	 2.00000000E+00
	-7.45058000E-09	 5.00000000E-01	 1.50000000E+00
	-7.45058000E-09	 7.50000000E-01	 2.00000000E+00
	-7.45058000E-09	 1.00000000E+00	 1.50000000E+00
	-7.45058000E-09	-1.49012000E-08	 2.00000000E+00
	 2.50000000E-01	-1.49012000E-08	 2.00000000E+00
	-7.45058000E-09	-1.49012000E-08	 1.50000000E+00
	-7.45058000E-09	 2.50000000E-01	 2.00000000E+00
	 1.00000000E+00	 5.00000000E-01	 3.00000000E+00
	 1.00000000E+00	 1.00000000E+00	 3.00000000E+00
	 5.00000000E-01	 5.00000000E-01	 3.00000000E+00
	 5.00000000E-01	 1.00000000E+00	 3.00000000E+00
	 1.00000000E+00	 5.00000000E-01	 2.50000000E+00
	 1.00000000E+00	 7.50000000E-01	 3.00000000E+00
	 1.00000000E+00	 1.00000000E+00	 2.50000000E+00
	 7.50000000E-01	 5.00000000E-01	 3.00000000E+00
	 7.50000000E-01	 1.00000000E+00	 3.00000000E+00
	 5.00000000E-01	 5.00000000E-01	 2.50000000E+00
	 5.00000000E-01	 7.50000000E-01	 3.00000000E+00
	 5.00000000E-01	 1.00000000E+00	 2.50000000E+00
	 1.00000000E+00	-1.49012000E-08	 3.00000000E+00
	 5.00000000E-01	-1.49012000E-08	 3.00000000E+00
	 1.00000000E+00	-1.49012000E-08	 2.50000000E+00
	 1.00000000E+00	 2.50000000E-01	 3.00000000E+00
	 7.50000000E-01	-1.49012000E-08	 3.00000000E+00
	 5.00000000E-01	-1.49012000E-08	 2.50000000E+00
	 5.00000000E-01	 2.50000000E-01	 3.00000000E+00
	-7.45058000E-09	 5.00000000E-01	 3.00000000E+00
	-7.45058000E-09	 1.00000000E+00	 3.00000000E+00
	 2.50000000E-01	 5.00000000E-01	 3.00000000E+00
	 2.50000000E-01	 1.00000000E+00	 3.00000000E+00
	-7.45058000E-09	 5.00000000E-01	 2.50000000E+00
	-7.45058000E-09	 7.50000000E-01	 3.00000000E+00
	-7.45058000E-09	 1.00000000E+00	 2.50000000E+00
	-7.45058000E-09	-1.49012000E-08	 3.00000000E+00
	 2.50000000E-01	-1.49012000E-08	 3.00000000E+00
	-7.45058000E-09	-1.49012000E-08	 2.50000000E+00
	-7.45058000E-09	 2.50000000E-01	 3.00000000E+00
	 1.00000000E+00	 5.00000000E-01	 4.00000000E+00
	 1.00000000E+00	 1.00000000E+00	 4.00000000E+00
	 5.00000000E-01	 5.00000000E-01	 4.00000000E+00
	 5.00000000E-01	 1.00000000E+00	 4.00000000E+00
	 1.00000000E+00	 5.00000000E-01	 3.50000000E+00
	 1.00000000E+00	 7.50000000E-01	 4.00000000E+00
	 1.00000000E+00	 1.00000000E+00	 3.50000000E+00
	 7.50000000E-01	 5.00000000E-01	 4.00000000E+00
	 7.50000000E-01	 1.00000000E+00	 4.00000000E+00
	 5.00000000E-01	 5.00000000E-01	 3.50000000E+00
	 5.00000000E-01	 7.50000000E-01	 4.00000000E+00
	 5.00000000E-01	 1.00000000E+00	 3.50000000E+00
	 1.00000000E+00	-1.49012000E-08	 4.00000000E+00
	 5.00000000E-01	-1.49012000E-08	 4.00000000E+00
	 1.00000000E+00	-1.49012000E-08	 3.50000000E+00
	 1.00000000E+00	 2.50000000E-01	 4.00000000E+00
	 7.50000000E-01	-1.49012000E-08	 4.00000000E+00
	 5.00000000E-01	-1.49012000E-08	 3.50000000E+00
	 5.00000000E-01	 2.50000000E-01	 4.00000000E+00
	-7.45058000E-09	 5.00000000E-01	 4.00000000E+00
	-7.45058000E-09	 1.00000000E+00	 4.00000000E+00
	 2.50000000E-01	 5.00000000E-01	 4.00000000E+00
	 2.50000000E-01	 1.00000000E+00	 4.00000000E+00
	-7.45058000E-09	 5.00000000E-01	 3.50000000E+00
	-7.45058000E-09	 7.50000000E-01	 4.00000000E+00
	-7.45058000E-09	 1.00000000E+00	 3.50000000E+00
	-7.45058000E-09	-1.49012000E-08	 4.00000000E+00
	 2.50000000E-01	-1.49012000E-08	 4.00000000E+00
	-7.45058000E-09	-1.49012000E-08	 3.50000000E+00
	-7.45058000E-09	 2.50000000E-01	 4.00000000E+00
	 1.00000000E+00	 5.00000000E-01	 5.00000000E+00
	 1.00000000E+00	 1.00000000E+00	 5.00000000E+00
	 5.00000000E-01	 5.00000000E-01	 5.00000000E+00
	 5.00000000E-01	 1.00000000E+00	 5.00000000E+00
	 1.00000000E+00	 5.00000000E-01	 4.50000000E+00
	 1.00000000E+00	 7.50000000E-01	 5.00000000E+00
	 1.00000000E+00	 1.00000000E+00	 4.50000000E+00
	 7.50000000E-01	 5.00000000E-01	 5.00000000E+00
	 7.50000000E-01	 1.00000000E+00	 5.00000000E+00
	 5.00000000E-01	 5.00000000E-01	 4.50000000E+00
	 5.00000000E-01	 7.50000000E-01	 5.00000000E+00
	 5.00000000E-01	 1.00000000E+00	 4.50000000E+00
	 1.00000000E+00	-1.49012000E-08	 5.00000000E+00
	 5.00000000E-01	-1.49012000E-08	 5.00000000E+00
	 1.00000000E+00	-1.49012000E-08	 4.50000000E+00
	 1.00000000E+00	 2.50000000E-01	 5.00000000E+00
	 7.50000000E-01	-1.49012000E-08	 5.00000000E+00
	 5.00000000E-01	-1.49012000E-08	 4.50000000E+00
	 5.00000000E-01	 2.50000000E-01	 5.00000000E+00
	-7.45058000E-09	 5.00000000E-01	 5.00000000E+00
	-7.45058000E-09	 1.00000000E+00	 5.00000000E+00
	 2.50000000E-01	 5.00000000E-01	 5.00000000E+00
	 2.50000000E-01	 1.00000000E+00	 5.00000000E+00
	-7.45058000E-09	 5.00000000E-01	 4.50000000E+00
	-7.45058000E-09	 7.50000000E-01	 5.00000000E+00
	-7.45058000E-09	 1.00000000E+00	 4.50000000E+00
	-7.45058000E-09	-1.49012000E-08	 5.00000000E+00
	 2.50000000E-01	-1.49012000E-08	 5.00000000E+00
	-7.45058000E-09	-1.49012000E-08	 4.50000000E+00
	-7.45058000E-09	 2.50000000E-01	 5.00000000E+00
	 1.00000000E+00	 5.00000000E-01	 6.00000000E+00
	 1.00000000E+00	 1.00000000E+00	 6.00000000E+00
	 5.00000000E-01	 5.00000000E-01	 6.00000000E+00
	 5.00000000E-01	 1.00000000E+00	 6.00000000E+00
	 1.00000000E+00	 5.00000000E-01	 5.50000000E+00
	 1.00000000E+00	 7.50000000E-01	 6.00000000E+00
	 1.00000000E+00	 1.00000000E+00	 5.50000000E+00
	 7.50000000E-01	 5.00000000E-01	 6.00000000E+00
	 7.50000000E-01	 1.00000000E+00	 6.00000000E+00
	 5.00000000E-01	 5.00000000E-01	 5.50000000E+00
	 5.00000000E-01	 7.50000000E-01	 6.00000000E+00
	 5.00000000E-01	 1.00000000E+00	 5.50000000E+00
	 1.00000000E+00	-1.49012000E-08	 6.00000000E+00
	 5.00000000E-01	-1.49012000E-08	 6.00000000E+00
	 1.00000000E+00	-1.49012000E-08	 5.50000000E+00
	 1.00000000E+00	 2.50000000E-01	 6.00000000E+00
	 7.50000000E-01	-1.49012000E-08	 6.00000000E+00
	 5.00000000E-01	-1.49012000E-08	 5.50000000E+00
	 5.00000000E-01	 2.50000000E-01	 6.00000000E+00
	-7.45058000E-09	 5.00000000E-01	 6.00000000E+00
	-7.45058000E-09	 1.00000000E+00	 6.00000000E+00
	 2.50000000E-01	 5.00000000E-01	 6.00000000E+00
	 2.50000000E-01	 1.00000000E+00	 6.00000000E+00
	-7.45058000E-09	 5.00000000E-01	 5.50000000E+00
	-7.45058000E-09	 7.50000000E-01	 6.00000000E+00
	-7.45058000E-09	 1.00000000E+00	 5.50000000E+00
	-7.45058000E-09	-1.49012000E-08	 6.00000000E+00
	 2.50000000E-01	-1.49012000E-08	 6.00000000E+00
	-7.45058000E-09	-1.49012000E-08	 5.50000000E+00
	-7.45058000E-09	 2.50000000E-01	 6.00000000E+00
	 1.00000000E+00	 5.00000000E-01	 7.00000000E+00
[...]
POINT_DATA 522
FIELD U 1
	U 3 522 double
		 0.00000000E+00	 0.00000000E+00	 0.00000000E+00
		 0.00000000E+00	 0.00000000E+00	 0.00000000E+00
		 5.35044000E-06	 2.32345000E-03	-2.60891000E-05
		 1.14053000E-03	 2.57684000E-03	-3.47469000E-03
		 0.00000000E+00	 0.00000000E+00	 0.00000000E+00
		 0.00000000E+00	 0.00000000E+00	 0.00000000E+00
		-9.35661000E-06	 3.18280000E-03	 5.55944000E-05
		 5.36773000E-04	 3.44261000E-03	-3.49232000E-03
		 0.00000000E+00	 0.00000000E+00	 0.00000000E+00
		-5.45930000E-05	 1.43161000E-04	-1.93618000E-05
		 5.96540000E-04	 2.36108000E-03	-1.83113000E-03
		 7.44799000E-04	 5.01427000E-04	-1.63857000E-03
		 0.00000000E+00	 0.00000000E+00	 0.00000000E+00
		 0.00000000E+00	 0.00000000E+00	 0.00000000E+00
		-6.30905000E-06	 2.85719000E-03	 9.33520000E-06
		 8.56752000E-04	 3.07203000E-03	-3.42962000E-03
		 0.00000000E+00	 0.00000000E+00	 0.00000000E+00
		-1.35920000E-05	 6.64068000E-04	 2.44342000E-05
		 2.76034000E-04	 3.22181000E-03	-1.73000000E-03
		 2.76518000E-04	 9.69055000E-04	-1.56056000E-03
		 0.00000000E+00	 0.00000000E+00	 0.00000000E+00
		-1.15638000E-03	 2.57341000E-03	 3.49496000E-03
		 0.00000000E+00	 0.00000000E+00	 0.00000000E+00
		-5.52854000E-04	 3.42558000E-03	 3.52925000E-03
		 0.00000000E+00	 0.00000000E+00	 0.00000000E+00
		-8.17336000E-04	 4.90711000E-04	 1.66013000E-03
		-6.07966000E-04	 2.35319000E-03	 1.81667000E-03
		 0.00000000E+00	 0.00000000E+00	 0.00000000E+00
		-8.54956000E-04	 3.10647000E-03	 3.40720000E-03
		 0.00000000E+00	 0.00000000E+00	 0.00000000E+00
		-3.10151000E-04	 9.97513000E-04	 1.60475000E-03
		-2.89245000E-04	 3.22476000E-03	 1.77105000E-03
		 0.00000000E+00	 0.00000000E+00	 0.00000000E+00
		 0.00000000E+00	 0.00000000E+00	 0.00000000E+00
		-1.09179000E-05	 3.49830000E-03	 1.90871000E-05
		-3.54109000E-05	 3.68745000E-03	-3.44627000E-03
		 0.00000000E+00	 0.00000000E+00	 0.00000000E+00
		 0.00000000E+00	 0.00000000E+00	 0.00000000E+00
		-1.47869000E-05	 3.44837000E-03	 2.13694000E-05
		 2.74720000E-04	 3.66873000E-03	-3.53544000E-03
		 0.00000000E+00	 0.00000000E+00	 0.00000000E+00
		-1.73447000E-05	 7.19171000E-04	 2.62692000E-05
		-2.34287000E-05	 3.52078000E-03	-1.65400000E-03
		-2.69554000E-04	 1.01776000E-03	-1.63644000E-03
		 0.00000000E+00	 0.00000000E+00	 0.00000000E+00
		-2.20196000E-05	 3.72963000E-03	 3.52484000E-03
		 0.00000000E+00	 0.00000000E+00	 0.00000000E+00
		-3.05226000E-04	 3.69029000E-03	 3.57383000E-03
		 0.00000000E+00	 0.00000000E+00	 0.00000000E+00
		 2.17758000E-04	 1.04752000E-03	 1.66806000E-03
		-3.45321000E-05	 3.52692000E-03	 1.70544000E-03
		-1.47794000E-05	 1.23731000E-02	-4.98272000E-05
		 1.98213000E-03	 1.24651000E-02	-6.94852000E-03
		-4.41537000E-05	 1.41186000E-02	-9.59099000E-05
		 1.56712000E-03	 1.42769000E-02	-7.08082000E-03
		-1.24025000E-06	 6.42569000E-03	-2.47092000E-05
		 9.57529000E-04	 1.23643000E-02	-3.50986000E-03
		 1.62125000E-03	 6.63254000E-03	-5.31422000E-03
		-1.79622000E-05	 1.32855000E-02	-5.68078000E-05
		 1.76275000E-03	 1.34456000E-02	-6.96388000E-03
		 1.77439000E-06	 7.77389000E-03	-1.89095000E-05
		 7.47688000E-04	 1.41401000E-02	-3.52764000E-03
		 1.09689000E-03	 7.98505000E-03	-5.39290000E-03
		-2.17594000E-03	 1.24886000E-02	 6.87583000E-03
		-1.57769000E-03	 1.44190000E-02	 6.84941000E-03
		-1.61739000E-03	 6.70074000E-03	 5.30727000E-03
		-1.03016000E-03	 1.24182000E-02	 3.40943000E-03
		-1.85523000E-03	 1.35346000E-02	 6.81714000E-03
		-1.05482000E-03	 8.06663000E-03	 5.30002000E-03
		-7.99311000E-04	 1.41997000E-02	 3.33774000E-03
		-6.17487000E-05	 1.55028000E-02	-1.56931000E-04
		 1.27771000E-03	 1.56961000E-02	-7.07746000E-03
		-6.74668000E-05	 1.48566000E-02	-1.11060000E-04
		 1.40346000E-03	 1.50343000E-02	-7.11040000E-03
		-4.46693000E-06	 8.57618000E-03	-4.36755000E-05
		 5.89088000E-04	 1.55976000E-02	-3.49789000E-03
		 5.75615000E-04	 8.83127000E-03	-5.33430000E-03
		-1.15102000E-03	 1.56853000E-02	 6.72348000E-03
		-1.34473000E-03	 1.50931000E-02	 6.87150000E-03
		-5.24245000E-04	 8.82813000E-03	 5.25191000E-03
		-6.05205000E-04	 1.55506000E-02	 3.20139000E-03
		-6.43163000E-05	 2.88937000E-02	-1.69992000E-04
		 2.22920000E-03	 2.87964000E-02	-9.33100000E-03
		-4.24594000E-05	 3.09190000E-02	-2.42442000E-04
		 1.92892000E-03	 3.09813000E-02	-9.44275000E-03
		-3.88555000E-05	 1.99819000E-02	-8.54359000E-05
		 1.04536000E-03	 2.88201000E-02	-4.71163000E-03
		 2.17835000E-03	 2.00108000E-02	-8.28747000E-03
		-5.60928000E-05	 2.99538000E-02	-2.12146000E-04
		 2.06648000E-03	 2.99724000E-02	-9.39459000E-03
		-4.81087000E-05	 2.20025000E-02	-1.61521000E-04
		 9.39821000E-04	 3.09362000E-02	-4.79316000E-03
		 1.77817000E-03	 2.20653000E-02	-8.38855000E-03
		-2.25164000E-03	 2.91000000E-02	 8.99142000E-03
		-1.98328000E-03	 3.11757000E-02	 8.92343000E-03
		-2.26213000E-03	 2.01676000E-02	 8.05012000E-03
		-1.12329000E-03	 2.89501000E-02	 4.36154000E-03
		-2.12179000E-03	 3.02015000E-02	 8.99529000E-03
		-1.87555000E-03	 2.22274000E-02	 8.03943000E-03
		-1.02838000E-03	 3.10268000E-02	 4.32547000E-03
		-5.69903000E-05	 3.28285000E-02	-2.93484000E-04
		 1.67559000E-03	 3.27966000E-02	-9.44924000E-03
		-2.74593000E-05	 3.18899000E-02	-2.58123000E-04
		 1.78575000E-03	 3.19020000E-02	-9.46224000E-03
		-2.50998000E-05	 2.36530000E-02	-2.08015000E-04
		 8.01238000E-04	 3.27243000E-02	-4.86376000E-03
		 1.46463000E-03	 2.37626000E-02	-8.39142000E-03
		-1.78083000E-03	 3.30240000E-02	 8.89612000E-03
		-1.89991000E-03	 3.21267000E-02	 8.91714000E-03
		-1.53607000E-03	 2.39013000E-02	 7.96387000E-03
		-9.09932000E-04	 3.28884000E-02	 4.25603000E-03
		-1.12144000E-04	 4.98462000E-02	-4.02927000E-04
		 1.30105000E-03	 4.97460000E-02	-1.09215000E-02
		-9.76973000E-05	 5.11371000E-02	-3.77173000E-04
		 1.20310000E-03	 5.11308000E-02	-1.08875000E-02
		-7.24006000E-05	 3.89641000E-02	-2.79097000E-04
		 5.69501000E-04	 4.97974000E-02	-5.53808000E-03
		 1.80995000E-03	 3.89071000E-02	-1.01970000E-02
		-9.01063000E-05	 5.04930000E-02	-4.08834000E-04
		 1.21901000E-03	 5.04798000E-02	-1.09961000E-02
		-6.82402000E-05	 4.07284000E-02	-3.20911000E-04
		 5.41599000E-04	 5.10957000E-02	-5.62977000E-03
		 1.58071000E-03	 4.07318000E-02	-1.02430000E-02
		-1.42199000E-03	 4.99888000E-02	 1.00337000E-02
		-1.38339000E-03	 5.13447000E-02	 1.00890000E-02
		-1.99850000E-03	 3.91091000E-02	 9.66207000E-03
		-7.53972000E-04	 4.98955000E-02	 4.69586000E-03
		-1.41679000E-03	 5.06681000E-02	 1.01279000E-02
		-1.74839000E-03	 4.09064000E-02	 9.61426000E-03
		-7.04218000E-04	 5.12261000E-02	 4.81787000E-03
		-4.15013000E-05	 5.23438000E-02	-3.80964000E-04
		 1.03528000E-03	 5.23253000E-02	-1.08772000E-02
		-9.95970000E-05	 5.17513000E-02	-3.94794000E-04
		 1.15478000E-03	 5.17826000E-02	-1.08372000E-02
		-7.29591000E-05	 4.22613000E-02	-3.21527000E-04
		 5.14947000E-04	 5.23336000E-02	-5.65824000E-03
		 1.39127000E-03	 4.22745000E-02	-1.02636000E-02
		-1.21551000E-03	 5.25112000E-02	 1.00868000E-02
		-1.26800000E-03	 5.19250000E-02	 9.99566000E-03
		-1.50959000E-03	 4.24937000E-02	 9.59080000E-03
		-6.42499000E-04	 5.24217000E-02	 4.86472000E-03
		-8.13729000E-05	 7.25145000E-02	-7.42122000E-04
		 3.28217000E-04	 7.25850000E-02	-1.15535000E-02
		-1.35097000E-04	 7.30553000E-02	-7.85532000E-04
		 3.64323000E-04	 7.29191000E-02	-1.16269000E-02
		-6.93545000E-05	 6.11515000E-02	-5.81166000E-04
		 1.81823000E-04	 7.25494000E-02	-6.05125000E-03
		 8.00579000E-04	 6.11031000E-02	-1.13030000E-02
		-1.00454000E-04	 7.27875000E-02	-7.56037000E-04
		 3.73458000E-04	 7.26886000E-02	-1.15891000E-02
		-8.63801000E-05	 6.20007000E-02	-5.80547000E-04
		 1.10822000E-04	 7.29842000E-02	-6.14826000E-03
		 7.49773000E-04	 6.19612000E-02	-1.13590000E-02
		-5.75776000E-04	 7.26622000E-02	 1.01378000E-02
		-6.12426000E-04	 7.31020000E-02	 1.00796000E-02
		-9.36373000E-04	 6.13048000E-02	 1.02033000E-02
		-3.91222000E-04	 7.25737000E-02	 4.66051000E-03
		-6.16998000E-04	 7.28413000E-02	 1.01618000E-02
		-9.32115000E-04	 6.21099000E-02	 1.02165000E-02
		-3.78284000E-04	 7.31055000E-02	 4.64079000E-03
		-1.38157000E-04	 7.35217000E-02	-8.23859000E-04
		 3.49843000E-04	 7.34455000E-02	-1.16189000E-02
		-1.26282000E-04	 7.33158000E-02	-7.77685000E-04
		 3.54210000E-04	 7.31835000E-02	-1.15600000E-02
		-1.26450000E-04	 6.28292000E-02	-5.92738000E-04
		 1.13724000E-04	 7.34994000E-02	-6.22424000E-03
		 6.50453000E-04	 6.27616000E-02	-1.13839000E-02
		-5.64401000E-04	 7.36070000E-02	 1.00651000E-02
		-5.98032000E-04	 7.33849000E-02	 1.00657000E-02
		-8.83997000E-04	 6.29093000E-02	 1.01955000E-02
		-3.53743000E-04	 7.35352000E-02	 4.62235000E-03
		-6.46544000E-05	 9.41703000E-02	-8.49568000E-04
		 2.67805000E-04	 9.40535000E-02	-1.11709000E-02
		-1.07896000E-04	 9.46150000E-02	-8.78845000E-04
		 3.82056000E-04	 9.44214000E-02	-1.13200000E-02
		-1.16609000E-04	 8.35303000E-02	-8.15975000E-04
		 1.03575000E-04	 9.41087000E-02	-6.07641000E-03
		 2.36012000E-04	 8.34111000E-02	-1.14838000E-02
		-9.27237000E-05	 9.43913000E-02	-8.79417000E-04
		 3.20549000E-04	 9.42277000E-02	-1.12551000E-02
		-1.03772000E-04	 8.39617000E-02	-8.81280000E-04
		 1.54511000E-04	 9.45567000E-02	-6.08640000E-03
		 3.81255000E-04	 8.38043000E-02	-1.15446000E-02
		-5.57462000E-04	 9.42765000E-02	 9.41950000E-03
		-5.98860000E-04	 9.47988000E-02	 9.45339000E-03
		-5.01616000E-04	 8.36374000E-02	 9.83338000E-03
		-3.09628000E-04	 9.42562000E-02	 4.24885000E-03
		-5.48964000E-04	 9.45178000E-02	 9.44771000E-03
		-5.90840000E-04	 8.40675000E-02	 9.83704000E-03
		-3.62661000E-04	 9.47039000E-02	 4.24395000E-03
		-1.14028000E-04	 9.52190000E-02	-9.69179000E-04
		 5.83795000E-04	 9.50649000E-02	-1.12558000E-02
		-1.00832000E-04	 9.49054000E-02	-9.39644000E-04
		 4.54822000E-04	 9.46703000E-02	-1.13158000E-02
		-7.61826000E-05	 8.45121000E-02	-9.09181000E-04
		 1.67868000E-04	 9.51209000E-02	-6.11358000E-03
		 4.70990000E-04	 8.43500000E-02	-1.15090000E-02
		-7.50705000E-04	 9.52875000E-02	 9.34378000E-03
		-6.80939000E-04	 9.49886000E-02	 9.40316000E-03
		-6.88167000E-04	 8.46398000E-02	 9.78953000E-03
		-4.23048000E-04	 9.53025000E-02	 4.18161000E-03
		-5.25315000E-05	 1.14604000E-01	-1.17256000E-03
		-4.53638000E-04	 1.14412000E-01	-1.06440000E-02
		-1.26449000E-04	 1.14413000E-01	-1.08866000E-03
		-1.34598000E-04	 1.14268000E-01	-1.05603000E-02
		-1.48644000E-04	 1.04556000E-01	-9.70910000E-04
		-2.73769000E-04	 1.14531000E-01	-5.77560000E-03
		 1.79734000E-05	 1.04324000E-01	-1.09038000E-02
		-9.99333000E-05	 1.14445000E-01	-1.11756000E-03
		-3.01727000E-04	 1.14330000E-01	-1.06852000E-02
		-1.30409000E-04	 1.04734000E-01	-9.42666000E-04
		-2.05737000E-04	 1.14369000E-01	-5.87763000E-03
		 1.29395000E-04	 1.04580000E-01	-1.09446000E-02
		-1.69804000E-04	 1.14513000E-01	 8.51580000E-03
		-1.16649000E-04	 1.14501000E-01	 8.48829000E-03
		-3.49490000E-04	 1.04444000E-01	 8.98554000E-03
		-2.71950000E-05	 1.14578000E-01	 3.65608000E-03
		-1.38246000E-04	 1.14562000E-01	 8.52823000E-03
		-3.96074000E-04	 1.04824000E-01	 8.90759000E-03
		-1.06231000E-04	 1.14469000E-01	 3.74812000E-03
		-2.30704000E-04	 1.14573000E-01	-1.05617000E-03
		 8.33555000E-05	 1.14253000E-01	-1.06848000E-02
		-1.78482000E-04	 1.14467000E-01	-1.11560000E-03
		-2.98430000E-05	 1.14215000E-01	-1.04768000E-02
		-1.37147000E-04	 1.05056000E-01	-1.06062000E-03
		-9.19460000E-05	 1.14384000E-01	-5.81070000E-03
		 2.84644000E-04	 1.04986000E-01	-1.10258000E-02
		-2.33515000E-04	 1.14571000E-01	 8.42387000E-03
		-1.69359000E-04	 1.14496000E-01	 8.35566000E-03
		-5.87972000E-04	 1.05153000E-01	 8.91364000E-03
		-1.86798000E-04	 1.14532000E-01	 3.77923000E-03
		 5.26744000E-04	 1.34067000E-01	-1.80834000E-03
		-1.17131000E-03	 1.34402000E-01	-1.05682000E-02
		-4.99142000E-05	 1.32790000E-01	-1.23005000E-03
		-1.15839000E-03	 1.31693000E-01	-9.69577000E-03
		-1.80795000E-04	 1.24437000E-01	-1.38301000E-03
		-1.47368000E-04	 1.34210000E-01	-6.18208000E-03
		-1.02898000E-03	 1.24502000E-01	-1.05617000E-02
		 2.49462000E-04	 1.33478000E-01	-1.36204000E-03
		-1.11829000E-03	 1.33066000E-01	-1.02766000E-02
		-1.11551000E-04	 1.23672000E-01	-1.17011000E-03
		-3.17984000E-04	 1.32238000E-01	-5.64228000E-03
		-1.04065000E-03	 1.23472000E-01	-1.01662000E-02
		 8.15531000E-04	 1.34296000E-01	 8.22869000E-03
		 7.80012000E-04	 1.33684000E-01	 8.77719000E-03
		 3.59243000E-04	 1.24346000E-01	 8.26862000E-03
		 6.68778000E-04	 1.34149000E-01	 3.19844000E-03
		 8.25401000E-04	 1.34034000E-01	 8.54566000E-03
		 5.37368000E-04	 1.23718000E-01	 8.39477000E-03
		 2.88319000E-04	 1.33233000E-01	 3.57821000E-03
		-9.70882000E-04	 1.31331000E-01	-1.96699000E-03
		-1.51184000E-03	 1.27781000E-01	-8.46231000E-03
		-4.42843000E-04	 1.31984000E-01	-1.40914000E-03
		-1.32466000E-03	 1.29668000E-01	-8.92135000E-03
		-9.69491000E-05	 1.22913000E-01	-1.48987000E-03
		-1.09391000E-03	 1.29758000E-01	-5.88680000E-03
		-8.72114000E-04	 1.22849000E-01	-9.90039000E-03
		 7.74761000E-04	 1.31841000E-01	 7.77319000E-03
		 7.74014000E-04	 1.32768000E-01	 8.18884000E-03
		 5.52703000E-04	 1.23004000E-01	 8.11451000E-03
		-2.42434000E-04	 1.31723000E-01	 3.00156000E-03
		 0.00000000E+00	 0.00000000E+00	 0.00000000E+00
		 0.00000000E+00	 0.00000000E+00	 0.00000000E+00
		-9.48778000E-07	-6.48294000E-03	 6.56463000E-05
		-3.64224000E-03	-7.35480000E-03	 9.42502000E-03
		 0.00000000E+00	 0.00000000E+00	 0.00000000E+00
		 0.00000000E+00	 0.00000000E+00	 0.00000000E+00
		-4.21241000E-05	-9.39650000E-03	 1.25649000E-04
		-2.20348000E-03	-1.02136000E-02	 9.40175000E-03
		 0.00000000E+00	 0.00000000E+00	 0.00000000E+00
		-5.91401000E-05	-5.76004000E-04	 5.79591000E-05
		-1.88355000E-03	-6.69437000E-03	 4.90790000E-03
		-2.48943000E-03	-1.49387000E-03	 4.60216000E-03
		 0.00000000E+00	 0.00000000E+00	 0.00000000E+00
		 0.00000000E+00	 0.00000000E+00	 0.00000000E+00
		-2.57646000E-05	-8.16429000E-03	 9.89738000E-05
		-2.92122000E-03	-9.00524000E-03	 9.14518000E-03
		 0.00000000E+00	 0.00000000E+00	 0.00000000E+00
		 3.56400000E-07	-2.26368000E-03	 3.03761000E-05
		-1.15615000E-03	-9.59813000E-03	 4.70837000E-03
		-1.13882000E-03	-3.14423000E-03	 4.44383000E-03
		 0.00000000E+00	 0.00000000E+00	 0.00000000E+00
		 3.69761000E-03	-6.89897000E-03	-9.05287000E-03
		 0.00000000E+00	 0.00000000E+00	 0.00000000E+00
		 2.36737000E-03	-9.81120000E-03	-9.26294000E-03
		 0.00000000E+00	 0.00000000E+00	 0.00000000E+00
		 2.38964000E-03	-1.38081000E-03	-4.44542000E-03
		 1.87857000E-03	-6.45196000E-03	-4.71699000E-03
		 0.00000000E+00	 0.00000000E+00	 0.00000000E+00
		 3.05173000E-03	-8.57610000E-03	-8.92371000E-03
		 0.00000000E+00	 0.00000000E+00	 0.00000000E+00
		 1.10762000E-03	-3.00186000E-03	-4.27910000E-03
		 1.19223000E-03	-9.35941000E-03	-4.50393000E-03
		 0.00000000E+00	 0.00000000E+00	 0.00000000E+00
		 0.00000000E+00	 0.00000000E+00	 0.00000000E+00
		 1.32212000E-05	-1.09957000E-02	 5.82779000E-05
		-8.93541000E-04	-1.17042000E-02	 9.40137000E-03
		 0.00000000E+00	 0.00000000E+00	 0.00000000E+00
		 0.00000000E+00	 0.00000000E+00	 0.00000000E+00
		-2.51202000E-05	-1.04537000E-02	 5.77084000E-05
		-1.56483000E-03	-1.11644000E-02	 9.60197000E-03
		 0.00000000E+00	 0.00000000E+00	 0.00000000E+00
		-2.34854000E-05	-2.77831000E-03	 8.31328000E-05
		-4.24366000E-04	-1.11119000E-02	 4.45777000E-03
		 2.43141000E-04	-3.67128000E-03	 4.57405000E-03
		 0.00000000E+00	 0.00000000E+00	 0.00000000E+00
		 9.89252000E-04	-1.14683000E-02	-9.09531000E-03
		 0.00000000E+00	 0.00000000E+00	 0.00000000E+00
		 1.70503000E-03	-1.08652000E-02	-9.41555000E-03
		 0.00000000E+00	 0.00000000E+00	 0.00000000E+00
		-2.58494000E-04	-3.51736000E-03	-4.45520000E-03
		 4.71649000E-04	-1.10357000E-02	-4.22672000E-03
		 6.68921000E-06	-3.15259000E-02	 4.44686000E-05
		-6.73328000E-03	-3.22388000E-02	 1.75884000E-02
		-3.67167000E-06	-3.75537000E-02	-1.36394000E-04
		-5.36931000E-03	-3.84429000E-02	 1.74608000E-02
		 3.81762000E-05	-1.68800000E-02	 1.67741000E-04
		-3.28369000E-03	-3.18069000E-02	 8.94592000E-03
		-5.11056000E-03	-1.77720000E-02	 1.37809000E-02
		 1.20045000E-05	-3.46422000E-02	-5.21345000E-05
		-6.01925000E-03	-3.54995000E-02	 1.73449000E-02
		 6.85736000E-05	-2.13716000E-02	 5.02901000E-05
		-2.66579000E-03	-3.78518000E-02	 8.57820000E-03
		-3.74968000E-03	-2.22288000E-02	 1.37439000E-02
		 6.53217000E-03	-3.15440000E-02	-1.74522000E-02
		 5.49418000E-03	-3.76358000E-02	-1.77892000E-02
		 5.15774000E-03	-1.71773000E-02	-1.34847000E-02
		 3.20300000E-03	-3.14041000E-02	-8.80011000E-03
		 6.01110000E-03	-3.47600000E-02	-1.74518000E-02
		 3.91133000E-03	-2.17251000E-02	-1.37546000E-02
		 2.73479000E-03	-3.74676000E-02	-8.85807000E-03
		 2.13606000E-05	-4.25304000E-02	-4.10095000E-04
		-4.28069000E-03	-4.32103000E-02	 1.71456000E-02
		-5.30900000E-06	-4.01338000E-02	-2.43643000E-04
		-4.80261000E-03	-4.10084000E-02	 1.75307000E-02
		 7.81444000E-05	-2.45553000E-02	-5.38334000E-05
		-2.16075000E-03	-4.27483000E-02	 8.13085000E-03
		-2.45537000E-03	-2.54048000E-02	 1.36166000E-02
		 4.70915000E-03	-4.27795000E-02	-1.79615000E-02
		 5.07525000E-03	-4.03016000E-02	-1.80783000E-02
		 2.75912000E-03	-2.50356000E-02	-1.37617000E-02
		 2.33431000E-03	-4.25951000E-02	-8.87815000E-03
		-2.23237000E-06	-7.17149000E-02	-3.55726000E-04
		-8.77678000E-03	-7.26303000E-02	 2.32008000E-02
		 7.41754000E-05	-7.99708000E-02	-8.13228000E-04
		-7.77702000E-03	-8.10486000E-02	 2.27417000E-02
		-2.97570000E-05	-5.00530000E-02	-9.79582000E-05
		-4.35313000E-03	-7.20696000E-02	 1.14779000E-02
		-7.76116000E-03	-5.10121000E-02	 2.06794000E-02
		 5.24379000E-05	-7.59655000E-02	-5.83270000E-04
		-8.28039000E-03	-7.69906000E-02	 2.28482000E-02
		 3.85278000E-05	-5.73012000E-02	-4.17306000E-04
		-3.91219000E-03	-8.04363000E-02	 1.09285000E-02
		-6.69384000E-03	-5.83045000E-02	 2.04022000E-02
		 8.71682000E-03	-7.12098000E-02	-2.40228000E-02
		 8.11576000E-03	-7.97772000E-02	-2.46161000E-02
		 7.74371000E-03	-4.98810000E-02	-2.09665000E-02
		 4.32946000E-03	-7.13710000E-02	-1.22890000E-02
		 8.39373000E-03	-7.56117000E-02	-2.41658000E-02
		 6.83972000E-03	-5.72175000E-02	-2.13615000E-02
		 4.06516000E-03	-7.97944000E-02	-1.26301000E-02
		 1.49658000E-04	-8.76742000E-02	-1.16032000E-03
		-7.06546000E-03	-8.86658000E-02	 2.24348000E-02
		 1.28853000E-04	-8.39184000E-02	-1.00776000E-03
		-7.45288000E-03	-8.48420000E-02	 2.27737000E-02
		 8.69154000E-05	-6.36149000E-02	-6.89426000E-04
		-3.39168000E-03	-8.80639000E-02	 1.03557000E-02
		-5.72063000E-03	-6.45522000E-02	 2.00921000E-02
		 7.44425000E-03	-8.75236000E-02	-2.48850000E-02
		 7.77486000E-03	-8.37037000E-02	-2.49386000E-02
		 6.00184000E-03	-6.35694000E-02	-2.15496000E-02
		 3.78721000E-03	-8.74706000E-02	-1.27982000E-02
		-1.30682000E-04	-1.23399000E-01	-1.44751000E-03
		-9.46292000E-03	-1.24410000E-01	 2.61914000E-02
		 1.86876000E-05	-1.32776000E-01	-1.95611000E-03
		-9.20249000E-03	-1.34045000E-01	 2.57335000E-02
		-4.85911000E-05	-9.64018000E-02	-8.38892000E-04
		-4.76199000E-03	-1.23848000E-01	 1.23028000E-02
		-9.45626000E-03	-9.74178000E-02	 2.50394000E-02
		-5.87395000E-05	-1.28084000E-01	-1.72574000E-03
		-9.33307000E-03	-1.29223000E-01	 2.59440000E-02
		 5.79344000E-05	-1.05434000E-01	-1.39703000E-03
		-4.40630000E-03	-1.33327000E-01	 1.18207000E-02
		-8.66669000E-03	-1.06453000E-01	 2.45903000E-02
		 9.37048000E-03	-1.22514000E-01	-2.91578000E-02
		 8.99902000E-03	-1.32145000E-01	-2.96928000E-02
		 9.26142000E-03	-9.58388000E-02	-2.67379000E-02
		 4.53001000E-03	-1.22934000E-01	-1.52158000E-02
		 9.16067000E-03	-1.27474000E-01	-2.94684000E-02
		 8.72186000E-03	-1.04916000E-01	-2.72905000E-02
		 4.48364000E-03	-1.32388000E-01	-1.57792000E-02
		 1.99144000E-04	-1.41762000E-01	-2.40568000E-03
		-8.51106000E-03	-1.43366000E-01	 2.52270000E-02
		 9.10794000E-05	-1.37299000E-01	-2.20955000E-03
		-8.80767000E-03	-1.39315000E-01	 2.54726000E-02
		 1.00518000E-04	-1.13800000E-01	-1.82191000E-03
		-4.36937000E-03	-1.42477000E-01	 1.12860000E-02
		-7.74323000E-03	-1.14670000E-01	 2.41201000E-02
		 8.57101000E-03	-1.41074000E-01	-3.01792000E-02