<?xml version="1.0"?>
<VTKFile type="UnstructuredGrid" version="0.1" byte_order="LittleEndian">
	<UnstructuredGrid>
		<Piece NumberOfPoints="522" NumberOfCells="64">
			<Points>
				<DataArray type="Float64" NumberOfComponents="3" format="ascii">
					 1.00000000E+00	 1.00000000E+00	-5.96046000E-08
					 1.00000000E+00	 5.00000000E-01	-5.96046000E-08
					 1.00000000E+00	 5.00000000E-01	 1.00000000E+00
					 1.00000000E+00	 1.00000000E+00	 1.00000000E+00
					 5.00000000E-01	 1.00000000E+00	-5.96046000E-08
					 5.00000000E-01	 5.00000000E-01	-5.96046000E-08
					 5.00000000E-01	 5.00000000E-01	 1.00000000E+00
					 5.00000000E-01	 1.00000000E+00	 1.00000000E+00
					 1.00000000E+00	 7.50000000E-01	-5.96046000E-08
					 1.00000000E+00	 5.00000000E-01	 5.00000000E-01
					 1.00000000E+00	 7.50000000E-01	 1.00000000E+00
					 1.00000000E+00	 1.00000000E+00	 5.00000000E-01
					 7.50000000E-01	 1.00000000E+00	-5.96046000E-08
					 7.50000000E-01	 5.00000000E-01	-5.96046000E-08
					 7.50000000E-01	 5.00000000E-01	 1.00000000E+00
					 7.50000000E-01	 1.00000000E+00	 1.00000000E+00
					 5.00000000E-01	 7.50000000E-01	-5.96046000E-08
					 5.00000000E-01	 5.00000000E-01	 5.00000000E-01
					 5.00000000E-01	 7.50000000E-01	 1.00000000E+00
					 5.00000000E-01	 1.00000000E+00	 5.00000000E-01
					 1.00000000E+00	-1.49012000E-08	-5.96046000E-08
					 1.00000000E+00	-1.49012000E-08	 1.00000000E+00
					 5.00000000E-01	-1.49012000E-08	-5.96046000E-08
					 5.00000000E-01	-1.49012000E-08	 1.00000000E+00
					 1.00000000E+00	 2.50000000E-01	-5.96046000E-08
					 1.00000000E+00	-1.49012000E-08	 5.00000000E-01
					 1.00000000E+00	 2.50000000E-01	 1.00000000E+00
					 7.50000000E-01	-1.49012000E-08	-5.96046000E-08
					 7.50000000E-01	-1.49012000E-08	 1.00000000E+00
					 5.00000000E-01	 2.50000000E-01	-5.96046000E-08
					 5.00000000E-01	-1.49012000E-08	 5.00000000E-01
					 5.00000000E-01	 2.50000000E-01	 1.00000000E+00
					-7.45058000E-09	 1.00000000E+00	-5.96046000E-08
					-7.45058000E-09	 5.00000000E-01	-5.96046000E-08
					-7.45058000E-09	 5.00000000E-01	 1.00000000E+00
					-7.45058000E-09	 1.00000000E+00	 1.00000000E+00
					 2.50000000E-01	 1.00000000E+00	-5.96046000E-08
					 2.50000000E-01	 5.00000000E-01	-5.96046000E-08
					 2.50000000E-01	 5.00000000E-01	 1.00000000E+00
					 2.50000000E-01	 1.00000000E+00	 1.00000000E+00
					-7.45058000E-09	 7.50000000E-01	-5.96046000E-08
					-7.45058000E-09	 5.00000000E-01	 5.00000000E-01
					-7.45058000E-09	 7.50000000E-01	 1.00000000E+00
					-7.45058000E-09	 1.00000000E+00	 5.00000000E-01
					-7.45058000E-09	-1.49012000E-08	-5.96046000E-08
					-7.45058000E-09	-1.49012000E-08	 1.00000000E+00
					 2.50000000E-01	-1.49012000E-08	-5.96046000E-08
					 2.50000000E-01	-1.49012000E-08	 1.00000000E+00
					-7.45058000E-09	 2.50000000E-01	-5.96046000E-08
					-7.45058000E-09	-1.49012000E-08	 5.00000000E-01
					-7.45058000E-09	 2.50000000E-01	 1.00000000E+00
					 1.00000000E+00	 5.00000000E-01	 2.00000000E+00
					 1.00000000E+00	 1.00000000E+00	 2.00000000E+00
					 5.00000000E-01	 5.00000000E-01	 2.00000000E+00
					 5.00000000E-01	 1.00000000E+00	 2.00000000E+00
					 1.00000000E+00	 5.00000000E-01	 1.50000000E+00
					 1.00000000E+00	 7.50000000E-01	 2.00000000E+00
					 1.00000000E+00	 1.00000000E+00	 1.50000000E+00
					 7.50000000E-01	 5.00000000E-01	 2.00000000E+00
					 7.50000000E-01	 1.00000000E+00	 2.00000000E+00
					 5.00000000E-01	 5.00000000E-01	 1.50000000E+00
					 5.00000000E-01	 7.50000000E-01	 2.00000000E+00
					 5.00000000E-01	 1.00000000E+00	 1.50000000E+00
					 1.00000000E+00	-1.49012000E-08	 2.00000000E+00
					 5.00000000E-01	-1.49012000E-08	 2.00000000E+00
					 1.00000000E+00	-1.49012000E-08	 1.50000000E+00
					 1.00000000E+00	 2.50000000E-01	 2.00000000E+00
					 7.50000000E-01	-1.49012000E-08	 2.00000000E+00
					 5.00000000E-01	-1.49012000E-08	 1.50000000E+00
					 5.00000000E-01	 2.50000000E-01	 2.00000000E+00
					-7.45058000E-09	 5.00000000E-01	 2.00000000E+00
					-7.45058000E-09	 1.00000000E+00	 2.00000000E+00
					 2.50000000E-01	 5.00000000E-01	 2.00000000E+00
					 2.50000000E-01	 1.00000000E+00	 2.00000000E+00
					-7.45058000E-09	 5.00000000E-01	 1.50000000E+00
					-7.45058000E-09	 7.50000000E-01	 2.00000000E+00
					-7.45058000E-09	 1.00000000E+00	 1.50000000E+00
					-7.45058000E-09	-1.49012000E-08	 2.00000000E+00
					 2.50000000E-01	-1.49012000E-08	 2.00000000E+00
					-7.45058000E-09	-1.49012000E-08	 1.50000000E+00
					-7.45058000E-09	 2.50000000E-01	 2.00000000E+00
					 1.00000000E+00	 5.00000000E-01	 3.00000000E+00
					 1.00000000E+00	 1.00000000E+00	 3.00000000E+00
					 5.00000000E-01	 5.00000000E-01	 3.00000000E+00
					 5.00000000E-01	 1.00000000E+00	 3.00000000E+00
					 1.00000000E+00	 5.00000000E-01	 2.50000000E+00
					 1.00000000E+00	 7.50000000E-01	 3.00000000E+00
					 1.00000000E+00	 1.00000000E+00	 2.50000000E+00
					 7.50000000E-01	 5.00000000E-01	 3.00000000E+00
					 7.50000000E-01	 1.00000000E+00	 3.00000000E+00
					 5.00000000E-01	 5.00000000E-01	 2.50000000E+00
					 5.00000000E-01	 7.50000000E-01	 3.00000000E+00
					 5.00000000E-01	 1.00000000E+00	 2.50000000E+00
					 1.00000000E+00	-1.49012000E-08	 3.00000000E+00
					 5.00000000E-01	-1.49012000E-08	 3.00000000E+00
					 1.00000000E+00	-1.49012000E-08	 2.50000000E+00
					 1.00000000E+00	 2.50000000E-01	 3.00000000E+00
					 7.50000000E-01	-1.49012000E-08	 3.00000000E+00
					 5.00000000E-01	-1.49012000E-08	 2.50000000E+00
					 5.00000000E-01	 2.50000000E-01	 3.00000000E+00
					-7.45058000E-09	 5.00000000E-01	 3.00000000E+00
					-7.45058000E-09	 1.00000000E+00	 3.00000000E+00
					 2.50000000E-01	 5.00000000E-01	 3.00000000E+00
					 2.50000000E-01	 1.00000000E+00	 3.00000000E+00
					-7.45058000E-09	 5.00000000E-01	 2.50000000E+00
					-7.45058000E-09	 7.50000000E-01	 3.00000000E+00
					-7.45058000E-09	 1.00000000E+00	 2.50000000E+00
					-7.45058000E-09	-1.49012000E-08	 3.00000000E+00
					 2.50000000E-01	-1.49012000E-08	 3.00000000E+00
					-7.45058000E-09	-1.49012000E-08	 2.50000000E+00
					-7.45058000E-09	 2.50000000E-01	 3.00000000E+00
					 1.00000000E+00	 5.00000000E-01	 4.00000000E+00
					 1.00000000E+00	 1.00000000E+00	 4.00000000E+00
					 5.00000000E-01	 5.00000000E-01	 4.00000000E+00
					 5.00000000E-01	 1.00000000E+00	 4.00000000E+00
					 1.00000000E+00	 5.00000000E-01	 3.50000000E+00
					 1.00000000E+00	 7.50000000E-01	 4.00000000E+00
					 1.00000000E+00	 1.00000000E+00	 3.50000000E+00
					 7.50000000E-01	 5.00000000E-01	 4.00000000E+00
					 7.50000000E-01	 1.00000000E+00	 4.00000000E+00
					 5.00000000E-01	 5.00000000E-01	 3.50000000E+00
					 5.00000000E-01	 7.50000000E-01	 4.00000000E+00
					 5.00000000E-01	 1.00000000E+00	 3.50000000E+00
					 1.00000000E+00	-1.49012000E-08	 4.00000000E+00
					 5.00000000E-01	-1.49012000E-08	 4.00000000E+00
					 1.00000000E+00	-1.49012000E-08	 3.50000000E+00
					 1.00000000E+00	 2.50000000E-01	 4.00000000E+00
					 7.50000000E-01	-1.49012000E-08	 4.00000000E+00
					 5.00000000E-01	-1.49012000E-08	 3.50000000E+00
					 5.00000000E-01	 2.50000000E-01	 4.00000000E+00
					-7.45058000E-09	 5.00000000E-01	 4.00000000E+00
					-7.45058000E-09	 1.00000000E+00	 4.00000000E+00
					 2.50000000E-01	 5.00000000E-01	 4.00000000E+00
					 2.50000000E-01	 1.00000000E+00	 4.00000000E+00
					-7.45058000E-09	 5.00000000E-01	 3.50000000E+00
					-7.45058000E-09	 7.50000000E-01	 4.00000000E+00
					-7.45058000E-09	 1.00000000E+00	 3.50000000E+00
					-7.45058000E-09	-1.49012000E-08	 4.00000000E+00
					 2.50000000E-01	-1.49012000E-08	 4.00000000E+00
					-7.45058000E-09	-1.49012000E-08	 3.50000000E+00
					-7.45058000E-09	 2.50000000E-01	 4.00000000E+00
					 1.00000000E+00	 5.00000000E-01	 5.00000000E+00
					 1.00000000E+00	 1.00000000E+00	 5.00000000E+00
					 5.00000000E-01	 5.00000000E-01	 5.00000000E+00
					 5.00000000E-01	 1.00000000E+00	 5.00000000E+00
					 1.00000000E+00	 5.00000000E-01	 4.50000000E+00
					 1.00000000E+00	 7.50000000E-01	 5.00000000E+00
					 1.00000000E+00	 1.00000000E+00	 4.50000000E+00
					 7.50000000E-01	 5.00000000E-01	 5.00000000E+00
					 7.50000000E-01	 1.00000000E+00	 5.00000000E+00
					 5.00000000E-01	 5.00000000E-01	 4.50000000E+00
					 5.00000000E-01	 7.50000000E-01	 5.00000000E+00
					 5.00000000E-01	 1.00000000E+00	 4.50000000E+00
					 1.00000000E+00	-1.49012000E-08	 5.00000000E+00
					 5.00000000E-01	-1.49012000E-08	 5.00000000E+00
					 1.00000000E+00	-1.49012000E-08	 4.50000000E+00
					 1.00000000E+00	 2.50000000E-01	 5.00000000E+00
					 7.50000000E-01	-1.49012000E-08	 5.00000000E+00
					 5.00000000E-01	-1.49012000E-08	 4.50000000E+00
					 5.00000000E-01	 2.50000000E-01	 5.00000000E+00
					-7.45058000E-09	 5.00000000E-01	 5.00000000E+00
					-7.45058000E-09	 1.00000000E+00	 5.00000000E+00
					 2.50000000E-01	 5.00000000E-01	 5.00000000E+00
					 2.50000000E-01	 1.00000000E+00	 5.00000000E+00
					-7.45058000E-09	 5.00000000E-01	 4.50000000E+00
					-7.45058000E-09	 7.50000000E-01	 5.00000000E+00
					-7.45058000E-09	 1.00000000E+00	 4.50000000E+00
					-7.45058000E-09	-1.49012000E-08	 5.00000000E+00
					 2.50000000E-01	-1.49012000E-08	 5.00000000E+00
					-7.45058000E-09	-1.49012000E-08	 4.50000000E+00
					-7.45058000E-09	 2.50000000E-01	 5.00000000E+00
					 1.00000000E+00	 5.00000000E-01	 6.00000000E+00
					 1.00000000E+00	 1.00000000E+00	 6.00000000E+00
					 5.00000000E-01	 5.00000000E-01	 6.00000000E+00
					 5.00000000E-01	 1.00000000E+00	 6.00000000E+00
					 1.00000000E+00	 5.00000000E-01	 5.50000000E+00
					 1.00000000E+00	 7.50000000E-01	 6.00000000E+00
					 1.00000000E+00	 1.00000000E+00	 5.50000000E+00
					 7.50000000E-01	 5.00000000E-01	 6.00000000E+00
					 7.50000000E-01	 1.00000000E+00	 6.00000000E+00
					 5.00000000E-01	 5.00000000E-01	 5.50000000E+00
					 5.00000000E-01	 7.50000000E-01	 6.00000000E+00
					 5.00000000E-01	 1.00000000E+00	 5.50000000E+00
					 1.00000000E+00	-1.49012000E-08	 6.00000000E+00
[...]
			<PointData>
				<DataArray type="Float32" Name="U" NumberOfComponents="3" ComponentName0="D1" ComponentName1="D2" ComponentName2="D3" format="ascii">
					 0.00000000E+00	 0.00000000E+00	 0.00000000E+00
					 0.00000000E+00	 0.00000000E+00	 0.00000000E+00
					 4.00628000E-06	 4.01961000E-03	 2.85517000E-06
					 4.62966000E-04	 4.17186000E-03	-3.55592000E-03
					 0.00000000E+00	 0.00000000E+00	 0.00000000E+00
					 0.00000000E+00	 0.00000000E+00	 0.00000000E+00
					 1.21526000E-07	 4.18958000E-03	 4.56327000E-05
					 2.47908000E-05	 4.41719000E-03	-3.65680000E-03
					 0.00000000E+00	 0.00000000E+00	 0.00000000E+00
					-7.10924000E-06	 9.29729000E-04	 1.35322000E-05
					 2.60133000E-04	 4.01228000E-03	-1.72325000E-03
					 5.39470000E-04	 1.22552000E-03	-1.85419000E-03
					 0.00000000E+00	 0.00000000E+00	 0.00000000E+00
					 0.00000000E+00	 0.00000000E+00	 0.00000000E+00
					 4.96804000E-06	 4.18324000E-03	 1.02423000E-05
					 2.37371000E-04	 4.36951000E-03	-3.60559000E-03
					 0.00000000E+00	 0.00000000E+00	 0.00000000E+00
					 8.56805000E-07	 1.17011000E-03	 3.30175000E-05
					 1.82407000E-05	 4.21703000E-03	-1.76444000E-03
					 1.49885000E-05	 1.45168000E-03	-1.79471000E-03
					 0.00000000E+00	 0.00000000E+00	 0.00000000E+00
					-4.41429000E-04	 4.18217000E-03	 3.60396000E-03
					 0.00000000E+00	 0.00000000E+00	 0.00000000E+00
					 1.44068000E-05	 4.41602000E-03	 3.65345000E-03
					 0.00000000E+00	 0.00000000E+00	 0.00000000E+00
					-5.36312000E-04	 1.26708000E-03	 1.86384000E-03
					-2.27230000E-04	 4.01836000E-03	 1.77764000E-03
					 0.00000000E+00	 0.00000000E+00	 0.00000000E+00
					-2.11770000E-04	 4.36296000E-03	 3.60595000E-03
					 0.00000000E+00	 0.00000000E+00	 0.00000000E+00
					 1.72646000E-05	 1.48900000E-03	 1.81582000E-03
					-1.51624000E-05	 4.21727000E-03	 1.76901000E-03
					 0.00000000E+00	 0.00000000E+00	 0.00000000E+00
					 0.00000000E+00	 0.00000000E+00	 0.00000000E+00
					-1.55002000E-05	 4.04919000E-03	-4.41491000E-05
					-4.35552000E-04	 4.15273000E-03	-3.66787000E-03
					 0.00000000E+00	 0.00000000E+00	 0.00000000E+00
					 0.00000000E+00	 0.00000000E+00	 0.00000000E+00
					-1.37624000E-05	 4.18841000E-03	-1.92192000E-05
					-1.88996000E-04	 4.39013000E-03	-3.69051000E-03
					 0.00000000E+00	 0.00000000E+00	 0.00000000E+00
					 1.70752000E-06	 9.30305000E-04	 3.26380000E-06
					-2.03754000E-04	 4.03294000E-03	-1.76170000E-03
					-5.49939000E-04	 1.22019000E-03	-1.87758000E-03
					 0.00000000E+00	 0.00000000E+00	 0.00000000E+00
					 4.46235000E-04	 4.09418000E-03	 3.51066000E-03
					 0.00000000E+00	 0.00000000E+00	 0.00000000E+00
					 2.18588000E-04	 4.36840000E-03	 3.62358000E-03
					 0.00000000E+00	 0.00000000E+00	 0.00000000E+00
					 5.94431000E-04	 1.16976000E-03	 1.84784000E-03
					 1.78677000E-04	 3.99626000E-03	 1.65614000E-03
					-1.76329000E-05	 1.41116000E-02	-1.45075000E-04
					 7.88669000E-04	 1.41221000E-02	-6.28461000E-03
					-3.27463000E-05	 1.46911000E-02	-1.76123000E-04
					 4.71088000E-04	 1.48226000E-02	-6.32065000E-03
					-1.20458000E-05	 8.36819000E-03	-7.48857000E-05
					 3.46421000E-04	 1.40935000E-02	-3.20284000E-03
					 6.43087000E-04	 8.54600000E-03	-5.06990000E-03
					-1.92454000E-05	 1.44024000E-02	-1.47631000E-04
					 6.21339000E-04	 1.45302000E-02	-6.28121000E-03
					-2.39077000E-05	 8.82928000E-03	-5.83143000E-05
					 2.01524000E-04	 1.47275000E-02	-3.22254000E-03
					 2.44186000E-04	 8.99377000E-03	-5.10333000E-03
					-8.13139000E-04	 1.41773000E-02	 6.00706000E-03
					-5.03244000E-04	 1.48588000E-02	 5.98687000E-03
					-6.45683000E-04	 8.55045000E-03	 4.96747000E-03
					-3.75584000E-04	 1.41237000E-02	 2.91887000E-03
					-6.48865000E-04	 1.45758000E-02	 5.98412000E-03
					-2.60294000E-04	 9.04771000E-03	 4.96244000E-03
					-2.42957000E-04	 1.47395000E-02	 2.89689000E-03
					-3.91572000E-05	 1.50488000E-02	-1.60785000E-04
					 1.62880000E-04	 1.51593000E-02	-6.28473000E-03
					-3.13793000E-05	 1.48809000E-02	-1.64648000E-04
					 2.99947000E-04	 1.49990000E-02	-6.30917000E-03
					-2.35989000E-05	 8.84943000E-03	-9.22625000E-05
					 3.90322000E-05	 1.50682000E-02	-3.17775000E-03
					-1.59548000E-04	 9.03710000E-03	-5.13405000E-03
					-2.02667000E-04	 1.52429000E-02	 6.02518000E-03
					-3.52623000E-04	 1.50487000E-02	 6.02505000E-03
					 1.27740000E-04	 9.05390000E-03	 4.90294000E-03
					-1.11202000E-04	 1.51132000E-02	 2.88980000E-03
					-4.37018000E-05	 2.85890000E-02	-2.26474000E-04
					 3.25476000E-04	 2.87613000E-02	-8.24183000E-03
					-2.62991000E-05	 2.89409000E-02	-2.37269000E-04
					 1.13978000E-04	 2.90027000E-02	-8.23084000E-03
					-5.43996000E-05	 2.08984000E-02	-1.83647000E-04
					 1.97178000E-04	 2.86280000E-02	-4.20501000E-03
					 5.74428000E-04	 2.09584000E-02	-7.25456000E-03
					-4.51765000E-05	 2.88002000E-02	-2.27378000E-04
					 2.27951000E-04	 2.88965000E-02	-8.27615000E-03
					-2.16160000E-05	 2.13796000E-02	-2.08305000E-04
					 4.84299000E-05	 2.89330000E-02	-4.25232000E-03
					 3.02620000E-04	 2.14509000E-02	-7.29741000E-03
					-4.30761000E-04	 2.89354000E-02	 7.78479000E-03
					-1.83523000E-04	 2.91613000E-02	 7.72899000E-03
					-6.57500000E-04	 2.10627000E-02	 6.90380000E-03
					-2.63323000E-04	 2.87180000E-02	 3.73314000E-03
					-3.15476000E-04	 2.90523000E-02	 7.81775000E-03
					-3.86461000E-04	 2.15627000E-02	 6.86632000E-03
					-1.12750000E-04	 2.90111000E-02	 3.74695000E-03
					-1.32953000E-05	 2.89211000E-02	-2.49720000E-04
					-1.17990000E-04	 2.90265000E-02	-8.26249000E-03
					-2.25504000E-05	 2.89769000E-02	-2.40627000E-04
					 5.23322000E-06	 2.90446000E-02	-8.21250000E-03
					-2.23465000E-05	 2.15727000E-02	-2.19805000E-04
					-8.64849000E-05	 2.89244000E-02	-4.30347000E-03
					 7.73709000E-05	 2.17133000E-02	-7.27338000E-03
					 1.01604000E-04	 2.91655000E-02	 7.72309000E-03
					-3.18922000E-05	 2.92143000E-02	 7.70009000E-03
					-1.24558000E-04	 2.18191000E-02	 6.86859000E-03
					 4.88549000E-05	 2.90049000E-02	 3.81096000E-03
					-4.03373000E-05	 4.68197000E-02	-3.75713000E-04
					 3.72354000E-04	 4.68278000E-02	-1.04580000E-02
					-5.89376000E-05	 4.69751000E-02	-3.86068000E-04
					-1.24661000E-04	 4.69765000E-02	-1.04816000E-02
					-2.54088000E-05	 3.72504000E-02	-2.93105000E-04
					 8.69108000E-05	 4.67966000E-02	-5.41381000E-03
					 2.70208000E-04	 3.72948000E-02	-9.34825000E-03
					-4.56980000E-05	 4.69437000E-02	-4.04667000E-04
					 1.25151000E-04	 4.69982000E-02	-1.04541000E-02
					-3.99788000E-05	 3.74113000E-02	-2.93920000E-04
					-8.09191000E-05	 4.69380000E-02	-5.40672000E-03
					-5.19008000E-05	 3.74759000E-02	-9.31400000E-03
					-2.89112000E-04	 4.71326000E-02	 9.59006000E-03
					-5.49183000E-06	 4.72111000E-02	 9.71654000E-03
					-3.23703000E-04	 3.75225000E-02	 8.68773000E-03
					-1.78875000E-04	 4.69429000E-02	 4.64177000E-03
					-1.49429000E-04	 4.72243000E-02	 9.63683000E-03
					-5.30523000E-05	 3.76401000E-02	 8.72876000E-03
					-2.96265000E-05	 4.70565000E-02	 4.65960000E-03
					-4.35976000E-05	 4.67273000E-02	-3.38803000E-04
					-5.68539000E-04	 4.67118000E-02	-1.04163000E-02
					-5.37743000E-05	 4.68996000E-02	-3.87933000E-04
					-3.43341000E-04	 4.69501000E-02	-1.04453000E-02
					-3.50710000E-05	 3.72728000E-02	-2.77401000E-04
					-2.44595000E-04	 4.67009000E-02	-5.36028000E-03
					-4.08345000E-04	 3.72711000E-02	-9.34790000E-03
					 2.15768000E-04	 4.70672000E-02	 9.65374000E-03
					 1.00277000E-04	 4.71621000E-02	 9.71599000E-03
					 2.64275000E-04	 3.74989000E-02	 8.69803000E-03
					 1.01177000E-04	 4.68595000E-02	 4.59853000E-03
					-1.02110000E-04	 6.91440000E-02	-6.64678000E-04
					 1.05426000E-04	 6.92587000E-02	-1.25024000E-02
					-7.62973000E-05	 6.93395000E-02	-6.60031000E-04
					-1.84529000E-06	 6.92982000E-02	-1.25220000E-02
					-5.74744000E-05	 5.74996000E-02	-4.88448000E-04
					 3.74329000E-05	 6.91802000E-02	-6.55356000E-03
					 3.02297000E-04	 5.74505000E-02	-1.15618000E-02
					-9.73634000E-05	 6.92613000E-02	-6.62552000E-04
					 4.68592000E-05	 6.92603000E-02	-1.25159000E-02
					-7.93690000E-05	 5.76920000E-02	-5.03285000E-04
					-4.65480000E-05	 6.92893000E-02	-6.57102000E-03
					-3.82989000E-07	 5.77558000E-02	-1.16154000E-02
					-5.59498000E-04	 6.92393000E-02	 1.12016000E-02
					-2.09121000E-04	 6.95794000E-02	 1.12332000E-02
					-4.93848000E-04	 5.76488000E-02	 1.05005000E-02
					-2.48979000E-04	 6.91701000E-02	 5.27523000E-03
					-3.63547000E-04	 6.95010000E-02	 1.12095000E-02
					-1.45012000E-04	 5.79710000E-02	 1.05383000E-02
					-1.37365000E-04	 6.94282000E-02	 5.26706000E-03
					-7.84669000E-05	 6.93721000E-02	-6.34218000E-04
					-2.70827000E-05	 6.95068000E-02	-1.24645000E-02
					-7.23490000E-05	 6.93642000E-02	-6.26954000E-04
					-1.85206000E-05	 6.93461000E-02	-1.25228000E-02
					-7.82809000E-05	 5.76337000E-02	-4.71848000E-04
					-9.99531000E-05	 6.94012000E-02	-6.51302000E-03
					-3.05993000E-04	 5.76009000E-02	-1.15363000E-02
					 9.02035000E-05	 6.94790000E-02	 1.12551000E-02
					-6.87480000E-05	 6.96218000E-02	 1.12502000E-02
					 1.87087000E-04	 5.78254000E-02	 1.05747000E-02
					-5.75883000E-05	 6.94018000E-02	 5.28037000E-03
					-1.15133000E-04	 9.48410000E-02	-1.01154000E-03
					-6.73864000E-05	 9.46040000E-02	-1.41632000E-02
					-1.33133000E-04	 9.46261000E-02	-8.76463000E-04
					-4.94828000E-04	 9.45189000E-02	-1.41236000E-02
					-1.10503000E-04	 8.15920000E-02	-8.53977000E-04
					-2.06449000E-04	 9.47160000E-02	-7.46948000E-03
					 9.69335000E-05	 8.14513000E-02	-1.33446000E-02
					-1.23533000E-04	 9.47748000E-02	-9.42121000E-04
					-2.85559000E-04	 9.46864000E-02	-1.42407000E-02
					-1.08774000E-04	 8.16721000E-02	-7.69458000E-04
					-3.11693000E-04	 9.45447000E-02	-7.50783000E-03
					-1.78248000E-04	 8.16274000E-02	-1.33164000E-02
					 4.73109000E-05	 9.52327000E-02	 1.22313000E-02
					 2.23199000E-04	 9.49306000E-02	 1.22215000E-02
					-3.37472000E-04	 8.17963000E-02	 1.17758000E-02
					-8.24650000E-05	 9.50210000E-02	 5.50911000E-03
					 1.35115000E-04	 9.50774000E-02	 1.23064000E-02
					-9.23811000E-05	 8.19302000E-02	 1.17925000E-02
					 4.29709000E-05	 9.47566000E-02	 5.64562000E-03
					-1.28316000E-04	 9.42114000E-02	-9.06986000E-04
					-7.38269000E-04	 9.40274000E-02	-1.41013000E-02
					-1.29447000E-04	 9.44435000E-02	-8.98456000E-04
					-6.14739000E-04	 9.43670000E-02	-1.40196000E-02
					-1.40866000E-04	 8.15196000E-02	-7.91754000E-04
					-3.70518000E-04	 9.40961000E-02	-7.60429000E-03
					-3.50286000E-04	 8.14601000E-02	-1.33232000E-02
					 1.40675000E-04	 9.47027000E-02	 1.22867000E-02
					 1.93380000E-04	 9.47326000E-02	 1.21830000E-02
					 8.10678000E-05	 8.18382000E-02	 1.18109000E-02
					 1.21290000E-04	 9.44305000E-02	 5.74951000E-03
					-1.70276000E-04	 1.23780000E-01	-1.32960000E-03
					-1.64384000E-03	 1.23809000E-01	-1.55301000E-02
					-1.91839000E-04	 1.22398000E-01	-1.41380000E-03
					-1.61511000E-03	 1.22190000E-01	-1.55533000E-02
					-1.45202000E-04	 1.09063000E-01	-1.13069000E-03
					-8.25468000E-04	 1.23788000E-01	-8.35188000E-03
					-8.42069000E-04	 1.08916000E-01	-1.49143000E-02
					-1.74674000E-04	 1.23073000E-01	-1.38528000E-03
					-1.63094000E-03	 1.22905000E-01	-1.56402000E-02
					-1.53647000E-04	 1.08282000E-01	-1.14312000E-03
					-9.13251000E-04	 1.22286000E-01	-8.42293000E-03
					-1.01353000E-03	 1.08187000E-01	-1.49185000E-02
					 9.85708000E-04	 1.23795000E-01	 1.26808000E-02
					 1.27975000E-03	 1.22559000E-01	 1.27372000E-02
					 6.26667000E-04	 1.09333000E-01	 1.25707000E-02
					 4.73569000E-04	 1.23777000E-01	 5.59921000E-03
					 1.12887000E-03	 1.23252000E-01	 1.27576000E-02
					 7.34221000E-04	 1.08494000E-01	 1.26096000E-02
					 5.65310000E-04	 1.22460000E-01	 5.64758000E-03
					-2.04043000E-04	 1.20874000E-01	-1.36785000E-03
					-1.60118000E-03	 1.20905000E-01	-1.54190000E-02
					-2.02698000E-04	 1.21626000E-01	-1.38750000E-03
					-1.61142000E-03	 1.21505000E-01	-1.54606000E-02
					-1.47317000E-04	 1.07314000E-01	-1.10838000E-03
					-9.42186000E-04	 1.20897000E-01	-8.40081000E-03
					-1.25293000E-03	 1.07124000E-01	-1.48375000E-02
					 1.51169000E-03	 1.20971000E-01	 1.27463000E-02
					 1.40251000E-03	 1.21903000E-01	 1.26025000E-02
					 8.76523000E-04	 1.07518000E-01	 1.25981000E-02
					 5.27079000E-04	 1.20911000E-01	 5.75114000E-03
					 4.80342000E-05	 1.53117000E-01	-2.11602000E-03
					-2.01938000E-03	 1.53100000E-01	-1.67421000E-02
					-1.45277000E-04	 1.50876000E-01	-2.04935000E-03
					-2.11688000E-03	 1.50096000E-01	-1.58837000E-02
					-1.55595000E-04	 1.38343000E-01	-1.75288000E-03
					-9.20840000E-04	 1.53084000E-01	-9.37470000E-03
					-2.11369000E-03	 1.38329000E-01	-1.61305000E-02
					-2.81314000E-05	 1.52028000E-01	-1.98915000E-03
					-2.06952000E-03	 1.51626000E-01	-1.62434000E-02
					-1.91712000E-04	 1.36585000E-01	-1.75009000E-03
					-1.06534000E-03	 1.50472000E-01	-9.06081000E-03
					-2.02395000E-03	 1.36431000E-01	-1.58367000E-02
					 1.65547000E-03	 1.53720000E-01	 1.29882000E-02
					 1.68347000E-03	 1.51491000E-01	 1.25911000E-02
					 1.51602000E-03	 1.38458000E-01	 1.28000000E-02
					 8.12335000E-04	 1.53375000E-01	 5.28333000E-03
					 1.67996000E-03	 1.52600000E-01	 1.27715000E-02
					 1.64465000E-03	 1.36799000E-01	 1.27036000E-02
					 7.06046000E-04	 1.51207000E-01	 5.22969000E-03
					-5.28703000E-04	 1.48765000E-01	-2.16802000E-03
					-2.23815000E-03	 1.48136000E-01	-1.58018000E-02
					-3.41847000E-04	 1.49831000E-01	-2.03561000E-03
					-2.17695000E-03	 1.49089000E-01	-1.56816000E-02
					-2.16460000E-04	 1.34751000E-01	-1.73797000E-03
					-1.44026000E-03	 1.48457000E-01	-9.12641000E-03
					-1.84367000E-03	 1.34742000E-01	-1.57553000E-02
					 1.63618000E-03	 1.49249000E-01	 1.23945000E-02
					 1.64444000E-03	 1.50312000E-01	 1.25247000E-02
					 1.77153000E-03	 1.34776000E-01	 1.25466000E-02
					 5.83089000E-04	 1.49027000E-01	 5.08524000E-03
					 0.00000000E+00	 0.00000000E+00	 0.00000000E+00
					 0.00000000E+00	 0.00000000E+00	 0.00000000E+00
					-1.11592000E-05	-9.42172000E-03	-5.97552000E-05
					-1.48711000E-03	-9.89519000E-03	 8.40452000E-03
					 0.00000000E+00	 0.00000000E+00	 0.00000000E+00
					 0.00000000E+00	 0.00000000E+00	 0.00000000E+00
					-6.97327000E-05	-1.03291000E-02	-1.39417000E-04
					-4.93823000E-04	-1.08551000E-02	 8.35380000E-03
					 0.00000000E+00	 0.00000000E+00	 0.00000000E+00
					-5.95355000E-06	-2.19541000E-03	-8.16841000E-06
					-7.59111000E-04	-9.46765000E-03	 4.07234000E-03
					-1.45520000E-03	-2.94941000E-03	 4.39629000E-03
					 0.00000000E+00	 0.00000000E+00	 0.00000000E+00
					 0.00000000E+00	 0.00000000E+00	 0.00000000E+00
					-3.41436000E-05	-1.00402000E-02	-1.11112000E-04
					-9.78674000E-04	-1.05559000E-02	 8.31622000E-03
					 0.00000000E+00	 0.00000000E+00	 0.00000000E+00
					-1.11229000E-05	-2.97221000E-03	-3.93789000E-05
					-3.01367000E-04	-1.04022000E-02	 3.93090000E-03
					-2.00827000E-04	-3.69659000E-03	 4.25383000E-03
					 0.00000000E+00	 0.00000000E+00	 0.00000000E+00
					 1.38793000E-03	-9.66716000E-03	-8.45775000E-03
					 0.00000000E+00	 0.00000000E+00	 0.00000000E+00
					 3.13410000E-04	-1.07300000E-02	-8.76448000E-03
					 0.00000000E+00	 0.00000000E+00	 0.00000000E+00
					 1.54022000E-03	-2.81829000E-03	-4.43441000E-03
					 6.72858000E-04	-9.37088000E-03	-4.14601000E-03
					 0.00000000E+00	 0.00000000E+00	 0.00000000E+00
					 8.44005000E-04	-1.04110000E-02	-8.59529000E-03
					 0.00000000E+00	 0.00000000E+00	 0.00000000E+00
					 2.10376000E-04	-3.64934000E-03	-4.36683000E-03
					 1.37091000E-04	-1.03305000E-02	-4.29326000E-03
					 0.00000000E+00	 0.00000000E+00	 0.00000000E+00
					 0.00000000E+00	 0.00000000E+00	 0.00000000E+00
					-1.54972000E-04	-1.03933000E-02	-3.37158000E-04
					 4.00361000E-04	-1.07135000E-02	 8.05010000E-03
					 0.00000000E+00	 0.00000000E+00	 0.00000000E+00
					 0.00000000E+00	 0.00000000E+00	 0.00000000E+00
					-1.19621000E-04	-1.05257000E-02	-2.81580000E-04
					-6.58897000E-05	-1.10292000E-02	 8.31024000E-03
					 0.00000000E+00	 0.00000000E+00	 0.00000000E+00
					-7.07708000E-05	-2.64415000E-03	-1.09606000E-04
					 9.31762000E-05	-1.03754000E-02	 3.61001000E-03
					 1.10559000E-03	-3.22645000E-03	 4.29703000E-03
					 0.00000000E+00	 0.00000000E+00	 0.00000000E+00
					-7.25894000E-04	-1.06174000E-02	-8.74650000E-03
					 0.00000000E+00	 0.00000000E+00	 0.00000000E+00
					-1.81168000E-04	-1.08868000E-02	-8.85726000E-03
					 0.00000000E+00	 0.00000000E+00	 0.00000000E+00
					-1.11878000E-03	-3.31677000E-03	-4.60197000E-03
					-4.03689000E-04	-1.03350000E-02	-4.26180000E-03
					-4.14104000E-04	-3.29706000E-02	-5.49548000E-04
					-2.54812000E-03	-3.32745000E-02	 1.29348000E-02
					-4.46632000E-04	-3.47338000E-02	-7.34189000E-04
					-1.95579000E-03	-3.50519000E-02	 1.27602000E-02
					-1.97774000E-04	-1.98615000E-02	-2.67582000E-04
					-1.41325000E-03	-3.31003000E-02	 6.11971000E-03
					-2.05761000E-03	-2.02802000E-02	 1.12154000E-02
					-4.37612000E-04	-3.38673000E-02	-6.32846000E-04
					-2.23193000E-03	-3.42711000E-02	 1.27948000E-02
					-2.28501000E-04	-2.12933000E-02	-4.09059000E-04
					-1.20843000E-03	-3.48444000E-02	 5.88567000E-03
					-1.28348000E-03	-2.17618000E-02	 1.10368000E-02
					 1.69443000E-03	-3.29356000E-02	-1.39464000E-02
					 1.24414000E-03	-3.48355000E-02	-1.41877000E-02
					 1.57174000E-03	-2.01270000E-02	-1.16759000E-02
					 6.11308000E-04	-3.29154000E-02	-7.12828000E-03
					 1.46846000E-03	-3.39464000E-02	-1.40463000E-02
					 7.79694000E-04	-2.15367000E-02	-1.19239000E-02
					 3.80135000E-04	-3.47584000E-02	-7.35124000E-03
					-3.31259000E-04	-3.61114000E-02	-9.08921000E-04
					-1.62479000E-03	-3.64664000E-02	 1.24485000E-02
					-3.76664000E-04	-3.54293000E-02	-8.09832000E-04
					-1.76629000E-03	-3.57239000E-02	 1.26923000E-02
					-2.86677000E-04	-2.19161000E-02	-5.74932000E-04
					-9.33799000E-04	-3.62301000E-02	 5.57803000E-03
					-5.94386000E-04	-2.24342000E-02	 1.07606000E-02
					 8.19073000E-04	-3.62333000E-02	-1.43192000E-02
					 1.01365000E-03	-3.55626000E-02	-1.43226000E-02
					 1.18084000E-05	-2.21939000E-02	-1.20108000E-02
					 2.15728000E-04	-3.61210000E-02	-7.42366000E-03
					-6.93036000E-04	-6.31255000E-02	-1.16639000E-03
					-2.19523000E-03	-6.35945000E-02	 1.35187000E-02
					-8.30938000E-04	-6.46296000E-02	-1.36067000E-03
					-2.27088000E-03	-6.49754000E-02	 1.33775000E-02
					-5.72723000E-04	-4.77368000E-02	-8.58929000E-04
					-1.51552000E-03	-6.33420000E-02	 6.02943000E-03
					-2.37021000E-03	-4.79813000E-02	 1.35877000E-02
					-7.68122000E-04	-6.39048000E-02	-1.24726000E-03
					-2.24996000E-03	-6.42289000E-02	 1.35275000E-02
					-5.71243000E-04	-4.93818000E-02	-1.03730000E-03
					-1.56531000E-03	-6.47974000E-02	 5.90107000E-03
					-2.22518000E-03	-4.96701000E-02	 1.34299000E-02
					 7.43275000E-04	-6.30043000E-02	-1.58553000E-02
					 7.36058000E-04	-6.44222000E-02	-1.61024000E-02
					 1.14656000E-03	-4.76835000E-02	-1.52300000E-02
					 1.02643000E-04	-6.30486000E-02	-8.38762000E-03
					 7.50877000E-04	-6.36365000E-02	-1.60179000E-02
					 9.82945000E-04	-4.92989000E-02	-1.54643000E-02
					-5.29681000E-05	-6.45233000E-02	-8.66558000E-03
					-8.37612000E-04	-6.60304000E-02	-1.55889000E-03
					-2.40625000E-03	-6.64987000E-02	 1.31211000E-02
					-8.46457000E-04	-6.53611000E-02	-1.43574000E-03
					-2.33363000E-03	-6.56129000E-02	 1.32539000E-02
					-6.22570000E-04	-5.08761000E-02	-1.27016000E-03
					-1.55387000E-03	-6.62526000E-02	 5.71282000E-03
					-2.20453000E-03	-5.13341000E-02	 1.30838000E-02
					 7.53712000E-04	-6.60426000E-02	-1.62766000E-02
					 7.54510000E-04	-6.52237000E-02	-1.61779000E-02
					 7.80080000E-04	-5.07923000E-02	-1.56145000E-02
					-3.93453000E-05	-6.60516000E-02	-8.86671000E-03
					-7.75083000E-04	-9.26921000E-02	-1.80021000E-03
					-2.21391000E-03	-9.28106000E-02	 1.17364000E-02