# vtk DataFile Version 3.0

ASCII
DATASET UNSTRUCTURED_GRID

POINTS 522 double
	 1.00000000E+00	 1.00000000E+00	-5.96046000E-08
	 1.00000000E+00	 5.00000000E-01	-5.96046000E-08
	 1.00000000E+00	 5.00000000E-01	 1.00000000E+00
	 1.00000000E+00	 1.00000000E+00	 1.00000000E+00
	 5.00000000E-01	 1.00000000E+00	-5.96046000E-08
	 5.00000000E-01	 5.00000000E-01	-5.96046000E-08
	 5.00000000E-01	 5.00000000E-01	 1.00000000E+00
	 5.00000000E-01	 1.00000000E+00	 1.00000000E+00
	 1.00000000E+00	 7.50000000E-01	-5.96046000E-08
	 1.00000000E+00	 5.00000000E-01	 5.00000000E-01
	 1.00000000E+00	 7.50000000E-01	 1.00000000E+00
	 1.00000000E+00	 1.00000000E+00	 5.00000000E-01
	 7.50000000E-01	 1.00000000E+00	-5.96046000E-08
	 7.50000000E-01	 5.00000000E-01	-5.96046000E-08
	 7.50000000E-01	 5.00000000E-01	 1.00000000E+00
	 7.50000000E-01	 1.00000000E+00	 1.00000000E+00
	 5.00000000E-01	 7.50000000E-01	-5.96046000E-08
	 5.00000000E-01	 5.00000000E-01	 5.00000000E-01
	 5.00000000E-01	 7.50000000E-01	 1.00000000E+00
	 5.00000000E-01	 1.00000000E+00	 5.00000000E-01
	 1.00000000E+00	-1.49012000E-08	-5.96046000E-08
	 1.00000000E+00	-1.49012000E-08	 1.00000000E+00
	 5.00000000E-01	-1.49012000E-08	-5.96046000E-08
	 5.00000000E-01	-1.49012000E-08	 1.00000000E+00
	 1.00000000E+00	 2.50000000E-01	-5.96046000E-08
	 1.00000000E+00	-1.49012000E-08	 5.00000000E-01
	 1.00000000E+00	 2.50000000E-01	 1.00000000E+00
	 7.50000000E-01	-1.49012000E-08	-5.96046000E-08
	 7.50000000E-01	-1.49012000E-08	 1.00000000E+00
	 5.00000000E-01	 2.50000000E-01	-5.96046000E-08
	 5.00000000E-01	-1.49012000E-08	 5.00000000E-01
	 5.00000000E-01	 2.50000000E-01	 1.00000000E+00
	-7.45058000E-09	 1.00000000E+00	-5.96046000E-08
	-7.45058000E-09	 5.00000000E-01	-5.96046000E-08
	-7.45058000E-09	 5.00000000E-01	 1.00000000E+00
	-7.45058000E-09	 1.00000000E+00	 1.00000000E+00
	 2.50000000E-01	 1.00000000E+00	-5.96046000E-08
	 2.50000000E-01	 5.00000000E-01	-5.96046000E-08
	 2.50000000E-01	 5.00000000E-01	 1.00000000E+00
	 2.50000000E-01	 1.00000000E+00	 1.00000000E+00
	-7.45058000E-09	 7.50000000E-01	-5.96046000E-08
	-7.45058000E-09	 5.00000000E-01	 5.00000000E-01
	-7.45058000E-09	 7.50000000E-01	 1.00000000E+00
	-7.45058000E-09	 1.00000000E+00	 5.00000000E-01
	-7.45058000E-09	-1.49012000E-08	-5.96046000E-08
	-7.45058000E-09	-1.49012000E-08	 1.00000000E+00
	 2.50000000E-01	-1.49012000E-08	-5.96046000E-08
	 2.50000000E-01	-1.49012000E-08	 1.00000000E+00
	-7.45058000E-09	 2.50000000E-01	-5.96046000E-08
	-7.45058000E-09	-1.49012000E-08	 5.00000000E-01
	-7.45058000E-09	 2.50000000E-01	 1.00000000E+00
	 1.00000000E+00	 5.00000000E-01	 2.00000000E+00
	 1.00000000E+00	 1.00000000E+00	 2.00000000E+00
	 5.00000000E-01	 5.00000000E-01	 2.00000000E+00
	 5.00000000E-01	 1.00000000E+00	 2.00000000E+00
	 1.00000000E+00	 5.00000000E-01	 1.50000000E+00
	 1.00000000E+00	 7.50000000E-01	 2.00000000E+00
	 1.00000000E+00	 1.00000000E+00	 1.50000000E+00
	 7.50000000E-01	 5.00000000E-01	 2.00000000E+00
	 7.50000000E-01	 1.00000000E+00	 2.00000000E+00
	 5.00000000E-01	 5.00000000E-01	 1.50000000E+00
	 5.00000000E-01	 7.50000000E-01	 2.00000000E+00
	 5.00000000E-01	 1.00000000E+00	 1.50000000E+00
	 1.00000000E+00	-1.49012000E-08	 2.00000000E+00
	 5.00000000E-01	-1.49012000E-08	 2.00000000E+00
	 1.00000000E+00	-1.49012000E-08	 1.50000000E+00
	 1.00000000E+00	 2.50000000E-01	 2.00000000E+00
	 7.50000000E-01	-1.49012000E-08	 2.00000000E+00
	 5.00000000E-01	-1.49012000E-08	 1.50000000E+00
	 5.00000000E-01	 2.50000000E-01	 2.00000000E+00
	-7.45058000E-09	 5.00000000E-01	 2.00000000E+00
	-7.45058000E-09	 1.00000000E+00	 2.00000000E+00
	 2.50000000E-01	 5.00000000E-01	 2.00000000E+00
	 2.50000000E-01	 1.00000000E+00	 2.00000000E+00
	-7.45058000E-09	 5.00000000E-01	 1.50000000E+00
	-7.45058000E-09	 7.50000000E-01	 2.00000000E+00
	-7.45058000E-09	 1.00000000E+00	 1.50000000E+00
	-7.45058000E-09	-1.49012000E-08	 2.00000000E+00
	 2.50000000E-01	-1.49012000E-08	 2.00000000E+00
	-7.45058000E-09	-1.49012000E-08	 1.50000000E+00
	-7.45058000E-09	 2.50000000E-01	 2.00000000E+00
	 1.00000000E+00	 5.00000000E-01	 3.00000000E+00
	 1.00000000E+00	 1.00000000E+00	 3.00000000E+00
	 5.00000000E-01	 5.00000000E-01	 3.00000000E+00
	 5.00000000E-01	 1.00000000E+00	 3.00000000E+00
	 1.00000000E+00	 5.00000000E-01	 2.50000000E+00
	 1.00000000E+00	 7.50000000E-01	 3.00000000E+00
	 1.00000000E+00	 1.00000000E+00	 2.50000000E+00
	 7.50000000E-01	 5.00000000E-01	 3.00000000E+00
	 7.50000000E-01	 1.00000000E+00	 3.00000000E+00
	 5.00000000E-01	 5.00000000E-01	 2.50000000E+00
	 5.00000000E-01	 7.50000000E-01	 3.00000000E+00
	 5.00000000E-01	 1.00000000E+00	 2.50000000E+00
	 1.00000000E+00	-1.49012000E-08	 3.00000000E+00
	 5.00000000E-01	-1.49012000E-08	 3.00000000E+00
	 1.00000000E+00	-1.49012000E-08	 2.50000000E+00
	 1.00000000E+00	 2.50000000E-01	 3.00000000E+00
	 7.50000000E-01	-1.49012000E-08	 3.00000000E+00
	 5.00000000E-01	-1.49012000E-08	 2.50000000E+00
	 5.00000000E-01	 2.50000000E-01	 3.00000000E+00
	-7.45058000E-09	 5.00000000E-01	 3.00000000E+00
	-7.45058000E-09	 1.00000000E+00	 3.00000000E+00
	 2.50000000E-01	 5.00000000E-01	 3.00000000E+00
	 2.50000000E-01	 1.00000000E+00	 3.00000000E+00
	-7.45058000E-09	 5.00000000E-01	 2.50000000E+00
	-7.45058000E-09	 7.50000000E-01	 3.00000000E+00
	-7.45058000E-09	 1.00000000E+00	 2.50000000E+00
	-7.45058000E-09	-1.49012000E-08	 3.00000000E+00
	 2.50000000E-01	-1.49012000E-08	 3.00000000E+00
	-7.45058000E-09	-1.49012000E-08	 2.50000000E+00
	-7.45058000E-09	 2.50000000E-01	 3.00000000E+00
	 1.00000000E+00	 5.00000000E-01	 4.00000000E+00
	 1.00000000E+00	 1.00000000E+00	 4.00000000E+00
	 5.00000000E-01	 5.00000000E-01	 4.00000000E+00
	 5.00000000E-01	 1.00000000E+00	 4.00000000E+00
	 1.00000000E+00	 5.00000000E-01	 3.50000000E+00
	 1.00000000E+00	 7.50000000E-01	 4.00000000E+00
	 1.00000000E+00	 1.00000000E+00	 3.50000000E+00
	 7.50000000E-01	 5.00000000E-01	 4.00000000E+00
	 7.50000000E-01	 1.00000000E+00	 4.00000000E+00
	 5.00000000E-01	 5.00000000E-01	 3.50000000E+00
	 5.00000000E-01	 7.50000000E-01	 4.00000000E+00
	 5.00000000E-01	 1.00000000E+00	 3.50000000E+00
	 1.00000000E+00	-1.49012000E-08	 4.00000000E+00
	 5.00000000E-01	-1.49012000E-08	 4.00000000E+00
	 1.00000000E+00	-1.49012000E-08	 3.50000000E+00
	 1.00000000E+00	 2.50000000E-01	 4.00000000E+00
	 7.50000000E-01	-1.49012000E-08	 4.00000000E+00
	 5.00000000E-01	-1.49012000E-08	 3.50000000E+00
	 5.00000000E-01	 2.50000000E-01	 4.00000000E+00
	-7.45058000E-09	 5.00000000E-01	 4.00000000E+00
	-7.45058000E-09	 1.00000000E+00	 4.00000000E+00
	 2.50000000E-01	 5.00000000E-01	 4.00000000E+00
	 2.50000000E-01	 1.00000000E+00	 4.00000000E+00
	-7.45058000E-09	 5.00000000E-01	 3.50000000E+00
	-7.45058000E-09	 7.50000000E-01	 4.00000000E+00
	-7.45058000E-09	 1.00000000E+00	 3.50000000E+00
	-7.45058000E-09	-1.49012000E-08	 4.00000000E+00
	 2.50000000E-01	-1.49012000E-08	 4.00000000E+00
	-7.45058000E-09	-1.49012000E-08	 3.50000000E+00
	-7.45058000E-09	 2.50000000E-01	 4.00000000E+00
	 1.00000000E+00	 5.00000000E-01	 5.00000000E+00
	 1.00000000E+00	 1.00000000E+00	 5.00000000E+00
	 5.00000000E-01	 5.00000000E-01	 5.00000000E+00
	 5.00000000E-01	 1.00000000E+00	 5.00000000E+00
	 1.00000000E+00	 5.00000000E-01	 4.50000000E+00
	 1.00000000E+00	 7.50000000E-01	 5.00000000E+00
	 1.00000000E+00	 1.00000000E+00	 4.50000000E+00
	 7.50000000E-01	 5.00000000E-01	 5.00000000E+00
	 7.50000000E-01	 1.00000000E+00	 5.00000000E+00
	 5.00000000E-01	 5.00000000E-01	 4.50000000E+00
	 5.00000000E-01	 7.50000000E-01	 5.00000000E+00
	 5.00000000E-01	 1.00000000E+00	 4.50000000E+00
	 1.00000000E+00	-1.49012000E-08	 5.00000000E+00
	 5.00000000E-01	-1.49012000E-08	 5.00000000E+00
	 1.00000000E+00	-1.49012000E-08	 4.50000000E+00
	 1.00000000E+00	 2.50000000E-01	 5.00000000E+00
	 7.50000000E-01	-1.49012000E-08	 5.00000000E+00
	 5.00000000E-01	-1.49012000E-08	 4.50000000E+00
	 5.00000000E-01	 2.50000000E-01	 5.00000000E+00
	-7.45058000E-09	 5.00000000E-01	 5.00000000E+00
	-7.45058000E-09	 1.00000000E+00	 5.00000000E+00
	 2.50000000E-01	 5.00000000E-01	 5.00000000E+00
	 2.50000000E-01	 1.00000000E+00	 5.00000000E+00
	-7.45058000E-09	 5.00000000E-01	 4.50000000E+00
	-7.45058000E-09	 7.50000000E-01	 5.00000000E+00
	-7.45058000E-09	 1.00000000E+00	 4.50000000E+00
	-7.45058000E-09	-1.49012000E-08	 5.00000000E+00
	 2.50000000E-01	-1.49012000E-08	 5.00000000E+00
	-7.45058000E-09	-1.49012000E-08	 4.50000000E+00
	-7.45058000E-09	 2.50000000E-01	 5.00000000E+00
	 1.00000000E+00	 5.00000000E-01	 6.00000000E+00
	 1.00000000E+00	 1.00000000E+00	 6.00000000E+00
	 5.00000000E-01	 5.00000000E-01	 6.00000000E+00
	 5.00000000E-01	 1.00000000E+00	 6.00000000E+00
	 1.00000000E+00	 5.00000000E-01	 5.50000000E+00
	 1.00000000E+00	 7.50000000E-01	 6.00000000E+00
	 1.00000000E+00	 1.00000000E+00	 5.50000000E+00
	 7.50000000E-01	 5.00000000E-01	 6.00000000E+00
	 7.50000000E-01	 1.00000000E+00	 6.00000000E+00
	 5.00000000E-01	 5.00000000E-01	 5.50000000E+00
	 5.00000000E-01	 7.50000000E-01	 6.00000000E+00
	 5.00000000E-01	 1.00000000E+00	 5.50000000E+00
	 1.00000000E+00	-1.49012000E-08	 6.00000000E+00
	 5.00000000E-01	-1.49012000E-08	 6.00000000E+00
	 1.00000000E+00	-1.49012000E-08	 5.50000000E+00
	 1.00000000E+00	 2.50000000E-01	 6.00000000E+00
	 7.50000000E-01	-1.49012000E-08	 6.00000000E+00
	 5.00000000E-01	-1.49012000E-08	 5.50000000E+00
	 5.00000000E-01	 2.50000000E-01	 6.00000000E+00
	-7.45058000E-09	 5.00000000E-01	 6.00000000E+00
	-7.45058000E-09	 1.00000000E+00	 6.00000000E+00
	 2.50000000E-01	 5.00000000E-01	 6.00000000E+00
	 2.50000000E-01	 1.00000000E+00	 6.00000000E+00
	-7.45058000E-09	 5.00000000E-01	 5.50000000E+00
	-7.45058000E-09	 7.50000000E-01	 6.00000000E+00
	-7.45058000E-09	 1.00000000E+00	 5.50000000E+00
	-7.45058000E-09	-1.49012000E-08	 6.00000000E+00
	 2.50000000E-01	-1.49012000E-08	 6.00000000E+00
	-7.45058000E-09	-1.49012000E-08	 5.50000000E+00
	-7.45058000E-09	 2.50000000E-01	 6.00000000E+00
	 1.00000000E+00	 5.00000000E-01	 7.00000000E+00
[...]
POINT_DATA 522
FIELD U 1
	U 3 522 double
		 0.00000000E+00	 0.00000000E+00	 0.00000000E+00
		 0.00000000E+00	 0.00000000E+00	 0.00000000E+00
		-3.63271000E-06	-6.31844000E-03	-1.83242000E-05
		 3.16148000E-04	-6.55553000E-03	 4.61697000E-03
		 0.00000000E+00	 0.00000000E+00	 0.00000000E+00
		 0.00000000E+00	 0.00000000E+00	 0.00000000E+00
		 1.95958000E-06	-5.70864000E-03	-7.67568000E-06
		 8.60567000E-04	-5.98711000E-03	 4.69296000E-03
		 0.00000000E+00	 0.00000000E+00	 0.00000000E+00
		-4.51151000E-06	-1.79842000E-03	 8.67098000E-07
		 1.59151000E-04	-6.33222000E-03	 2.13783000E-03
		-2.60343000E-04	-2.17010000E-03	 2.43827000E-03
		 0.00000000E+00	 0.00000000E+00	 0.00000000E+00
		 0.00000000E+00	 0.00000000E+00	 0.00000000E+00
		-1.58520000E-07	-6.10773000E-03	-1.41099000E-05
		 5.92083000E-04	-6.36925000E-03	 4.73236000E-03
		 0.00000000E+00	 0.00000000E+00	 0.00000000E+00
		-1.97753000E-06	-1.63461000E-03	-1.22449000E-07
		 4.32405000E-04	-5.74238000E-03	 2.25433000E-03
		 4.60517000E-04	-2.03845000E-03	 2.38191000E-03
		 0.00000000E+00	 0.00000000E+00	 0.00000000E+00
		-3.50056000E-04	-6.53103000E-03	-4.65822000E-03
		 0.00000000E+00	 0.00000000E+00	 0.00000000E+00
		-8.80460000E-04	-5.93137000E-03	-4.71734000E-03
		 0.00000000E+00	 0.00000000E+00	 0.00000000E+00
		 2.33067000E-04	-2.16608000E-03	-2.44408000E-03
		-1.74482000E-04	-6.32744000E-03	-2.17508000E-03
		 0.00000000E+00	 0.00000000E+00	 0.00000000E+00
		-6.19499000E-04	-6.32498000E-03	-4.76722000E-03
		 0.00000000E+00	 0.00000000E+00	 0.00000000E+00
		-4.80765000E-04	-2.01606000E-03	-2.38591000E-03
		-4.37027000E-04	-5.71491000E-03	-2.27243000E-03
		 0.00000000E+00	 0.00000000E+00	 0.00000000E+00
		 0.00000000E+00	 0.00000000E+00	 0.00000000E+00
		 4.07000000E-06	-4.57769000E-03	 5.82122000E-06
		 1.39756000E-03	-4.84869000E-03	 4.63709000E-03
		 0.00000000E+00	 0.00000000E+00	 0.00000000E+00
		 0.00000000E+00	 0.00000000E+00	 0.00000000E+00
		 3.61621000E-06	-5.23875000E-03	-1.78681000E-06
		 1.12451000E-03	-5.51117000E-03	 4.60711000E-03
		 0.00000000E+00	 0.00000000E+00	 0.00000000E+00
		-2.32240000E-06	-8.57732000E-04	 3.78969000E-06
		 7.04457000E-04	-4.61503000E-03	 2.29474000E-03
		 1.15278000E-03	-1.27382000E-03	 2.44445000E-03
		 0.00000000E+00	 0.00000000E+00	 0.00000000E+00
		-1.40456000E-03	-4.76987000E-03	-4.63610000E-03
		 0.00000000E+00	 0.00000000E+00	 0.00000000E+00
		-1.13787000E-03	-5.44489000E-03	-4.62037000E-03
		 0.00000000E+00	 0.00000000E+00	 0.00000000E+00
		-1.16638000E-03	-1.23757000E-03	-2.43728000E-03
		-7.00575000E-04	-4.57129000E-03	-2.28737000E-03
		-5.95173000E-06	-2.02185000E-02	-1.06733000E-04
		 1.17421000E-03	-2.04332000E-02	 7.35371000E-03
		-4.81060000E-06	-1.89028000E-02	-8.01319000E-05
		 1.45891000E-03	-1.91105000E-02	 7.39679000E-03
		-3.57154000E-06	-1.26121000E-02	-5.53636000E-05
		 5.79598000E-04	-2.02990000E-02	 3.53960000E-03
		 7.77112000E-04	-1.28884000E-02	 6.21552000E-03
		-5.88880000E-06	-1.95897000E-02	-9.52322000E-05
		 1.31764000E-03	-1.97977000E-02	 7.42032000E-03
		 2.08418000E-08	-1.16291000E-02	-3.40785000E-05
		 7.27227000E-04	-1.89805000E-02	 3.61922000E-03
		 1.18377000E-03	-1.19007000E-02	 6.26539000E-03
		-1.17655000E-03	-2.03019000E-02	-7.57070000E-03
		-1.46000000E-03	-1.89874000E-02	-7.56285000E-03
		-7.94656000E-04	-1.28121000E-02	-6.32567000E-03
		-5.88405000E-04	-2.02335000E-02	-3.75493000E-03
		-1.31944000E-03	-1.96703000E-02	-7.61333000E-03
		-1.19353000E-03	-1.18121000E-02	-6.34125000E-03
		-7.33302000E-04	-1.89204000E-02	-3.78128000E-03
		 1.64933000E-06	-1.73006000E-02	-4.98060000E-05
		 1.75355000E-03	-1.75030000E-02	 7.40619000E-03
		-2.54741000E-06	-1.81302000E-02	-6.38227000E-05
		 1.60475000E-03	-1.83341000E-02	 7.37792000E-03
		 3.95869000E-06	-1.02361000E-02	-1.11577000E-05
		 8.79398000E-04	-1.73731000E-02	 3.66432000E-03
		 1.60505000E-03	-1.05111000E-02	 6.24942000E-03
		-1.74344000E-03	-1.73867000E-02	-7.51437000E-03
		-1.60191000E-03	-1.82145000E-02	-7.51529000E-03
		-1.60421000E-03	-1.04106000E-02	-6.28852000E-03
		-8.73824000E-04	-1.73180000E-02	-3.76493000E-03
		 4.07227000E-06	-3.77436000E-02	-2.50960000E-04
		 1.85967000E-03	-3.79407000E-02	 8.77930000E-03
		 8.61987000E-06	-3.57885000E-02	-2.05086000E-04
		 2.07810000E-03	-3.59824000E-02	 8.82988000E-03
		-2.80526000E-06	-2.86429000E-02	-1.72151000E-04
		 9.31816000E-04	-3.78145000E-02	 4.21130000E-03
		 1.51858000E-03	-2.88469000E-02	 8.13782000E-03
		 6.16253000E-06	-3.67943000E-02	-2.28495000E-04
		 1.96731000E-03	-3.69902000E-02	 8.85080000E-03
		-1.44556000E-06	-2.70096000E-02	-1.37854000E-04
		 1.04327000E-03	-3.58585000E-02	 4.30600000E-03
		 1.75684000E-03	-2.72092000E-02	 8.17851000E-03
		-1.85203000E-03	-3.77641000E-02	-9.28969000E-03
		-2.05519000E-03	-3.58029000E-02	-9.24642000E-03
		-1.51818000E-03	-2.86900000E-02	-8.49157000E-03
		-9.23599000E-04	-3.77271000E-02	-4.71544000E-03
		-1.95319000E-03	-3.68101000E-02	-9.31680000E-03
		-1.74927000E-03	-2.70560000E-02	-8.46095000E-03
		-1.02368000E-03	-3.57682000E-02	-4.71802000E-03
		 1.81236000E-05	-3.36117000E-02	-1.52851000E-04
		 2.30804000E-03	-3.37982000E-02	 8.87786000E-03
		 1.20322000E-05	-3.47279000E-02	-1.80221000E-04
		 2.19405000E-03	-3.49186000E-02	 8.80653000E-03
		 5.60959000E-06	-2.51376000E-02	-9.74527000E-05
		 1.16148000E-03	-3.36770000E-02	 4.40244000E-03
		 1.99486000E-03	-2.53387000E-02	 8.21356000E-03
		-2.26332000E-03	-3.36261000E-02	-9.18741000E-03
		-2.16058000E-03	-3.47424000E-02	-9.16987000E-03
		-1.97045000E-03	-2.51983000E-02	-8.41221000E-03
		-1.12346000E-03	-3.35920000E-02	-4.71009000E-03
		 3.10313000E-05	-5.76565000E-02	-4.38305000E-04
		 2.21277000E-03	-5.78555000E-02	 9.88099000E-03
		 4.00337000E-05	-5.54003000E-02	-3.77894000E-04
		 2.37269000E-03	-5.55945000E-02	 9.95269000E-03
		 1.55321000E-05	-4.74386000E-02	-3.38799000E-04
		 1.12157000E-03	-5.77336000E-02	 4.70092000E-03
		 2.11873000E-03	-4.76427000E-02	 9.37518000E-03
		 3.48791000E-05	-5.65504000E-02	-4.07558000E-04
		 2.29335000E-03	-5.67446000E-02	 9.91544000E-03
		 2.36399000E-05	-4.52504000E-02	-2.84229000E-04
		 1.20841000E-03	-5.54740000E-02	 4.76404000E-03
		 2.31266000E-03	-4.54447000E-02	 9.43749000E-03
		-2.15348000E-03	-5.76331000E-02	-1.07604000E-02
		-2.29846000E-03	-5.53666000E-02	-1.07091000E-02
		-2.08627000E-03	-4.74399000E-02	-1.00605000E-02
		-1.06043000E-03	-5.76244000E-02	-5.57772000E-03
		-2.22695000E-03	-5.65199000E-02	-1.07331000E-02
		-2.26337000E-03	-4.52411000E-02	-1.00104000E-02
		-1.13031000E-03	-5.53623000E-02	-5.51945000E-03
		 4.91325000E-05	-5.29875000E-02	-3.18298000E-04
		 2.55599000E-03	-5.31719000E-02	 1.00014000E-02
		 4.52610000E-05	-5.42138000E-02	-3.48536000E-04
		 2.46487000E-03	-5.44082000E-02	 9.98866000E-03
		 3.42747000E-05	-4.28641000E-02	-2.25369000E-04
		 1.29920000E-03	-5.30568000E-02	 4.80572000E-03
		 2.53246000E-03	-4.30447000E-02	 9.49009000E-03
		-2.46636000E-03	-5.29339000E-02	-1.06362000E-02
		-2.38319000E-03	-5.41762000E-02	-1.06847000E-02
		-2.46232000E-03	-4.28415000E-02	-9.94197000E-03
		-1.20307000E-03	-5.29383000E-02	-5.44109000E-03
		 6.60487000E-05	-7.92408000E-02	-6.61635000E-04
		 1.96567000E-03	-7.93726000E-02	 1.02758000E-02
		 6.40077000E-05	-7.73503000E-02	-6.07586000E-04
		 1.95147000E-03	-7.74789000E-02	 1.03498000E-02
		 4.91260000E-05	-6.83229000E-02	-5.48998000E-04
		 1.01527000E-03	-7.93082000E-02	 4.80117000E-03
		 2.15528000E-03	-6.84933000E-02	 1.02125000E-02
		 6.69015000E-05	-7.82948000E-02	-6.34180000E-04
		 1.96001000E-03	-7.84230000E-02	 1.02705000E-02
		 5.26525000E-05	-6.61756000E-02	-4.86648000E-04
		 1.00872000E-03	-7.74156000E-02	 4.81834000E-03
		 2.24448000E-03	-6.63427000E-02	 1.02915000E-02
		-1.84074000E-03	-7.91171000E-02	-1.15939000E-02
		-1.82257000E-03	-7.72166000E-02	-1.15615000E-02
		-2.06528000E-03	-6.82524000E-02	-1.13065000E-02
		-8.84419000E-04	-7.91802000E-02	-6.12354000E-03
		-1.83107000E-03	-7.81637000E-02	-1.15335000E-02
		-2.14474000E-03	-6.60917000E-02	-1.12617000E-02
		-8.80274000E-04	-7.72841000E-02	-6.03285000E-03
		 6.15576000E-05	-7.54703000E-02	-5.53970000E-04
		 1.94935000E-03	-7.55885000E-02	 1.03761000E-02
		 6.12219000E-05	-7.64090000E-02	-5.80663000E-04
		 1.94989000E-03	-7.65359000E-02	 1.04352000E-02
		 5.60850000E-05	-6.39385000E-02	-4.28753000E-04
		 1.00459000E-03	-7.55281000E-02	 4.78814000E-03
		 2.35677000E-03	-6.40925000E-02	 1.03287000E-02
		-1.81684000E-03	-7.53371000E-02	-1.14822000E-02
		-1.82072000E-03	-7.62737000E-02	-1.15958000E-02
		-2.24794000E-03	-6.38379000E-02	-1.11838000E-02
		-8.78858000E-04	-7.54067000E-02	-5.89478000E-03
		 7.14087000E-05	-1.00188000E-01	-8.48038000E-04
		 1.25406000E-03	-1.00220000E-01	 9.31920000E-03
		 7.70260000E-05	-9.91035000E-02	-8.33125000E-04
		 1.08159000E-03	-9.91197000E-02	 9.33774000E-03
		 7.59785000E-05	-9.00065000E-02	-7.63565000E-04
		 6.57398000E-04	-1.00234000E-01	 4.29735000E-03
		 1.65504000E-03	-9.00910000E-02	 9.92422000E-03
		 7.37322000E-05	-9.96239000E-02	-8.42137000E-04
		 1.16759000E-03	-9.96430000E-02	 9.26239000E-03
		 7.55656000E-05	-8.84909000E-02	-7.27979000E-04
		 5.76814000E-04	-9.91394000E-02	 4.24968000E-03
		 1.53563000E-03	-8.85660000E-02	 9.97567000E-03
		-1.09891000E-03	-9.99911000E-02	-1.10281000E-02
		-9.21806000E-04	-9.89080000E-02	-1.10162000E-02
		-1.50325000E-03	-8.98400000E-02	-1.14502000E-02
		-5.12783000E-04	-1.00112000E-01	-5.99931000E-03
		-1.00848000E-03	-9.94278000E-02	-1.09574000E-02
		-1.38060000E-03	-8.83179000E-02	-1.14324000E-02
		-4.21442000E-04	-9.90328000E-02	-5.91982000E-03
		 8.09211000E-05	-9.81756000E-02	-8.10064000E-04
		 9.01784000E-04	-9.82009000E-02	 9.35768000E-03
		 7.98302000E-05	-9.86149000E-02	-8.21317000E-04
		 9.92248000E-04	-9.86334000E-02	 9.41678000E-03
		 7.35813000E-05	-8.70857000E-02	-6.86390000E-04
		 4.94083000E-04	-9.82136000E-02	 4.20386000E-03
		 1.41752000E-03	-8.71605000E-02	 9.99449000E-03
		-7.42116000E-04	-9.79907000E-02	-1.09903000E-02
		-8.32769000E-04	-9.84219000E-02	-1.10692000E-02
		-1.26292000E-03	-8.69232000E-02	-1.13702000E-02
		-3.32565000E-04	-9.81096000E-02	-5.83007000E-03
		 4.21108000E-05	-1.18395000E-01	-1.01688000E-03
		 3.79387000E-04	-1.18412000E-01	 8.18708000E-03
		 6.29400000E-05	-1.18082000E-01	-1.01989000E-03
		 3.24307000E-04	-1.18104000E-01	 8.18218000E-03
		 5.47001000E-05	-1.09569000E-01	-9.25962000E-04
		 2.09369000E-04	-1.18409000E-01	 3.67223000E-03
		 7.99558000E-04	-1.09593000E-01	 8.67337000E-03
		 4.92381000E-05	-1.18232000E-01	-1.01868000E-03
		 3.47683000E-04	-1.18251000E-01	 8.12877000E-03
		 6.71072000E-05	-1.08900000E-01	-9.26397000E-04
		 1.89694000E-04	-1.18097000E-01	 3.62003000E-03
		 6.63585000E-04	-1.08912000E-01	 8.66596000E-03
		-2.89768000E-04	-1.18290000E-01	-1.02187000E-02
		-2.14128000E-04	-1.17986000E-01	-1.02175000E-02
		-6.67526000E-04	-1.09411000E-01	-1.05498000E-02
		-1.24122000E-04	-1.18357000E-01	-5.69890000E-03
		-2.52781000E-04	-1.18135000E-01	-1.01677000E-02
		-5.30253000E-04	-1.08754000E-01	-1.05394000E-02
		-6.99277000E-05	-1.18049000E-01	-5.65568000E-03
		 8.01393000E-05	-1.17840000E-01	-1.01593000E-03
		 2.53152000E-04	-1.17886000E-01	 8.21225000E-03
		 7.57447000E-05	-1.17949000E-01	-1.01915000E-03
		 2.90419000E-04	-1.17980000E-01	 8.23007000E-03
		 7.76434000E-05	-1.08361000E-01	-9.15194000E-04
		 1.68316000E-04	-1.17868000E-01	 3.60488000E-03
		 5.13685000E-04	-1.08393000E-01	 8.69242000E-03
		-1.26158000E-04	-1.17733000E-01	-1.02366000E-02
		-1.66776000E-04	-1.17849000E-01	-1.02614000E-02
		-3.80072000E-04	-1.08215000E-01	-1.05401000E-02
		-1.80335000E-05	-1.17799000E-01	-5.63203000E-03
		 8.83342000E-05	-1.35994000E-01	-1.21271000E-03
		 1.05453000E-05	-1.36073000E-01	 7.88781000E-03
		 6.82252000E-05	-1.36076000E-01	-1.18259000E-03
		 2.27530000E-05	-1.36196000E-01	 7.95410000E-03
		 5.01219000E-05	-1.27096000E-01	-1.12051000E-03
		 6.49344000E-05	-1.36031000E-01	 3.33306000E-03
		 8.01299000E-05	-1.27119000E-01	 7.97633000E-03
		 7.85768000E-05	-1.36028000E-01	-1.19078000E-03
		 1.58753000E-05	-1.36140000E-01	 7.91626000E-03
		 6.63809000E-05	-1.27049000E-01	-1.10782000E-03
		 5.56393000E-05	-1.36135000E-01	 3.37599000E-03
		 8.99486000E-05	-1.27102000E-01	 8.01011000E-03
		 1.14708000E-04	-1.35865000E-01	-1.02057000E-02
		 8.51440000E-05	-1.35957000E-01	-1.02314000E-02
		-1.26465000E-05	-1.27012000E-01	-1.01505000E-02
		 9.73608000E-05	-1.35926000E-01	-5.72539000E-03
		 1.00420000E-04	-1.35904000E-01	-1.01984000E-02
		 1.89161000E-05	-1.26964000E-01	-1.01639000E-02
		 6.82448000E-05	-1.36009000E-01	-5.71548000E-03
		 4.60975000E-05	-1.36145000E-01	-1.20574000E-03
		 1.66218000E-05	-1.36284000E-01	 7.97130000E-03
		 5.86740000E-05	-1.36122000E-01	-1.18889000E-03
		 2.06303000E-05	-1.36252000E-01	 7.97798000E-03
		 7.69579000E-05	-1.27015000E-01	-1.11971000E-03
		 3.47625000E-05	-1.36215000E-01	 3.37035000E-03
		 9.12899000E-05	-1.27089000E-01	 8.03555000E-03
		 6.58533000E-05	-1.36038000E-01	-1.03127000E-02
		 7.63875000E-05	-1.36008000E-01	-1.02805000E-02
		 4.33793000E-05	-1.26924000E-01	-1.02189000E-02
		 5.33164000E-05	-1.36082000E-01	-5.76154000E-03
		 0.00000000E+00	 0.00000000E+00	 0.00000000E+00
		 0.00000000E+00	 0.00000000E+00	 0.00000000E+00
		 2.35122000E-06	-1.18783000E-02	-2.31098000E-04
		-3.06918000E-03	-1.27433000E-02	 1.22164000E-02
		 0.00000000E+00	 0.00000000E+00	 0.00000000E+00
		 0.00000000E+00	 0.00000000E+00	 0.00000000E+00
		-1.42740000E-05	-1.41023000E-02	-2.95773000E-04
		-1.44852000E-03	-1.50363000E-02	 1.22902000E-02
		 0.00000000E+00	 0.00000000E+00	 0.00000000E+00
		 2.47174000E-05	-2.22593000E-03	-7.60060000E-05
		-1.53280000E-03	-1.20233000E-02	 5.97007000E-03
		-2.59301000E-03	-3.33668000E-03	 6.24252000E-03
		 0.00000000E+00	 0.00000000E+00	 0.00000000E+00
		 0.00000000E+00	 0.00000000E+00	 0.00000000E+00
		-2.96819000E-06	-1.32653000E-02	-2.70526000E-04
		-2.24512000E-03	-1.41644000E-02	 1.21309000E-02
		 0.00000000E+00	 0.00000000E+00	 0.00000000E+00
		-6.71316000E-06	-3.80586000E-03	-1.08046000E-04
		-7.30472000E-04	-1.42725000E-02	 5.84924000E-03
		-7.53542000E-04	-4.90676000E-03	 6.04207000E-03
		 0.00000000E+00	 0.00000000E+00	 0.00000000E+00
		 3.02417000E-03	-1.24393000E-02	-1.27254000E-02
		 0.00000000E+00	 0.00000000E+00	 0.00000000E+00
		 1.40095000E-03	-1.47007000E-02	-1.29343000E-02
		 0.00000000E+00	 0.00000000E+00	 0.00000000E+00
		 2.61382000E-03	-3.26007000E-03	-6.42530000E-03
		 1.52057000E-03	-1.18735000E-02	-6.44700000E-03
		 0.00000000E+00	 0.00000000E+00	 0.00000000E+00
		 2.20562000E-03	-1.38393000E-02	-1.27190000E-02
		 0.00000000E+00	 0.00000000E+00	 0.00000000E+00
		 7.31209000E-04	-4.82902000E-03	-6.27623000E-03
		 6.92738000E-04	-1.41037000E-02	-6.45790000E-03
		 0.00000000E+00	 0.00000000E+00	 0.00000000E+00
		 0.00000000E+00	 0.00000000E+00	 0.00000000E+00
		-4.14418000E-05	-1.47268000E-02	-3.11501000E-04
		 1.74563000E-04	-1.56016000E-02	 1.21396000E-02
		 0.00000000E+00	 0.00000000E+00	 0.00000000E+00
		 0.00000000E+00	 0.00000000E+00	 0.00000000E+00
		-2.66125000E-05	-1.46883000E-02	-3.10431000E-04
		-6.47237000E-04	-1.55936000E-02	 1.23273000E-02
		 0.00000000E+00	 0.00000000E+00	 0.00000000E+00
		-4.94348000E-05	-3.70956000E-03	-1.19543000E-04
		 6.69233000E-05	-1.48761000E-02	 5.65446000E-03
		 1.12435000E-03	-4.77468000E-03	 6.20733000E-03
		 0.00000000E+00	 0.00000000E+00	 0.00000000E+00
		-2.45652000E-04	-1.52580000E-02	-1.28056000E-02
		 0.00000000E+00	 0.00000000E+00	 0.00000000E+00
		 5.85477000E-04	-1.52504000E-02	-1.29989000E-02
		 0.00000000E+00	 0.00000000E+00	 0.00000000E+00
		-1.21100000E-03	-4.69395000E-03	-6.46275000E-03
		-1.43832000E-04	-1.47068000E-02	-6.28954000E-03
		 7.68134000E-06	-4.77401000E-02	-9.80814000E-04
		-3.78282000E-03	-4.88135000E-02	 2.11399000E-02
		 5.24025000E-06	-5.09288000E-02	-1.07900000E-03
		-2.59431000E-03	-5.20075000E-02	 2.11035000E-02
		-2.71067000E-06	-2.72898000E-02	-5.25026000E-04
		-1.88637000E-03	-4.81467000E-02	 1.00029000E-02
		-3.50977000E-03	-2.83435000E-02	 1.71947000E-02
		 6.23585000E-06	-4.94656000E-02	-1.04069000E-03
		-3.19077000E-03	-5.05408000E-02	 2.10750000E-02
		-1.76293000E-05	-3.00553000E-02	-6.07144000E-04
		-1.29020000E-03	-5.13368000E-02	 9.89792000E-03
		-2.05766000E-03	-3.11197000E-02	 1.71696000E-02
		 3.80421000E-03	-4.77796000E-02	-2.31594000E-02
		 2.61259000E-03	-5.09915000E-02	-2.33218000E-02
		 3.47622000E-03	-2.77037000E-02	-1.83000000E-02
		 1.90202000E-03	-4.76320000E-02	-1.19794000E-02
		 3.21354000E-03	-4.95244000E-02	-2.32104000E-02
		 2.01630000E-03	-3.04689000E-02	-1.84474000E-02
		 1.30867000E-03	-5.08375000E-02	-1.20675000E-02
		-4.41713000E-07	-5.29461000E-02	-1.11588000E-03
		-1.38841000E-03	-5.39861000E-02	 2.10043000E-02
		 1.37257000E-06	-5.20665000E-02	-1.10231000E-03
		-1.98852000E-03	-5.31656000E-02	 2.11579000E-02
		-3.82405000E-05	-3.13644000E-02	-6.32172000E-04
		-7.04701000E-04	-5.33237000E-02	 9.72433000E-03
		-6.18195000E-04	-3.24264000E-02	 1.70811000E-02
		 1.43240000E-03	-5.30092000E-02	-2.32976000E-02
		 2.01838000E-03	-5.21288000E-02	-2.34295000E-02
		 5.69197000E-04	-3.17902000E-02	-1.84152000E-02
		 7.17696000E-04	-5.28567000E-02	-1.19645000E-02
		 1.72341000E-04	-9.95157000E-02	-2.37970000E-03
		-4.18687000E-03	-1.00518000E-01	 2.54353000E-02
		 1.87852000E-04	-1.03573000E-01	-2.46793000E-03
		-3.62503000E-03	-1.04695000E-01	 2.54157000E-02
		 6.94471000E-05	-7.21764000E-02	-1.60254000E-03
		-2.00237000E-03	-9.99416000E-02	 1.14464000E-02
		-3.99316000E-03	-7.32678000E-02	 2.38689000E-02
		 1.80808000E-04	-1.01615000E-01	-2.42508000E-03
		-3.90810000E-03	-1.02689000E-01	 2.53611000E-02
		 7.27523000E-05	-7.58021000E-02	-1.70555000E-03
		-1.74278000E-03	-1.04060000E-01	 1.13183000E-02
		-3.11980000E-03	-7.69031000E-02	 2.38499000E-02
		 4.48667000E-03	-9.89863000E-02	-3.02200000E-02
		 4.00037000E-03	-1.03052000E-01	-3.04098000E-02
		 4.12470000E-03	-7.19336000E-02	-2.71352000E-02
		 2.33284000E-03	-9.91877000E-02	-1.62054000E-02
		 4.23942000E-03	-1.01084000E-01	-3.02656000E-02
		 3.27760000E-03	-7.55496000E-02	-2.73177000E-02
		 2.09617000E-03	-1.03256000E-01	-1.62838000E-02
		 2.04165000E-04	-1.07131000E-01	-2.52524000E-03
		-3.16910000E-03	-1.08373000E-01	 2.52864000E-02
		 1.95174000E-04	-1.05433000E-01	-2.50279000E-03
		-3.40168000E-03	-1.06493000E-01	 2.54923000E-02
		 8.64297000E-05	-7.85692000E-02	-1.75606000E-03
		-1.45108000E-03	-1.07675000E-01	 1.10829000E-02
		-2.26767000E-03	-7.96816000E-02	 2.37254000E-02
		 3.53943000E-03	-1.06646000E-01	-3.04199000E-02
		 3.77167000E-03	-1.04901000E-01	-3.05552000E-02
		 2.42086000E-03	-7.83226000E-02	-2.72904000E-02
		 1.86112000E-03	-1.06849000E-01	-1.61865000E-02
		 5.98346000E-04	-1.58249000E-01	-4.18990000E-03
		-3.97629000E-03	-1.58962000E-01	 2.49289000E-02
		 6.10633000E-04	-1.62911000E-01	-4.19297000E-03
		-4.14830000E-03	-1.64098000E-01	 2.49644000E-02
		 3.17043000E-04	-1.28555000E-01	-3.25891000E-03
		-1.68938000E-03	-1.58615000E-01	 1.02921000E-02
		-4.22804000E-03	-1.29522000E-01	 2.56436000E-02
		 6.03584000E-04	-1.60532000E-01	-4.18760000E-03
		-4.05514000E-03	-1.61429000E-01	 2.49663000E-02
		 3.29414000E-04	-1.33035000E-01	-3.35752000E-03
		-1.64591000E-03	-1.63501000E-01	 1.03153000E-02
		-4.07093000E-03	-1.33967000E-01	 2.56898000E-02
		 4.99566000E-03	-1.57374000E-01	-3.33034000E-02
		 5.05868000E-03	-1.61873000E-01	-3.33354000E-02
		 4.83004000E-03	-1.27817000E-01	-3.21779000E-02
		 2.79857000E-03	-1.57837000E-01	-1.86675000E-02
		 5.03037000E-03	-1.59605000E-01	-3.33359000E-02
		 4.65423000E-03	-1.32255000E-01	-3.23146000E-02
		 2.82597000E-03	-1.62391000E-01	-1.87010000E-02
		 4.92380000E-04	-1.67654000E-01	-4.21053000E-03
		-4.20504000E-03	-1.69237000E-01	 2.49186000E-02
		 5.53149000E-04	-1.65233000E-01	-4.20302000E-03
		-4.17679000E-03	-1.67132000E-01	 2.49634000E-02
		 3.24587000E-04	-1.37330000E-01	-3.47439000E-03
		-1.96402000E-03	-1.68428000E-01	 1.02614000E-02
		-3.76634000E-03	-1.38172000E-01	 2.55767000E-02
		 5.17171000E-03	-1.66469000E-01	-3.33144000E-02