# vtk DataFile Version 3.0

ASCII
DATASET UNSTRUCTURED_GRID

POINTS 522 double
	 1.00000000E+00	 1.00000000E+00	-5.96046000E-08
	 1.00000000E+00	 5.00000000E-01	-5.96046000E-08
	 1.00000000E+00	 5.00000000E-01	 1.00000000E+00
	 1.00000000E+00	 1.00000000E+00	 1.00000000E+00
	 5.00000000E-01	 1.00000000E+00	-5.96046000E-08
	 5.00000000E-01	 5.00000000E-01	-5.96046000E-08
	 5.00000000E-01	 5.00000000E-01	 1.00000000E+00
	 5.00000000E-01	 1.00000000E+00	 1.00000000E+00
	 1.00000000E+00	 7.50000000E-01	-5.96046000E-08
	 1.00000000E+00	 5.00000000E-01	 5.00000000E-01
	 1.00000000E+00	 7.50000000E-01	 1.00000000E+00
	 1.00000000E+00	 1.00000000E+00	 5.00000000E-01
	 7.50000000E-01	 1.00000000E+00	-5.96046000E-08
	 7.50000000E-01	 5.00000000E-01	-5.96046000E-08
	 7.50000000E-01	 5.00000000E-01	 1.00000000E+00
	 7.50000000E-01	 1.00000000E+00	 1.00000000E+00
	 5.00000000E-01	 7.50000000E-01	-5.96046000E-08
	 5.00000000E-01	 5.00000000E-01	 5.00000000E-01
	 5.00000000E-01	 7.50000000E-01	 1.00000000E+00
	 5.00000000E-01	 1.00000000E+00	 5.00000000E-01
	 1.00000000E+00	-1.49012000E-08	-5.96046000E-08
	 1.00000000E+00	-1.49012000E-08	 1.00000000E+00
	 5.00000000E-01	-1.49012000E-08	-5.96046000E-08
	 5.00000000E-01	-1.49012000E-08	 1.00000000E+00
	 1.00000000E+00	 2.50000000E-01	-5.96046000E-08
	 1.00000000E+00	-1.49012000E-08	 5.00000000E-01
	 1.00000000E+00	 2.50000000E-01	 1.00000000E+00
	 7.50000000E-01	-1.49012000E-08	-5.96046000E-08
	 7.50000000E-01	-1.49012000E-08	 1.00000000E+00
	 5.00000000E-01	 2.50000000E-01	-5.96046000E-08
	 5.00000000E-01	-1.49012000E-08	 5.00000000E-01
	 5.00000000E-01	 2.50000000E-01	 1.00000000E+00
	-7.45058000E-09	 1.00000000E+00	-5.96046000E-08
	-7.45058000E-09	 5.00000000E-01	-5.96046000E-08
	-7.45058000E-09	 5.00000000E-01	 1.00000000E+00
	-7.45058000E-09	 1.00000000E+00	 1.00000000E+00
	 2.50000000E-01	 1.00000000E+00	-5.96046000E-08
	 2.50000000E-01	 5.00000000E-01	-5.96046000E-08
	 2.50000000E-01	 5.00000000E-01	 1.00000000E+00
	 2.50000000E-01	 1.00000000E+00	 1.00000000E+00
	-7.45058000E-09	 7.50000000E-01	-5.96046000E-08
	-7.45058000E-09	 5.00000000E-01	 5.00000000E-01
	-7.45058000E-09	 7.50000000E-01	 1.00000000E+00
	-7.45058000E-09	 1.00000000E+00	 5.00000000E-01
	-7.45058000E-09	-1.49012000E-08	-5.96046000E-08
	-7.45058000E-09	-1.49012000E-08	 1.00000000E+00
	 2.50000000E-01	-1.49012000E-08	-5.96046000E-08
	 2.50000000E-01	-1.49012000E-08	 1.00000000E+00
	-7.45058000E-09	 2.50000000E-01	-5.96046000E-08
	-7.45058000E-09	-1.49012000E-08	 5.00000000E-01
	-7.45058000E-09	 2.50000000E-01	 1.00000000E+00
	 1.00000000E+00	 5.00000000E-01	 2.00000000E+00
	 1.00000000E+00	 1.00000000E+00	 2.00000000E+00
	 5.00000000E-01	 5.00000000E-01	 2.00000000E+00
	 5.00000000E-01	 1.00000000E+00	 2.00000000E+00
	 1.00000000E+00	 5.00000000E-01	 1.50000000E+00
	 1.00000000E+00	 7.50000000E-01	 2.00000000E+00
	 1.00000000E+00	 1.00000000E+00	 1.50000000E+00
	 7.50000000E-01	 5.00000000E-01	 2.00000000E+00
	 7.50000000E-01	 1.00000000E+00	 2.00000000E+00
	 5.00000000E-01	 5.00000000E-01	 1.50000000E+00
	 5.00000000E-01	 7.50000000E-01	 2.00000000E+00
	 5.00000000E-01	 1.00000000E+00	 1.50000000E+00
	 1.00000000E+00	-1.49012000E-08	 2.00000000E+00
	 5.00000000E-01	-1.49012000E-08	 2.00000000E+00
	 1.00000000E+00	-1.49012000E-08	 1.50000000E+00
	 1.00000000E+00	 2.50000000E-01	 2.00000000E+00
	 7.50000000E-01	-1.49012000E-08	 2.00000000E+00
	 5.00000000E-01	-1.49012000E-08	 1.50000000E+00
	 5.00000000E-01	 2.50000000E-01	 2.00000000E+00
	-7.45058000E-09	 5.00000000E-01	 2.00000000E+00
	-7.45058000E-09	 1.00000000E+00	 2.00000000E+00
	 2.50000000E-01	 5.00000000E-01	 2.00000000E+00
	 2.50000000E-01	 1.00000000E+00	 2.00000000E+00
	-7.45058000E-09	 5.00000000E-01	 1.50000000E+00
	-7.45058000E-09	 7.50000000E-01	 2.00000000E+00
	-7.45058000E-09	 1.00000000E+00	 1.50000000E+00
	-7.45058000E-09	-1.49012000E-08	 2.00000000E+00
	 2.50000000E-01	-1.49012000E-08	 2.00000000E+00
	-7.45058000E-09	-1.49012000E-08	 1.50000000E+00
	-7.45058000E-09	 2.50000000E-01	 2.00000000E+00
	 1.00000000E+00	 5.00000000E-01	 3.00000000E+00
	 1.00000000E+00	 1.00000000E+00	 3.00000000E+00
	 5.00000000E-01	 5.00000000E-01	 3.00000000E+00
	 5.00000000E-01	 1.00000000E+00	 3.00000000E+00
	 1.00000000E+00	 5.00000000E-01	 2.50000000E+00
	 1.00000000E+00	 7.50000000E-01	 3.00000000E+00
	 1.00000000E+00	 1.00000000E+00	 2.50000000E+00
	 7.50000000E-01	 5.00000000E-01	 3.00000000E+00
	 7.50000000E-01	 1.00000000E+00	 3.00000000E+00
	 5.00000000E-01	 5.00000000E-01	 2.50000000E+00
	 5.00000000E-01	 7.50000000E-01	 3.00000000E+00
	 5.00000000E-01	 1.00000000E+00	 2.50000000E+00
	 1.00000000E+00	-1.49012000E-08	 3.00000000E+00
	 5.00000000E-01	-1.49012000E-08	 3.00000000E+00
	 1.00000000E+00	-1.49012000E-08	 2.50000000E+00
	 1.00000000E+00	 2.50000000E-01	 3.00000000E+00
	 7.50000000E-01	-1.49012000E-08	 3.00000000E+00
	 5.00000000E-01	-1.49012000E-08	 2.50000000E+00
	 5.00000000E-01	 2.50000000E-01	 3.00000000E+00
	-7.45058000E-09	 5.00000000E-01	 3.00000000E+00
	-7.45058000E-09	 1.00000000E+00	 3.00000000E+00
	 2.50000000E-01	 5.00000000E-01	 3.00000000E+00
	 2.50000000E-01	 1.00000000E+00	 3.00000000E+00
	-7.45058000E-09	 5.00000000E-01	 2.50000000E+00
	-7.45058000E-09	 7.50000000E-01	 3.00000000E+00
	-7.45058000E-09	 1.00000000E+00	 2.50000000E+00
	-7.45058000E-09	-1.49012000E-08	 3.00000000E+00
	 2.50000000E-01	-1.49012000E-08	 3.00000000E+00
	-7.45058000E-09	-1.49012000E-08	 2.50000000E+00
	-7.45058000E-09	 2.50000000E-01	 3.00000000E+00
	 1.00000000E+00	 5.00000000E-01	 4.00000000E+00
	 1.00000000E+00	 1.00000000E+00	 4.00000000E+00
	 5.00000000E-01	 5.00000000E-01	 4.00000000E+00
	 5.00000000E-01	 1.00000000E+00	 4.00000000E+00
	 1.00000000E+00	 5.00000000E-01	 3.50000000E+00
	 1.00000000E+00	 7.50000000E-01	 4.00000000E+00
	 1.00000000E+00	 1.00000000E+00	 3.50000000E+00
	 7.50000000E-01	 5.00000000E-01	 4.00000000E+00
	 7.50000000E-01	 1.00000000E+00	 4.00000000E+00
	 5.00000000E-01	 5.00000000E-01	 3.50000000E+00
	 5.00000000E-01	 7.50000000E-01	 4.00000000E+00
	 5.00000000E-01	 1.00000000E+00	 3.50000000E+00
	 1.00000000E+00	-1.49012000E-08	 4.00000000E+00
	 5.00000000E-01	-1.49012000E-08	 4.00000000E+00
	 1.00000000E+00	-1.49012000E-08	 3.50000000E+00
	 1.00000000E+00	 2.50000000E-01	 4.00000000E+00
	 7.50000000E-01	-1.49012000E-08	 4.00000000E+00
	 5.00000000E-01	-1.49012000E-08	 3.50000000E+00
	 5.00000000E-01	 2.50000000E-01	 4.00000000E+00
	-7.45058000E-09	 5.00000000E-01	 4.00000000E+00
	-7.45058000E-09	 1.00000000E+00	 4.00000000E+00
	 2.50000000E-01	 5.00000000E-01	 4.00000000E+00
	 2.50000000E-01	 1.00000000E+00	 4.00000000E+00
	-7.45058000E-09	 5.00000000E-01	 3.50000000E+00
	-7.45058000E-09	 7.50000000E-01	 4.00000000E+00
	-7.45058000E-09	 1.00000000E+00	 3.50000000E+00
	-7.45058000E-09	-1.49012000E-08	 4.00000000E+00
	 2.50000000E-01	-1.49012000E-08	 4.00000000E+00
	-7.45058000E-09	-1.49012000E-08	 3.50000000E+00
	-7.45058000E-09	 2.50000000E-01	 4.00000000E+00
	 1.00000000E+00	 5.00000000E-01	 5.00000000E+00
	 1.00000000E+00	 1.00000000E+00	 5.00000000E+00
	 5.00000000E-01	 5.00000000E-01	 5.00000000E+00
	 5.00000000E-01	 1.00000000E+00	 5.00000000E+00
	 1.00000000E+00	 5.00000000E-01	 4.50000000E+00
	 1.00000000E+00	 7.50000000E-01	 5.00000000E+00
	 1.00000000E+00	 1.00000000E+00	 4.50000000E+00
	 7.50000000E-01	 5.00000000E-01	 5.00000000E+00
	 7.50000000E-01	 1.00000000E+00	 5.00000000E+00
	 5.00000000E-01	 5.00000000E-01	 4.50000000E+00
	 5.00000000E-01	 7.50000000E-01	 5.00000000E+00
	 5.00000000E-01	 1.00000000E+00	 4.50000000E+00
	 1.00000000E+00	-1.49012000E-08	 5.00000000E+00
	 5.00000000E-01	-1.49012000E-08	 5.00000000E+00
	 1.00000000E+00	-1.49012000E-08	 4.50000000E+00
	 1.00000000E+00	 2.50000000E-01	 5.00000000E+00
	 7.50000000E-01	-1.49012000E-08	 5.00000000E+00
	 5.00000000E-01	-1.49012000E-08	 4.50000000E+00
	 5.00000000E-01	 2.50000000E-01	 5.00000000E+00
	-7.45058000E-09	 5.00000000E-01	 5.00000000E+00
	-7.45058000E-09	 1.00000000E+00	 5.00000000E+00
	 2.50000000E-01	 5.00000000E-01	 5.00000000E+00
	 2.50000000E-01	 1.00000000E+00	 5.00000000E+00
	-7.45058000E-09	 5.00000000E-01	 4.50000000E+00
	-7.45058000E-09	 7.50000000E-01	 5.00000000E+00
	-7.45058000E-09	 1.00000000E+00	 4.50000000E+00
	-7.45058000E-09	-1.49012000E-08	 5.00000000E+00
	 2.50000000E-01	-1.49012000E-08	 5.00000000E+00
	-7.45058000E-09	-1.49012000E-08	 4.50000000E+00
	-7.45058000E-09	 2.50000000E-01	 5.00000000E+00
	 1.00000000E+00	 5.00000000E-01	 6.00000000E+00
	 1.00000000E+00	 1.00000000E+00	 6.00000000E+00
	 5.00000000E-01	 5.00000000E-01	 6.00000000E+00
	 5.00000000E-01	 1.00000000E+00	 6.00000000E+00
	 1.00000000E+00	 5.00000000E-01	 5.50000000E+00
	 1.00000000E+00	 7.50000000E-01	 6.00000000E+00
	 1.00000000E+00	 1.00000000E+00	 5.50000000E+00
	 7.50000000E-01	 5.00000000E-01	 6.00000000E+00
	 7.50000000E-01	 1.00000000E+00	 6.00000000E+00
	 5.00000000E-01	 5.00000000E-01	 5.50000000E+00
	 5.00000000E-01	 7.50000000E-01	 6.00000000E+00
	 5.00000000E-01	 1.00000000E+00	 5.50000000E+00
	 1.00000000E+00	-1.49012000E-08	 6.00000000E+00
	 5.00000000E-01	-1.49012000E-08	 6.00000000E+00
	 1.00000000E+00	-1.49012000E-08	 5.50000000E+00
	 1.00000000E+00	 2.50000000E-01	 6.00000000E+00
	 7.50000000E-01	-1.49012000E-08	 6.00000000E+00
	 5.00000000E-01	-1.49012000E-08	 5.50000000E+00
	 5.00000000E-01	 2.50000000E-01	 6.00000000E+00
	-7.45058000E-09	 5.00000000E-01	 6.00000000E+00
	-7.45058000E-09	 1.00000000E+00	 6.00000000E+00
	 2.50000000E-01	 5.00000000E-01	 6.00000000E+00
	 2.50000000E-01	 1.00000000E+00	 6.00000000E+00
	-7.45058000E-09	 5.00000000E-01	 5.50000000E+00
	-7.45058000E-09	 7.50000000E-01	 6.00000000E+00
	-7.45058000E-09	 1.00000000E+00	 5.50000000E+00
	-7.45058000E-09	-1.49012000E-08	 6.00000000E+00
	 2.50000000E-01	-1.49012000E-08	 6.00000000E+00
	-7.45058000E-09	-1.49012000E-08	 5.50000000E+00
	-7.45058000E-09	 2.50000000E-01	 6.00000000E+00
	 1.00000000E+00	 5.00000000E-01	 7.00000000E+00
[...]
POINT_DATA 522
FIELD U 1
	U 3 522 double
		 0.00000000E+00	 0.00000000E+00	 0.00000000E+00
		 0.00000000E+00	 0.00000000E+00	 0.00000000E+00
		-1.12515000E-05	 1.14790000E-03	-2.25087000E-05
		 7.20486000E-04	 1.15396000E-03	-9.70790000E-04
		 0.00000000E+00	 0.00000000E+00	 0.00000000E+00
		 0.00000000E+00	 0.00000000E+00	 0.00000000E+00
		-1.58726000E-05	 1.88607000E-03	-3.67508000E-05
		 7.11214000E-04	 1.88761000E-03	-1.01822000E-03
		 0.00000000E+00	 0.00000000E+00	 0.00000000E+00
		 1.45624000E-06	 2.81702000E-04	-9.43644000E-06
		 3.57124000E-04	 1.14157000E-03	-4.91512000E-04
		 4.88772000E-04	 3.71113000E-04	-6.39528000E-04
		 0.00000000E+00	 0.00000000E+00	 0.00000000E+00
		 0.00000000E+00	 0.00000000E+00	 0.00000000E+00
		-1.30797000E-05	 1.52726000E-03	-3.05692000E-05
		 7.14919000E-04	 1.52760000E-03	-9.41569000E-04
		 0.00000000E+00	 0.00000000E+00	 0.00000000E+00
		-2.83405000E-06	 6.93422000E-04	-1.54396000E-05
		 3.46466000E-04	 1.87590000E-03	-4.64512000E-04
		 3.50950000E-04	 7.74889000E-04	-6.45256000E-04
		 0.00000000E+00	 0.00000000E+00	 0.00000000E+00
		-7.45106000E-04	 1.14593000E-03	 9.25463000E-04
		 0.00000000E+00	 0.00000000E+00	 0.00000000E+00
		-7.44635000E-04	 1.88038000E-03	 9.45145000E-04
		 0.00000000E+00	 0.00000000E+00	 0.00000000E+00
		-4.86084000E-04	 3.64204000E-04	 6.18114000E-04
		-3.80478000E-04	 1.13702000E-03	 4.46812000E-04
		 0.00000000E+00	 0.00000000E+00	 0.00000000E+00
		-7.43182000E-04	 1.52017000E-03	 8.80300000E-04
		 0.00000000E+00	 0.00000000E+00	 0.00000000E+00
		-3.56899000E-04	 7.66138000E-04	 6.12124000E-04
		-3.79084000E-04	 1.87213000E-03	 3.91416000E-04
		 0.00000000E+00	 0.00000000E+00	 0.00000000E+00
		 0.00000000E+00	 0.00000000E+00	 0.00000000E+00
		-2.22414000E-05	 2.60414000E-03	-5.06736000E-05
		 6.87122000E-04	 2.59645000E-03	-9.99144000E-04
		 0.00000000E+00	 0.00000000E+00	 0.00000000E+00
		 0.00000000E+00	 0.00000000E+00	 0.00000000E+00
		-1.88231000E-05	 2.25335000E-03	-4.26234000E-05
		 6.99436000E-04	 2.25292000E-03	-1.08929000E-03
		 0.00000000E+00	 0.00000000E+00	 0.00000000E+00
		-9.48833000E-06	 9.89220000E-04	-2.35628000E-05
		 3.33912000E-04	 2.58952000E-03	-3.84601000E-04
		 1.81928000E-04	 1.05208000E-03	-6.53914000E-04
		 0.00000000E+00	 0.00000000E+00	 0.00000000E+00
		-7.31904000E-04	 2.58942000E-03	 8.99014000E-04
		 0.00000000E+00	 0.00000000E+00	 0.00000000E+00
		-7.38288000E-04	 2.24602000E-03	 1.00501000E-03
		 0.00000000E+00	 0.00000000E+00	 0.00000000E+00
		-2.00502000E-04	 1.04066000E-03	 6.04877000E-04
		-3.78494000E-04	 2.58596000E-03	 2.83784000E-04
		-4.77359000E-05	 2.22478000E-03	-6.07845000E-05
		 1.48078000E-03	 2.19433000E-03	-6.52359000E-04
		-5.08643000E-05	 3.79247000E-03	-7.37141000E-05
		 1.54576000E-03	 3.75862000E-03	-6.60968000E-04
		-3.06232000E-05	 1.90742000E-03	-4.07257000E-05
		 7.18674000E-04	 2.22275000E-03	-4.43779000E-04
		 1.05017000E-03	 1.90881000E-03	-8.83679000E-04
		-4.94792000E-05	 2.99659000E-03	-6.75581000E-05
		 1.51348000E-03	 2.96337000E-03	-5.84228000E-04
		-3.48755000E-05	 3.02841000E-03	-5.63875000E-05
		 7.47915000E-04	 3.79017000E-03	-3.83917000E-04
		 1.10819000E-03	 3.01977000E-03	-9.10109000E-04
		-1.57917000E-03	 2.18786000E-03	 5.31959000E-04
		-1.64931000E-03	 3.75619000E-03	 5.14462000E-04
		-1.11408000E-03	 1.89977000E-03	 8.02963000E-04
		-8.14908000E-04	 2.21977000E-03	 3.22553000E-04
		-1.61496000E-03	 2.95912000E-03	 4.50094000E-04
		-1.18003000E-03	 3.01418000E-03	 7.98216000E-04
		-8.50148000E-04	 3.78926000E-03	 2.36644000E-04
		-5.29041000E-05	 5.42052000E-03	-8.66582000E-05
		 1.61759000E-03	 5.39308000E-03	-6.78817000E-04
		-5.21160000E-05	 4.59569000E-03	-7.99268000E-05
		 1.58146000E-03	 4.56145000E-03	-7.31614000E-04
		-3.94188000E-05	 4.19655000E-03	-7.14363000E-05
		 7.78973000E-04	 5.42063000E-03	-3.35515000E-04
		 1.16481000E-03	 4.19423000E-03	-9.15085000E-04
		-1.72413000E-03	 5.39292000E-03	 5.06277000E-04
		-1.68689000E-03	 4.56040000E-03	 5.72586000E-04
		-1.24484000E-03	 4.19066000E-03	 7.73101000E-04
		-8.84852000E-04	 5.42058000E-03	 1.62352000E-04
		-6.93711000E-05	 2.18169000E-03	-9.58821000E-05
		 2.33710000E-03	 2.17409000E-03	-5.62652000E-04
		-6.96801000E-05	 4.56373000E-03	-1.04596000E-04
		 2.30820000E-03	 4.57015000E-03	-5.72012000E-04
		-5.95940000E-05	 2.16045000E-03	-7.92004000E-05
		 1.12987000E-03	 2.17146000E-03	-3.74949000E-04
		 1.96516000E-03	 2.14293000E-03	-5.43123000E-04
		-6.92185000E-05	 3.37567000E-03	-1.00490000E-04
		 2.32302000E-03	 3.37974000E-03	-5.24952000E-04
		-6.11838000E-05	 4.18846000E-03	-8.92224000E-05
		 1.12019000E-03	 4.55972000E-03	-3.41773000E-04
		 1.97537000E-03	 4.17598000E-03	-5.42893000E-04
		-2.47889000E-03	 2.17617000E-03	 3.70879000E-04
		-2.44857000E-03	 4.57544000E-03	 3.62588000E-04
		-2.08747000E-03	 2.14096000E-03	 3.85312000E-04
		-1.26956000E-03	 2.17262000E-03	 1.83096000E-04
		-2.46383000E-03	 3.38385000E-03	 3.24039000E-04
		-2.09921000E-03	 4.17772000E-03	 3.64918000E-04
		-1.25993000E-03	 4.56296000E-03	 1.32514000E-04
		-6.97479000E-05	 6.93896000E-03	-1.13330000E-04
		 2.29801000E-03	 6.94826000E-03	-5.79830000E-04
		-7.00408000E-05	 5.75627000E-03	-1.08702000E-04
		 2.30361000E-03	 5.76331000E-03	-6.15367000E-04
		-6.22106000E-05	 6.23571000E-03	-1.00001000E-04
		 1.11468000E-03	 6.93809000E-03	-3.09986000E-04
		 1.99826000E-03	 6.22824000E-03	-5.64122000E-04
		-2.43645000E-03	 6.95317000E-03	 3.52817000E-04
		-2.44335000E-03	 5.76892000E-03	 3.97505000E-04
		-2.12249000E-03	 6.23066000E-03	 3.64523000E-04
		-1.25392000E-03	 6.94081000E-03	 8.32999000E-05
		-8.07334000E-05	 3.39135000E-03	-1.31531000E-04
		 2.33290000E-03	 3.32542000E-03	-4.67692000E-04
		-8.00205000E-05	 5.84252000E-03	-1.35934000E-04
		 2.42598000E-03	 5.78876000E-03	-4.93936000E-04
		-7.72258000E-05	 2.62953000E-03	-1.12952000E-04
		 1.12296000E-03	 3.36915000E-03	-2.17624000E-04
		 2.46298000E-03	 2.58915000E-03	-6.09525000E-04
		-8.06147000E-05	 4.60377000E-03	-1.33897000E-04
		 2.37970000E-03	 4.54807000E-03	-5.16469000E-04
		-7.67031000E-05	 5.15875000E-03	-1.20194000E-04
		 1.17436000E-03	 5.82655000E-03	-2.65484000E-04
		 2.46569000E-03	 5.13732000E-03	-6.30448000E-04
		-2.49495000E-03	 3.32775000E-03	 2.03120000E-04
		-2.58628000E-03	 5.79268000E-03	 2.20701000E-04
		-2.61912000E-03	 2.59326000E-03	 3.83086000E-04
		-1.28459000E-03	 3.37043000E-03	-4.59790000E-05
		-2.54126000E-03	 4.55123000E-03	 2.47241000E-04
		-2.61941000E-03	 5.14347000E-03	 3.89134000E-04
		-1.33435000E-03	 5.82849000E-03	-6.82361000E-06
		-7.74751000E-05	 8.40262000E-03	-1.39451000E-04
		 2.54054000E-03	 8.35452000E-03	-4.75110000E-04
		-7.89467000E-05	 7.11112000E-03	-1.37576000E-04
		 2.48383000E-03	 7.05832000E-03	-4.77290000E-04
		-7.51631000E-05	 7.71429000E-03	-1.26420000E-04
		 1.23103000E-03	 8.39060000E-03	-2.67699000E-04
		 2.49709000E-03	 7.70034000E-03	-6.22529000E-04
		-2.69567000E-03	 8.36000000E-03	 1.94942000E-04
		-2.64187000E-03	 7.06314000E-03	 2.01063000E-04
		-2.64646000E-03	 7.70641000E-03	 3.68404000E-04
		-1.38602000E-03	 8.39304000E-03	-1.18205000E-05
		-8.08365000E-05	 4.04156000E-03	-1.73780000E-04
		 1.58553000E-03	 3.88497000E-03	 9.81197000E-04
		-8.21348000E-05	 5.88159000E-03	-1.70508000E-04
		 1.91373000E-03	 5.71807000E-03	 9.70084000E-04
		-8.05025000E-05	 4.06583000E-03	-1.51686000E-04
		 7.55146000E-04	 4.00827000E-03	 4.94306000E-04
		 2.00586000E-03	 3.95423000E-03	 8.26483000E-05
		-8.21629000E-05	 4.91849000E-03	-1.72773000E-04
		 1.74978000E-03	 4.75685000E-03	 9.13855000E-04
		-8.08437000E-05	 6.25960000E-03	-1.52671000E-04
		 9.16538000E-04	 5.84634000E-03	 4.31204000E-04
		 2.22263000E-03	 6.15103000E-03	 5.59990000E-05
		-1.74901000E-03	 3.87863000E-03	-1.32991000E-03
		-2.08201000E-03	 5.71628000E-03	-1.31159000E-03
		-2.16805000E-03	 3.95058000E-03	-3.87961000E-04
		-9.17365000E-04	 4.00510000E-03	-8.42435000E-04
		-1.91638000E-03	 4.75199000E-03	-1.26001000E-03
		-2.38639000E-03	 6.15030000E-03	-3.62303000E-04
		-1.08183000E-03	 5.84492000E-03	-7.72389000E-04
		-8.03757000E-05	 8.03755000E-03	-1.64678000E-04
		 2.25172000E-03	 7.88026000E-03	 9.89620000E-04
		-8.14189000E-05	 6.91702000E-03	-1.67543000E-04
		 2.08196000E-03	 6.75344000E-03	 1.02240000E-03
		-7.87707000E-05	 8.67386000E-03	-1.52692000E-04
		 1.08289000E-03	 8.00417000E-03	 3.99170000E-04
		 2.45547000E-03	 8.57155000E-03	 8.20566000E-05
		-2.41849000E-03	 7.88913000E-03	-1.31892000E-03
		-2.25056000E-03	 6.75645000E-03	-1.35755000E-03
		-2.61600000E-03	 8.57670000E-03	-3.87566000E-04
		-1.24498000E-03	 8.00857000E-03	-7.28698000E-04
		-7.50484000E-05	-2.44976000E-05	-2.24748000E-04
		 9.00053000E-04	-1.70176000E-04	 3.23386000E-03
		-7.43749000E-05	 1.10700000E-03	-2.09343000E-04
		 1.19249000E-03	 9.53096000E-04	 3.26904000E-03
		-8.06769000E-05	 2.72741000E-03	-1.98770000E-04
		 4.14402000E-04	-5.86205000E-05	 1.49962000E-03
		 1.20275000E-03	 2.57506000E-03	 2.14038000E-03
		-7.56903000E-05	 5.03680000E-04	-2.16922000E-04
		 1.04582000E-03	 3.52481000E-04	 3.21236000E-03
		-8.12406000E-05	 4.19714000E-03	-1.89267000E-04
		 5.58451000E-04	 1.07010000E-03	 1.48271000E-03
		 1.55356000E-03	 4.03391000E-03	 2.15366000E-03
		-1.05043000E-03	-1.52609000E-04	-3.68308000E-03
		-1.34449000E-03	 9.72879000E-04	-3.68784000E-03
		-1.36506000E-03	 2.57664000E-03	-2.53799000E-03
		-5.64477000E-04	-5.00983000E-05	-1.94903000E-03
		-1.19826000E-03	 3.70133000E-04	-3.64599000E-03
		-1.72006000E-03	 4.03944000E-03	-2.53250000E-03
		-7.08114000E-04	 1.07857000E-03	-1.90130000E-03
		-7.17602000E-05	 2.51678000E-03	-1.92237000E-04
		 1.48243000E-03	 2.36237000E-03	 3.26541000E-03
		-7.26702000E-05	 1.77542000E-03	-2.01578000E-04
		 1.33698000E-03	 1.61983000E-03	 3.33307000E-03
		-7.89647000E-05	 6.00269000E-03	-1.75917000E-04
		 7.04120000E-04	 2.47886000E-03	 1.42588000E-03
		 1.90707000E-03	 5.84361000E-03	 2.16132000E-03
		-1.63213000E-03	 2.39099000E-03	-3.65004000E-03
		-1.48787000E-03	 1.64420000E-03	-3.73697000E-03
		-2.07202000E-03	 5.86054000E-03	-2.51348000E-03
		-8.49196000E-04	 2.49151000E-03	-1.80974000E-03
		-5.20736000E-05	-8.45441000E-03	-2.71209000E-04
		 5.56151000E-04	-8.50612000E-03	 4.30287000E-03
		-5.23384000E-05	-7.81429000E-03	-2.59045000E-04
		 6.18155000E-04	-7.86595000E-03	 4.33831000E-03
		-6.32613000E-05	-3.94772000E-03	-2.49710000E-04
		 2.49928000E-04	-8.47512000E-03	 2.00322000E-03
		 7.02427000E-04	-4.04699000E-03	 3.94530000E-03
		-5.17102000E-05	-8.14238000E-03	-2.64677000E-04
		 5.87101000E-04	-8.19288000E-03	 4.29635000E-03
		-6.33238000E-05	-3.09091000E-03	-2.32850000E-04
		 2.80461000E-04	-7.83518000E-03	 2.00334000E-03
		 8.71987000E-04	-3.19412000E-03	 3.98966000E-03
		-6.57971000E-04	-8.46078000E-03	-4.84591000E-03
		-7.24236000E-04	-7.82289000E-03	-4.85744000E-03
		-8.28975000E-04	-4.01415000E-03	-4.44384000E-03
		-3.53584000E-04	-8.45220000E-03	-2.54652000E-03
		-6.89423000E-04	-8.14980000E-03	-4.82603000E-03
		-1.00102000E-03	-3.16028000E-03	-4.45474000E-03
		-3.85821000E-04	-7.81428000E-03	-2.52206000E-03
		-5.37997000E-05	-7.10491000E-03	-2.44118000E-04
		 6.68311000E-04	-7.16907000E-03	 4.34362000E-03
		-5.31680000E-05	-7.46493000E-03	-2.52126000E-04
		 6.41994000E-04	-7.52047000E-03	 4.38431000E-03
		-6.32050000E-05	-2.06644000E-03	-2.16758000E-04
		 3.09291000E-04	-7.13126000E-03	 1.97401000E-03
		 1.03272000E-03	-2.17719000E-03	 3.98076000E-03
		-7.80333000E-04	-7.12242000E-03	-4.83340000E-03
		-7.52149000E-04	-7.47566000E-03	-4.88966000E-03
		-1.16345000E-03	-2.13860000E-03	-4.41385000E-03
		-4.18240000E-04	-7.10816000E-03	-2.46325000E-03
		-5.32966000E-05	-1.77528000E-02	-3.04663000E-04
		 3.94766000E-04	-1.77598000E-02	 4.32899000E-03
		-4.18557000E-05	-1.73390000E-02	-3.05523000E-04
		 3.98609000E-04	-1.73501000E-02	 4.36009000E-03
		-4.77255000E-05	-1.30975000E-02	-2.87218000E-04
		 1.71759000E-04	-1.77585000E-02	 2.01878000E-03
		 4.35729000E-04	-1.31301000E-02	 4.36491000E-03
		-4.90619000E-05	-1.75387000E-02	-3.06707000E-04
		 3.95294000E-04	-1.75477000E-02	 4.33599000E-03
		-4.51193000E-05	-1.26124000E-02	-2.83697000E-04
		 1.83544000E-04	-1.73460000E-02	 2.03130000E-03
		 4.47519000E-04	-1.26452000E-02	 4.39395000E-03
		-4.90065000E-04	-1.77223000E-02	-4.94848000E-03
		-4.82059000E-04	-1.73252000E-02	-4.98236000E-03
		-5.23300000E-04	-1.30819000E-02	-4.94613000E-03
		-2.75761000E-04	-1.77403000E-02	-2.63098000E-03
		-4.85985000E-04	-1.75194000E-02	-4.95973000E-03
		-5.38014000E-04	-1.26054000E-02	-4.96882000E-03
		-2.67293000E-04	-1.73358000E-02	-2.64536000E-03
		-3.04834000E-05	-1.69222000E-02	-2.91699000E-04
		 3.90891000E-04	-1.69558000E-02	 4.39468000E-03
		-3.45962000E-05	-1.71355000E-02	-3.00268000E-04
		 3.95811000E-04	-1.71519000E-02	 4.38191000E-03
		-4.32312000E-05	-1.21092000E-02	-2.69004000E-04
		 1.87935000E-04	-1.69413000E-02	 2.05325000E-03
		 4.53451000E-04	-1.21594000E-02	 4.41951000E-03
		-4.62743000E-04	-1.69195000E-02	-4.98973000E-03
		-4.71907000E-04	-1.71241000E-02	-4.99369000E-03
		-5.48138000E-04	-1.21115000E-02	-4.96562000E-03
		-2.51569000E-04	-1.69240000E-02	-2.64018000E-03
		 0.00000000E+00	 0.00000000E+00	 0.00000000E+00
		 0.00000000E+00	 0.00000000E+00	 0.00000000E+00
		 7.85838000E-05	-2.53006000E-03	-5.87212000E-05
		-1.39778000E-03	-2.67050000E-03	 2.85488000E-03
		 0.00000000E+00	 0.00000000E+00	 0.00000000E+00
		 0.00000000E+00	 0.00000000E+00	 0.00000000E+00
		 7.87707000E-05	-3.86521000E-03	-2.19145000E-05
		-1.11077000E-03	-4.01389000E-03	 2.94197000E-03
		 0.00000000E+00	 0.00000000E+00	 0.00000000E+00
		 3.52329000E-05	-3.91374000E-04	-3.36937000E-05
		-6.62462000E-04	-2.54300000E-03	 1.42732000E-03
		-9.65035000E-04	-6.48642000E-04	 1.54991000E-03
		 0.00000000E+00	 0.00000000E+00	 0.00000000E+00
		 0.00000000E+00	 0.00000000E+00	 0.00000000E+00
		 7.86864000E-05	-3.25437000E-03	-3.89789000E-05
		-1.25143000E-03	-3.39411000E-03	 2.80056000E-03
		 0.00000000E+00	 0.00000000E+00	 0.00000000E+00
		 2.93305000E-05	-1.15743000E-03	-9.23265000E-06
		-5.14837000E-04	-3.87922000E-03	 1.38496000E-03
		-5.48997000E-04	-1.40600000E-03	 1.54432000E-03
		 0.00000000E+00	 0.00000000E+00	 0.00000000E+00
		 1.54775000E-03	-2.65534000E-03	-2.97091000E-03
		 0.00000000E+00	 0.00000000E+00	 0.00000000E+00
		 1.26398000E-03	-3.98914000E-03	-2.98661000E-03
		 0.00000000E+00	 0.00000000E+00	 0.00000000E+00
		 1.02691000E-03	-6.57736000E-04	-1.61983000E-03
		 8.18242000E-04	-2.53574000E-03	-1.54469000E-03
		 0.00000000E+00	 0.00000000E+00	 0.00000000E+00
		 1.40233000E-03	-3.37347000E-03	-2.87768000E-03
		 0.00000000E+00	 0.00000000E+00	 0.00000000E+00
		 6.00995000E-04	-1.40008000E-03	-1.56368000E-03
		 6.70331000E-04	-3.86725000E-03	-1.42966000E-03
		 0.00000000E+00	 0.00000000E+00	 0.00000000E+00
		 0.00000000E+00	 0.00000000E+00	 0.00000000E+00
		 7.89566000E-05	-4.90465000E-03	 1.95536000E-05
		-8.06915000E-04	-5.03772000E-03	 2.93330000E-03
		 0.00000000E+00	 0.00000000E+00	 0.00000000E+00
		 0.00000000E+00	 0.00000000E+00	 0.00000000E+00
		 7.81480000E-05	-4.43938000E-03	-3.92716000E-06
		-9.61283000E-04	-4.57743000E-03	 3.05711000E-03
		 0.00000000E+00	 0.00000000E+00	 0.00000000E+00
		 2.97730000E-05	-1.54035000E-03	 1.64107000E-05
		-3.63427000E-04	-4.91238000E-03	 1.28373000E-03
		-8.18063000E-05	-1.76759000E-03	 1.60200000E-03
		 0.00000000E+00	 0.00000000E+00	 0.00000000E+00
		 9.58828000E-04	-5.00485000E-03	-2.89641000E-03
		 0.00000000E+00	 0.00000000E+00	 0.00000000E+00
		 1.11198000E-03	-4.55335000E-03	-3.06706000E-03
		 0.00000000E+00	 0.00000000E+00	 0.00000000E+00
		 1.33242000E-04	-1.74624000E-03	-1.56926000E-03
		 5.20923000E-04	-4.89762000E-03	-1.24544000E-03
		 1.73495000E-04	-9.08998000E-03	-6.50859000E-05
		-2.58115000E-03	-9.19954000E-03	 4.28405000E-03
		 1.86830000E-04	-1.17659000E-02	-3.97007000E-05
		-2.40742000E-03	-1.18699000E-02	 4.31398000E-03
		 1.27344000E-04	-5.56515000E-03	-6.68586000E-05
		-1.20544000E-03	-9.13224000E-03	 2.21116000E-03
		-1.94173000E-03	-5.71629000E-03	 3.69090000E-03
		 1.80105000E-04	-1.04421000E-02	-5.38791000E-05
		-2.49371000E-03	-1.05456000E-02	 4.19254000E-03
		 1.32217000E-04	-7.53958000E-03	-3.31124000E-05
		-1.10498000E-03	-1.18044000E-02	 2.13673000E-03
		-1.73236000E-03	-7.68140000E-03	 3.74262000E-03
		 2.93064000E-03	-9.13212000E-03	-4.41355000E-03
		 2.77757000E-03	-1.18130000E-02	-4.39185000E-03
		 2.19417000E-03	-5.67553000E-03	-3.82425000E-03
		 1.55221000E-03	-9.09595000E-03	-2.34219000E-03
		 2.85545000E-03	-1.04894000E-02	-4.29654000E-03
		 1.99493000E-03	-7.64098000E-03	-3.80942000E-03
		 1.48210000E-03	-1.17754000E-02	-2.21325000E-03
		 1.92912000E-04	-1.42771000E-02	-1.04765000E-05
		-2.21917000E-03	-1.43656000E-02	 4.33664000E-03
		 1.90235000E-04	-1.30336000E-02	-2.41732000E-05
		-2.31217000E-03	-1.31615000E-02	 4.43068000E-03
		 1.36419000E-04	-9.29641000E-03	 5.93567000E-06
		-1.01895000E-03	-1.43041000E-02	 2.05775000E-03
		-1.51453000E-03	-9.43707000E-03	 3.76328000E-03
		 2.63153000E-03	-1.43304000E-02	-4.35775000E-03
		 2.70504000E-03	-1.30857000E-02	-4.48171000E-03
		 1.79616000E-03	-9.40440000E-03	-3.75174000E-03
		 1.41174000E-03	-1.42874000E-02	-2.07458000E-03
		 2.72401000E-04	-1.77442000E-02	-5.74027000E-05
		-3.84488000E-03	-1.77978000E-02	 5.33457000E-03
		 2.97754000E-04	-2.17390000E-02	-3.80380000E-05
		-3.65399000E-03	-2.19171000E-02	 5.36794000E-03
		 2.22157000E-04	-1.30483000E-02	-5.89682000E-05
		-1.77650000E-03	-1.77496000E-02	 2.68126000E-03
		-3.26951000E-03	-1.31524000E-02	 4.84688000E-03
		 2.87171000E-04	-1.97616000E-02	-4.40783000E-05
		-3.75189000E-03	-1.98965000E-02	 5.26888000E-03
		 2.40282000E-04	-1.64430000E-02	-4.07542000E-05
		-1.70346000E-03	-2.18114000E-02	 2.61377000E-03
		-3.07821000E-03	-1.65653000E-02	 4.87048000E-03
		 4.35101000E-03	-1.77354000E-02	-5.43305000E-03
		 4.24831000E-03	-2.17647000E-02	-5.46242000E-03
		 3.70720000E-03	-1.30695000E-02	-4.96292000E-03
		 2.30810000E-03	-1.77201000E-02	-2.78434000E-03
		 4.29883000E-03	-1.97687000E-02	-5.36946000E-03
		 3.56219000E-03	-1.64715000E-02	-4.95168000E-03
		 2.27507000E-03	-2.17363000E-02	-2.70968000E-03
		 3.12741000E-04	-2.56325000E-02	-1.89699000E-05
		-3.58660000E-03	-2.59279000E-02	 5.36934000E-03
		 3.05900000E-04	-2.37179000E-02	-3.14446000E-05
		-3.62315000E-03	-2.38249000E-02	 5.47406000E-03
		 2.61299000E-04	-1.96844000E-02	-2.06395000E-05
		-1.60712000E-03	-2.57698000E-02	 2.51240000E-03
		-2.93036000E-03	-1.98311000E-02	 4.88746000E-03
		 4.17216000E-03	-2.56913000E-02	-5.45233000E-03
		 4.21135000E-03	-2.37400000E-02	-5.55647000E-03
		 3.41754000E-03	-1.97136000E-02	-4.93115000E-03
		 2.23493000E-03	-2.56565000E-02	-2.59467000E-03
		 4.42563000E-04	-2.90979000E-02	-7.09571000E-05
		-4.02057000E-03	-2.89406000E-02	 5.17806000E-03
		 4.68435000E-04	-3.36947000E-02	-2.69674000E-05
		-4.29595000E-03	-3.40059000E-02	 5.25027000E-03
		 3.14239000E-04	-2.32520000E-02	-6.10082000E-05
		-1.78642000E-03	-2.90406000E-02	 2.46646000E-03
		-4.10892000E-03	-2.32932000E-02	 5.48366000E-03
		 4.56585000E-04	-3.13367000E-02	-4.81141000E-05
		-4.14879000E-03	-3.13643000E-02	 5.24412000E-03
		 3.36256000E-04	-2.77040000E-02	-7.76319000E-05
		-1.79212000E-03	-3.38580000E-02	 2.54904000E-03
		-4.13986000E-03	-2.77087000E-02	 5.57696000E-03
		 4.74055000E-03	-2.89456000E-02	-5.31870000E-03
		 4.93884000E-03	-3.34040000E-02	-5.30201000E-03
		 4.71280000E-03	-2.31607000E-02	-5.60173000E-03
		 2.58714000E-03	-2.90512000E-02	-2.60768000E-03
		 4.84341000E-03	-3.11487000E-02	-5.33914000E-03
		 4.74711000E-03	-2.75949000E-02	-5.62729000E-03
		 2.69258000E-03	-3.35510000E-02	-2.60312000E-03
		 3.53570000E-04	-3.85179000E-02	 1.46526000E-05
		-4.46129000E-03	-3.91950000E-02	 5.26454000E-03
		 4.13272000E-04	-3.60449000E-02	-6.54554000E-06
		-4.37754000E-03	-3.70583000E-02	 5.26330000E-03
		 3.30717000E-04	-3.21933000E-02	-1.19734000E-04
		-2.17067000E-03	-3.88507000E-02	 2.57314000E-03
		-4.04776000E-03	-3.20874000E-02	 5.55758000E-03
		 5.17218000E-03	-3.80806000E-02	-5.23155000E-03