<?xml version="1.0"?>
<VTKFile type="UnstructuredGrid" version="0.1" byte_order="LittleEndian">
	<UnstructuredGrid>
		<Piece NumberOfPoints="522" NumberOfCells="64">
			<Points>
				<DataArray type="Float64" NumberOfComponents="3" format="ascii">
					 1.00000000E+00	 1.00000000E+00	-5.96046000E-08
					 1.00000000E+00	 5.00000000E-01	-5.96046000E-08
					 1.00000000E+00	 5.00000000E-01	 1.00000000E+00
					 1.00000000E+00	 1.00000000E+00	 1.00000000E+00
					 5.00000000E-01	 1.00000000E+00	-5.96046000E-08
					 5.00000000E-01	 5.00000000E-01	-5.96046000E-08
					 5.00000000E-01	 5.00000000E-01	 1.00000000E+00
					 5.00000000E-01	 1.00000000E+00	 1.00000000E+00
					 1.00000000E+00	 7.50000000E-01	-5.96046000E-08
					 1.00000000E+00	 5.00000000E-01	 5.00000000E-01
					 1.00000000E+00	 7.50000000E-01	 1.00000000E+00
					 1.00000000E+00	 1.00000000E+00	 5.00000000E-01
					 7.50000000E-01	 1.00000000E+00	-5.96046000E-08
					 7.50000000E-01	 5.00000000E-01	-5.96046000E-08
					 7.50000000E-01	 5.00000000E-01	 1.00000000E+00
					 7.50000000E-01	 1.00000000E+00	 1.00000000E+00
					 5.00000000E-01	 7.50000000E-01	-5.96046000E-08
					 5.00000000E-01	 5.00000000E-01	 5.00000000E-01
					 5.00000000E-01	 7.50000000E-01	 1.00000000E+00
					 5.00000000E-01	 1.00000000E+00	 5.00000000E-01
					 1.00000000E+00	-1.49012000E-08	-5.96046000E-08
					 1.00000000E+00	-1.49012000E-08	 1.00000000E+00
					 5.00000000E-01	-1.49012000E-08	-5.96046000E-08
					 5.00000000E-01	-1.49012000E-08	 1.00000000E+00
					 1.00000000E+00	 2.50000000E-01	-5.96046000E-08
					 1.00000000E+00	-1.49012000E-08	 5.00000000E-01
					 1.00000000E+00	 2.50000000E-01	 1.00000000E+00
					 7.50000000E-01	-1.49012000E-08	-5.96046000E-08
					 7.50000000E-01	-1.49012000E-08	 1.00000000E+00
					 5.00000000E-01	 2.50000000E-01	-5.96046000E-08
					 5.00000000E-01	-1.49012000E-08	 5.00000000E-01
					 5.00000000E-01	 2.50000000E-01	 1.00000000E+00
					-7.45058000E-09	 1.00000000E+00	-5.96046000E-08
					-7.45058000E-09	 5.00000000E-01	-5.96046000E-08
					-7.45058000E-09	 5.00000000E-01	 1.00000000E+00
					-7.45058000E-09	 1.00000000E+00	 1.00000000E+00
					 2.50000000E-01	 1.00000000E+00	-5.96046000E-08
					 2.50000000E-01	 5.00000000E-01	-5.96046000E-08
					 2.50000000E-01	 5.00000000E-01	 1.00000000E+00
					 2.50000000E-01	 1.00000000E+00	 1.00000000E+00
					-7.45058000E-09	 7.50000000E-01	-5.96046000E-08
					-7.45058000E-09	 5.00000000E-01	 5.00000000E-01
					-7.45058000E-09	 7.50000000E-01	 1.00000000E+00
					-7.45058000E-09	 1.00000000E+00	 5.00000000E-01
					-7.45058000E-09	-1.49012000E-08	-5.96046000E-08
					-7.45058000E-09	-1.49012000E-08	 1.00000000E+00
					 2.50000000E-01	-1.49012000E-08	-5.96046000E-08
					 2.50000000E-01	-1.49012000E-08	 1.00000000E+00
					-7.45058000E-09	 2.50000000E-01	-5.96046000E-08
					-7.45058000E-09	-1.49012000E-08	 5.00000000E-01
					-7.45058000E-09	 2.50000000E-01	 1.00000000E+00
					 1.00000000E+00	 5.00000000E-01	 2.00000000E+00
					 1.00000000E+00	 1.00000000E+00	 2.00000000E+00
					 5.00000000E-01	 5.00000000E-01	 2.00000000E+00
					 5.00000000E-01	 1.00000000E+00	 2.00000000E+00
					 1.00000000E+00	 5.00000000E-01	 1.50000000E+00
					 1.00000000E+00	 7.50000000E-01	 2.00000000E+00
					 1.00000000E+00	 1.00000000E+00	 1.50000000E+00
					 7.50000000E-01	 5.00000000E-01	 2.00000000E+00
					 7.50000000E-01	 1.00000000E+00	 2.00000000E+00
					 5.00000000E-01	 5.00000000E-01	 1.50000000E+00
					 5.00000000E-01	 7.50000000E-01	 2.00000000E+00
					 5.00000000E-01	 1.00000000E+00	 1.50000000E+00
					 1.00000000E+00	-1.49012000E-08	 2.00000000E+00
					 5.00000000E-01	-1.49012000E-08	 2.00000000E+00
					 1.00000000E+00	-1.49012000E-08	 1.50000000E+00
					 1.00000000E+00	 2.50000000E-01	 2.00000000E+00
					 7.50000000E-01	-1.49012000E-08	 2.00000000E+00
					 5.00000000E-01	-1.49012000E-08	 1.50000000E+00
					 5.00000000E-01	 2.50000000E-01	 2.00000000E+00
					-7.45058000E-09	 5.00000000E-01	 2.00000000E+00
					-7.45058000E-09	 1.00000000E+00	 2.00000000E+00
					 2.50000000E-01	 5.00000000E-01	 2.00000000E+00
					 2.50000000E-01	 1.00000000E+00	 2.00000000E+00
					-7.45058000E-09	 5.00000000E-01	 1.50000000E+00
					-7.45058000E-09	 7.50000000E-01	 2.00000000E+00
					-7.45058000E-09	 1.00000000E+00	 1.50000000E+00
					-7.45058000E-09	-1.49012000E-08	 2.00000000E+00
					 2.50000000E-01	-1.49012000E-08	 2.00000000E+00
					-7.45058000E-09	-1.49012000E-08	 1.50000000E+00
					-7.45058000E-09	 2.50000000E-01	 2.00000000E+00
					 1.00000000E+00	 5.00000000E-01	 3.00000000E+00
					 1.00000000E+00	 1.00000000E+00	 3.00000000E+00
					 5.00000000E-01	 5.00000000E-01	 3.00000000E+00
					 5.00000000E-01	 1.00000000E+00	 3.00000000E+00
					 1.00000000E+00	 5.00000000E-01	 2.50000000E+00
					 1.00000000E+00	 7.50000000E-01	 3.00000000E+00
					 1.00000000E+00	 1.00000000E+00	 2.50000000E+00
					 7.50000000E-01	 5.00000000E-01	 3.00000000E+00
					 7.50000000E-01	 1.00000000E+00	 3.00000000E+00
					 5.00000000E-01	 5.00000000E-01	 2.50000000E+00
					 5.00000000E-01	 7.50000000E-01	 3.00000000E+00
					 5.00000000E-01	 1.00000000E+00	 2.50000000E+00
					 1.00000000E+00	-1.49012000E-08	 3.00000000E+00
					 5.00000000E-01	-1.49012000E-08	 3.00000000E+00
					 1.00000000E+00	-1.49012000E-08	 2.50000000E+00
					 1.00000000E+00	 2.50000000E-01	 3.00000000E+00
					 7.50000000E-01	-1.49012000E-08	 3.00000000E+00
					 5.00000000E-01	-1.49012000E-08	 2.50000000E+00
					 5.00000000E-01	 2.50000000E-01	 3.00000000E+00
					-7.45058000E-09	 5.00000000E-01	 3.00000000E+00
					-7.45058000E-09	 1.00000000E+00	 3.00000000E+00
					 2.50000000E-01	 5.00000000E-01	 3.00000000E+00
					 2.50000000E-01	 1.00000000E+00	 3.00000000E+00
					-7.45058000E-09	 5.00000000E-01	 2.50000000E+00
					-7.45058000E-09	 7.50000000E-01	 3.00000000E+00
					-7.45058000E-09	 1.00000000E+00	 2.50000000E+00
					-7.45058000E-09	-1.49012000E-08	 3.00000000E+00
					 2.50000000E-01	-1.49012000E-08	 3.00000000E+00
					-7.45058000E-09	-1.49012000E-08	 2.50000000E+00
					-7.45058000E-09	 2.50000000E-01	 3.00000000E+00
					 1.00000000E+00	 5.00000000E-01	 4.00000000E+00
					 1.00000000E+00	 1.00000000E+00	 4.00000000E+00
					 5.00000000E-01	 5.00000000E-01	 4.00000000E+00
					 5.00000000E-01	 1.00000000E+00	 4.00000000E+00
					 1.00000000E+00	 5.00000000E-01	 3.50000000E+00
					 1.00000000E+00	 7.50000000E-01	 4.00000000E+00
					 1.00000000E+00	 1.00000000E+00	 3.50000000E+00
					 7.50000000E-01	 5.00000000E-01	 4.00000000E+00
					 7.50000000E-01	 1.00000000E+00	 4.00000000E+00
					 5.00000000E-01	 5.00000000E-01	 3.50000000E+00
					 5.00000000E-01	 7.50000000E-01	 4.00000000E+00
					 5.00000000E-01	 1.00000000E+00	 3.50000000E+00
					 1.00000000E+00	-1.49012000E-08	 4.00000000E+00
					 5.00000000E-01	-1.49012000E-08	 4.00000000E+00
					 1.00000000E+00	-1.49012000E-08	 3.50000000E+00
					 1.00000000E+00	 2.50000000E-01	 4.00000000E+00
					 7.50000000E-01	-1.49012000E-08	 4.00000000E+00
					 5.00000000E-01	-1.49012000E-08	 3.50000000E+00
					 5.00000000E-01	 2.50000000E-01	 4.00000000E+00
					-7.45058000E-09	 5.00000000E-01	 4.00000000E+00
					-7.45058000E-09	 1.00000000E+00	 4.00000000E+00
					 2.50000000E-01	 5.00000000E-01	 4.00000000E+00
					 2.50000000E-01	 1.00000000E+00	 4.00000000E+00
					-7.45058000E-09	 5.00000000E-01	 3.50000000E+00
					-7.45058000E-09	 7.50000000E-01	 4.00000000E+00
					-7.45058000E-09	 1.00000000E+00	 3.50000000E+00
					-7.45058000E-09	-1.49012000E-08	 4.00000000E+00
					 2.50000000E-01	-1.49012000E-08	 4.00000000E+00
					-7.45058000E-09	-1.49012000E-08	 3.50000000E+00
					-7.45058000E-09	 2.50000000E-01	 4.00000000E+00
					 1.00000000E+00	 5.00000000E-01	 5.00000000E+00
					 1.00000000E+00	 1.00000000E+00	 5.00000000E+00
					 5.00000000E-01	 5.00000000E-01	 5.00000000E+00
					 5.00000000E-01	 1.00000000E+00	 5.00000000E+00
					 1.00000000E+00	 5.00000000E-01	 4.50000000E+00
					 1.00000000E+00	 7.50000000E-01	 5.00000000E+00
					 1.00000000E+00	 1.00000000E+00	 4.50000000E+00
					 7.50000000E-01	 5.00000000E-01	 5.00000000E+00
					 7.50000000E-01	 1.00000000E+00	 5.00000000E+00
					 5.00000000E-01	 5.00000000E-01	 4.50000000E+00
					 5.00000000E-01	 7.50000000E-01	 5.00000000E+00
					 5.00000000E-01	 1.00000000E+00	 4.50000000E+00
					 1.00000000E+00	-1.49012000E-08	 5.00000000E+00
					 5.00000000E-01	-1.49012000E-08	 5.00000000E+00
					 1.00000000E+00	-1.49012000E-08	 4.50000000E+00
					 1.00000000E+00	 2.50000000E-01	 5.00000000E+00
					 7.50000000E-01	-1.49012000E-08	 5.00000000E+00
					 5.00000000E-01	-1.49012000E-08	 4.50000000E+00
					 5.00000000E-01	 2.50000000E-01	 5.00000000E+00
					-7.45058000E-09	 5.00000000E-01	 5.00000000E+00
					-7.45058000E-09	 1.00000000E+00	 5.00000000E+00
					 2.50000000E-01	 5.00000000E-01	 5.00000000E+00
					 2.50000000E-01	 1.00000000E+00	 5.00000000E+00
					-7.45058000E-09	 5.00000000E-01	 4.50000000E+00
					-7.45058000E-09	 7.50000000E-01	 5.00000000E+00
					-7.45058000E-09	 1.00000000E+00	 4.50000000E+00
					-7.45058000E-09	-1.49012000E-08	 5.00000000E+00
					 2.50000000E-01	-1.49012000E-08	 5.00000000E+00
					-7.45058000E-09	-1.49012000E-08	 4.50000000E+00
					-7.45058000E-09	 2.50000000E-01	 5.00000000E+00
					 1.00000000E+00	 5.00000000E-01	 6.00000000E+00
					 1.00000000E+00	 1.00000000E+00	 6.00000000E+00
					 5.00000000E-01	 5.00000000E-01	 6.00000000E+00
					 5.00000000E-01	 1.00000000E+00	 6.00000000E+00
					 1.00000000E+00	 5.00000000E-01	 5.50000000E+00
					 1.00000000E+00	 7.50000000E-01	 6.00000000E+00
					 1.00000000E+00	 1.00000000E+00	 5.50000000E+00
					 7.50000000E-01	 5.00000000E-01	 6.00000000E+00
					 7.50000000E-01	 1.00000000E+00	 6.00000000E+00
					 5.00000000E-01	 5.00000000E-01	 5.50000000E+00
					 5.00000000E-01	 7.50000000E-01	 6.00000000E+00
					 5.00000000E-01	 1.00000000E+00	 5.50000000E+00
					 1.00000000E+00	-1.49012000E-08	 6.00000000E+00
[...]
			<PointData>
				<DataArray type="Float32" Name="U" NumberOfComponents="3" ComponentName0="D1" ComponentName1="D2" ComponentName2="D3" format="ascii">
					 0.00000000E+00	 0.00000000E+00	 0.00000000E+00
					 0.00000000E+00	 0.00000000E+00	 0.00000000E+00
					 4.20168000E-05	-1.62579000E-03	-1.03151000E-04
					-2.64503000E-04	-1.46969000E-03	 1.19676000E-03
					 0.00000000E+00	 0.00000000E+00	 0.00000000E+00
					 0.00000000E+00	 0.00000000E+00	 0.00000000E+00
					-2.02860000E-05	-1.67473000E-03	-3.97710000E-05
					-5.78577000E-05	-1.72027000E-03	 1.21255000E-03
					 0.00000000E+00	 0.00000000E+00	 0.00000000E+00
					-3.81475000E-05	-4.28104000E-04	-1.36826000E-05
					-5.16968000E-05	-1.52651000E-03	 4.89203000E-04
					-3.16808000E-04	-4.51497000E-04	 6.66635000E-04
					 0.00000000E+00	 0.00000000E+00	 0.00000000E+00
					 0.00000000E+00	 0.00000000E+00	 0.00000000E+00
					 1.78722000E-05	-1.66207000E-03	-4.80640000E-05
					-1.54287000E-04	-1.71173000E-03	 1.23080000E-03
					 0.00000000E+00	 0.00000000E+00	 0.00000000E+00
					-3.82662000E-05	-5.49022000E-04	-5.69633000E-06
					-4.11524000E-05	-1.67528000E-03	 5.35131000E-04
					-4.21634000E-05	-5.96231000E-04	 6.27105000E-04
					 0.00000000E+00	 0.00000000E+00	 0.00000000E+00
					 4.16777000E-05	-1.71807000E-03	-1.23022000E-03
					 0.00000000E+00	 0.00000000E+00	 0.00000000E+00
					 4.72509000E-05	-1.76089000E-03	-1.28287000E-03
					 0.00000000E+00	 0.00000000E+00	 0.00000000E+00
					 2.31761000E-04	-5.27564000E-04	-7.38399000E-04
					 3.93165000E-05	-1.65894000E-03	-5.98097000E-04
					 0.00000000E+00	 0.00000000E+00	 0.00000000E+00
					 3.53704000E-05	-1.76241000E-03	-1.27581000E-03
					 0.00000000E+00	 0.00000000E+00	 0.00000000E+00
					 1.94116000E-05	-6.57350000E-04	-6.82520000E-04
					 2.07736000E-05	-1.68350000E-03	-6.40295000E-04
					 0.00000000E+00	 0.00000000E+00	 0.00000000E+00
					 0.00000000E+00	 0.00000000E+00	 0.00000000E+00
					-2.78402000E-05	-1.68510000E-03	 3.93516000E-05
					 1.93979000E-04	-1.57794000E-03	 1.16070000E-03
					 0.00000000E+00	 0.00000000E+00	 0.00000000E+00
					 0.00000000E+00	 0.00000000E+00	 0.00000000E+00
					-2.88306000E-05	-1.69596000E-03	 5.32300000E-06
					 6.96232000E-05	-1.74991000E-03	 1.18272000E-03
					 0.00000000E+00	 0.00000000E+00	 0.00000000E+00
					-9.76493000E-06	-4.33325000E-04	 1.07473000E-05
					 2.48391000E-05	-1.60482000E-03	 5.58132000E-04
					 1.72287000E-04	-4.83582000E-04	 6.56140000E-04
					 0.00000000E+00	 0.00000000E+00	 0.00000000E+00
					-2.98545000E-05	-1.78662000E-03	-1.25796000E-03
					 0.00000000E+00	 0.00000000E+00	 0.00000000E+00
					 2.04557000E-05	-1.77154000E-03	-1.26001000E-03
					 0.00000000E+00	 0.00000000E+00	 0.00000000E+00
					-1.70655000E-04	-5.57680000E-04	-6.55094000E-04
					-4.86803000E-05	-1.73092000E-03	-5.99653000E-04
					-4.38163000E-05	-5.01892000E-03	 3.41685000E-05
					 1.81883000E-04	-5.28969000E-03	 1.51188000E-03
					-6.69382000E-06	-5.10419000E-03	-4.83128000E-05
					-1.05109000E-04	-5.13852000E-03	 1.42967000E-03
					 3.19666000E-05	-3.22797000E-03	-7.34416000E-05
					-1.79237000E-05	-5.14951000E-03	 7.39543000E-04
					-3.52810000E-05	-3.29563000E-03	 1.45393000E-03
					-2.48927000E-05	-5.05423000E-03	-1.12967000E-05
					 2.53352000E-05	-5.07865000E-03	 1.47184000E-03
					 4.67412000E-05	-3.32968000E-03	-7.57954000E-05
					-5.69857000E-05	-5.12338000E-03	 6.87664000E-04
					-3.45891000E-05	-3.36247000E-03	 1.48887000E-03
					 1.30398000E-04	-4.88323000E-03	-1.56788000E-03
					 7.49900000E-05	-5.08411000E-03	-1.58703000E-03
					 1.40094000E-04	-3.24263000E-03	-1.54799000E-03
					 1.97719000E-05	-4.95140000E-03	-7.47246000E-04
					 1.04672000E-04	-4.99501000E-03	-1.55815000E-03
					 7.12978000E-05	-3.34546000E-03	-1.51191000E-03
					 3.64564000E-05	-5.09996000E-03	-8.00494000E-04
					 2.80495000E-05	-5.23472000E-03	-1.54714000E-04
					-3.48071000E-04	-5.39096000E-03	 1.46327000E-03
					 9.20444000E-06	-5.13021000E-03	-8.27101000E-05
					-2.22991000E-04	-5.13693000E-03	 1.46069000E-03
					 2.34157000E-05	-3.37093000E-03	-1.04376000E-04
					-7.29357000E-05	-5.32104000E-03	 6.30126000E-04
					-2.60835000E-05	-3.39290000E-03	 1.46296000E-03
					 1.94034000E-05	-5.05167000E-03	-1.65922000E-03
					 5.31956000E-05	-5.09150000E-03	-1.62479000E-03
					 1.39309000E-05	-3.36379000E-03	-1.60381000E-03
					 7.32678000E-05	-5.14388000E-03	-8.38967000E-04
					-2.26473000E-05	-7.23836000E-03	 4.94184000E-05
					-4.38081000E-04	-7.12171000E-03	 1.47601000E-03
					 2.78885000E-05	-7.57746000E-03	 3.42777000E-05
					-2.75212000E-04	-7.58249000E-03	 1.45802000E-03
					-1.30322000E-05	-6.23432000E-03	 6.41357000E-05
					-1.85865000E-04	-7.17106000E-03	 8.60351000E-04
					-1.29601000E-04	-6.30000000E-03	 1.42299000E-03
					-4.33037000E-06	-7.38957000E-03	 3.52134000E-05
					-3.48033000E-04	-7.40833000E-03	 1.41327000E-03
					-2.09306000E-06	-6.39010000E-03	-8.08917000E-06
					-1.35980000E-04	-7.56671000E-03	 8.06306000E-04
					-1.62313000E-04	-6.42284000E-03	 1.31498000E-03
					 3.06792000E-04	-7.31738000E-03	-1.34673000E-03
					 3.47021000E-04	-7.60861000E-03	-1.35959000E-03
					 1.11325000E-04	-6.24115000E-03	-1.38406000E-03
					 1.97364000E-04	-7.26609000E-03	-7.80527000E-04
					 3.27682000E-04	-7.42776000E-03	-1.30605000E-03
					 1.65299000E-04	-6.37327000E-03	-1.39703000E-03
					 1.77996000E-04	-7.59078000E-03	-7.17188000E-04
					 8.96439000E-05	-7.80084000E-03	 5.92788000E-05
					-1.11472000E-04	-7.83353000E-03	 1.42557000E-03
					 5.74269000E-05	-7.71467000E-03	 2.86807000E-05
					-1.88056000E-04	-7.75072000E-03	 1.48166000E-03
					 2.18601000E-05	-6.57219000E-03	-1.38064000E-06
					-6.00220000E-05	-7.79419000E-03	 7.83063000E-04
					-2.13702000E-04	-6.65635000E-03	 1.32276000E-03
					 3.04086000E-04	-7.95230000E-03	-1.39868000E-03
					 3.16293000E-04	-7.75274000E-03	-1.42695000E-03
					 1.76026000E-04	-6.54782000E-03	-1.41708000E-03
					 1.39007000E-04	-7.86594000E-03	-7.09285000E-04
					 1.16130000E-06	-1.02189000E-02	-5.69801000E-05
					-8.52553000E-04	-1.04820000E-02	 2.68234000E-03
					-1.63073000E-05	-1.10471000E-02	 6.75368000E-05
					-6.48933000E-04	-1.11380000E-02	 2.71510000E-03
					-3.95593000E-05	-8.42512000E-03	-5.21956000E-06
					-4.47559000E-04	-1.03255000E-02	 1.34696000E-03
					-6.87910000E-04	-8.46646000E-03	 1.95535000E-03
					-5.19430000E-06	-1.07005000E-02	 1.45130000E-05
					-7.58214000E-04	-1.08346000E-02	 2.67333000E-03
					-2.60050000E-05	-8.94774000E-03	 6.03083000E-05
					-3.22043000E-04	-1.10597000E-02	 1.36975000E-03
					-4.87086000E-04	-9.04609000E-03	 1.97374000E-03
					 1.02483000E-03	-1.02416000E-02	-2.66523000E-03
					 6.69951000E-04	-1.11450000E-02	-2.62544000E-03
					 6.57579000E-04	-8.50425000E-03	-1.86285000E-03
					 4.84281000E-04	-1.01850000E-02	-1.35650000E-03
					 8.45852000E-04	-1.07964000E-02	-2.64157000E-03
					 4.72097000E-04	-8.99112000E-03	-1.84246000E-03
					 3.27261000E-04	-1.10777000E-02	-1.27552000E-03
					-1.48048000E-05	-1.15300000E-02	 9.01266000E-05
					-4.33055000E-04	-1.17036000E-02	 2.83004000E-03
					-1.06129000E-05	-1.13522000E-02	 8.38172000E-05
					-5.48030000E-04	-1.14512000E-02	 2.78297000E-03
					 1.05238000E-05	-9.33847000E-03	 6.31251000E-05
					-2.00852000E-04	-1.15987000E-02	 1.40372000E-03
					-2.97525000E-04	-9.42558000E-03	 2.01701000E-03
					 3.24460000E-04	-1.15554000E-02	-2.51162000E-03
					 4.96475000E-04	-1.14333000E-02	-2.60703000E-03
					 3.18839000E-04	-9.48461000E-03	-1.82041000E-03
					 1.77423000E-04	-1.15099000E-02	-1.20946000E-03
					 4.04789000E-06	-1.72320000E-02	-4.61396000E-06
					-8.78740000E-04	-1.73170000E-02	 3.86195000E-03
					 2.34985000E-06	-1.80877000E-02	-2.63880000E-05
					-7.45857000E-04	-1.80821000E-02	 3.88902000E-03
					 7.08847000E-06	-1.34459000E-02	-2.73236000E-06
					-3.98221000E-04	-1.72645000E-02	 1.88582000E-03
					-8.94338000E-04	-1.34962000E-02	 3.33454000E-03
					 4.99129000E-06	-1.76517000E-02	-2.78200000E-05
					-7.95887000E-04	-1.77368000E-02	 3.92793000E-03
					 3.10308000E-05	-1.42319000E-02	 3.42332000E-05
					-3.73318000E-04	-1.80612000E-02	 1.91293000E-03
					-7.06163000E-04	-1.43507000E-02	 3.41536000E-03
					 8.75141000E-04	-1.73361000E-02	-3.87264000E-03
					 7.43464000E-04	-1.81089000E-02	-3.95790000E-03
					 9.64565000E-04	-1.34604000E-02	-3.36786000E-03
					 4.29177000E-04	-1.72855000E-02	-1.85989000E-03
					 8.11000000E-04	-1.77243000E-02	-3.95056000E-03
					 7.42495000E-04	-1.43143000E-02	-3.38822000E-03
					 3.51171000E-04	-1.80824000E-02	-1.96571000E-03
					-3.76520000E-05	-1.87935000E-02	-5.52603000E-05
					-7.27919000E-04	-1.88765000E-02	 3.83958000E-03
					-1.87061000E-05	-1.84191000E-02	-2.60838000E-05
					-7.27856000E-04	-1.84762000E-02	 3.83790000E-03
					 1.30588000E-05	-1.48734000E-02	 2.03014000E-05
					-3.53644000E-04	-1.88115000E-02	 1.89435000E-03
					-5.70481000E-04	-1.49789000E-02	 3.43725000E-03
					 7.20410000E-04	-1.88594000E-02	-3.93375000E-03
					 7.27205000E-04	-1.84486000E-02	-3.87320000E-03
					 5.48993000E-04	-1.49714000E-02	-3.35616000E-03
					 3.07209000E-04	-1.87994000E-02	-1.98628000E-03
					 2.99558000E-05	-2.66363000E-02	 3.78364000E-05
					 5.65928000E-05	-2.69039000E-02	 4.63297000E-03
					 2.11046000E-05	-2.66158000E-02	-1.20375000E-05
					 1.78366000E-04	-2.67119000E-02	 4.62003000E-03
					 4.32889000E-05	-2.17505000E-02	-1.90767000E-05
					 9.14678000E-06	-2.67588000E-02	 2.25908000E-03
					-4.60292000E-04	-2.18279000E-02	 4.23905000E-03
					 1.93662000E-05	-2.66534000E-02	 1.45761000E-05
					 1.10430000E-04	-2.67967000E-02	 4.70644000E-03
					 1.69968000E-05	-2.21617000E-02	-3.92892000E-05
					 1.00492000E-04	-2.66586000E-02	 2.28914000E-03
					-3.45925000E-04	-2.22882000E-02	 4.23575000E-03
					 1.69914000E-04	-2.66304000E-02	-4.58719000E-03
					-6.73508000E-05	-2.66211000E-02	-4.60059000E-03
					 5.38827000E-04	-2.17077000E-02	-4.22345000E-03
					 3.86625000E-05	-2.66055000E-02	-2.25031000E-03
					 4.67751000E-05	-2.66852000E-02	-4.67795000E-03
					 4.15467000E-04	-2.22154000E-02	-4.27725000E-03
					-1.13952000E-05	-2.66034000E-02	-2.32529000E-03
					 6.91876000E-05	-2.64346000E-02	-5.88008000E-05
					 3.32899000E-04	-2.66209000E-02	 4.54438000E-03
					 5.51931000E-05	-2.65728000E-02	-5.21091000E-05
					 2.59682000E-04	-2.66130000E-02	 4.51199000E-03
					 6.31115000E-06	-2.24818000E-02	-3.91262000E-05
					 2.14713000E-04	-2.65146000E-02	 2.36886000E-03
					-2.82157000E-04	-2.26242000E-02	 4.20395000E-03
					-2.71064000E-04	-2.64337000E-02	-4.64196000E-03
					-1.74340000E-04	-2.65539000E-02	-4.58349000E-03
					 3.19510000E-04	-2.25582000E-02	-4.31831000E-03
					-9.43728000E-05	-2.64143000E-02	-2.42212000E-03
					 7.10001000E-05	-3.77541000E-02	-6.61287000E-05
					 8.94826000E-04	-3.78011000E-02	 5.38118000E-03
					 3.84276000E-05	-3.68725000E-02	-8.82809000E-05
					 1.05855000E-03	-3.69065000E-02	 5.35508000E-03
					 4.77399000E-05	-3.20380000E-02	 1.86068000E-05
					 5.04797000E-04	-3.77470000E-02	 2.60041000E-03
					 5.45654000E-04	-3.21386000E-02	 5.02732000E-03
					 5.92388000E-05	-3.73085000E-02	-9.28959000E-05
					 9.65108000E-04	-3.73944000E-02	 5.43593000E-03
					 3.25483000E-05	-3.15016000E-02	-7.92503000E-06
					 5.34830000E-04	-3.68741000E-02	 2.64167000E-03
					 6.50793000E-04	-3.15827000E-02	 5.00941000E-03
					-8.99935000E-04	-3.79874000E-02	-5.63395000E-03
					-9.34978000E-04	-3.69168000E-02	-5.70798000E-03
					-4.17459000E-04	-3.20390000E-02	-5.14364000E-03
					-3.49663000E-04	-3.78801000E-02	-2.75474000E-03
					-9.09381000E-04	-3.73989000E-02	-5.72992000E-03
					-5.82274000E-04	-3.15686000E-02	-5.13649000E-03
					-4.29211000E-04	-3.68763000E-02	-2.87614000E-03
					 3.83485000E-05	-3.58332000E-02	-8.24326000E-05
					 1.19319000E-03	-3.56747000E-02	 5.32783000E-03
					 2.23429000E-05	-3.63819000E-02	-1.00996000E-04
					 1.12720000E-03	-3.63851000E-02	 5.26922000E-03
					 3.56712000E-05	-3.08583000E-02	-5.32519000E-05
					 6.36463000E-04	-3.57232000E-02	 2.65418000E-03
					 7.27312000E-04	-3.09744000E-02	 4.96566000E-03
					-9.96648000E-04	-3.59765000E-02	-5.61738000E-03
					-9.56516000E-04	-3.64296000E-02	-5.57608000E-03
					-6.77592000E-04	-3.09037000E-02	-5.18188000E-03
					-5.12617000E-04	-3.59147000E-02	-2.83483000E-03
					 3.94474000E-04	-4.99773000E-02	-4.74405000E-04
					 1.42992000E-03	-5.06351000E-02	 6.38252000E-03
					 3.91136000E-05	-4.85174000E-02	-4.40152000E-04
					 1.10310000E-03	-4.92119000E-02	 6.09656000E-03
					 1.27276000E-04	-4.37036000E-02	-3.40919000E-04
					 8.45352000E-04	-5.02747000E-02	 2.81959000E-03
					 1.05607000E-03	-4.37818000E-02	 5.86086000E-03
					 2.00911000E-04	-4.93137000E-02	-3.41218000E-04
					 1.30510000E-03	-4.99141000E-02	 6.23591000E-03
					 5.94995000E-05	-4.26204000E-02	-2.50531000E-04
					 5.54134000E-04	-4.88598000E-02	 2.69839000E-03
					 1.24556000E-03	-4.26134000E-02	 5.73712000E-03
					-5.84504000E-04	-4.94407000E-02	-6.27874000E-03
					-9.20163000E-04	-4.81452000E-02	-5.68574000E-03
					-1.20409000E-03	-4.39146000E-02	-5.99418000E-03
					-7.65905000E-05	-4.96549000E-02	-3.48846000E-03
					-7.64378000E-04	-4.87640000E-02	-5.92004000E-03
					-1.07033000E-03	-4.26660000E-02	-5.83963000E-03
					-4.55338000E-04	-4.83314000E-02	-3.08524000E-03
					-1.61948000E-04	-4.71470000E-02	-3.50642000E-04
					 8.82356000E-04	-4.73052000E-02	 5.22278000E-03
					-5.72564000E-05	-4.77973000E-02	-3.00796000E-04
					 9.93558000E-04	-4.82279000E-02	 5.73432000E-03
					 2.65140000E-05	-4.14901000E-02	-2.52911000E-04
					 2.40775000E-04	-4.72483000E-02	 2.33391000E-03
					 1.42158000E-03	-4.13954000E-02	 5.43123000E-03
					-1.01966000E-03	-4.69867000E-02	-5.52879000E-03
					-9.91715000E-04	-4.75270000E-02	-5.67895000E-03
					-1.02660000E-03	-4.15436000E-02	-5.67579000E-03
					-5.66280000E-04	-4.70732000E-02	-2.99426000E-03
					 0.00000000E+00	 0.00000000E+00	 0.00000000E+00
					 0.00000000E+00	 0.00000000E+00	 0.00000000E+00
					 2.48716000E-04	-9.54136000E-04	-3.93551000E-04
					-1.09654000E-03	-1.06008000E-03	 1.50084000E-03
					 0.00000000E+00	 0.00000000E+00	 0.00000000E+00
					 0.00000000E+00	 0.00000000E+00	 0.00000000E+00
					 4.62803000E-05	-2.03349000E-03	-1.98972000E-04
					-8.39495000E-04	-2.20677000E-03	 1.61529000E-03
					 0.00000000E+00	 0.00000000E+00	 0.00000000E+00
					 1.41631000E-05	-1.01258000E-05	-1.90884000E-04
					-4.36494000E-04	-9.43496000E-04	 7.10375000E-04
					-5.99356000E-04	-1.73508000E-04	 7.45876000E-04
					 0.00000000E+00	 0.00000000E+00	 0.00000000E+00
					 0.00000000E+00	 0.00000000E+00	 0.00000000E+00
					 1.70749000E-04	-1.55033000E-03	-2.67559000E-04
					-9.83067000E-04	-1.65710000E-03	 1.41630000E-03
					 0.00000000E+00	 0.00000000E+00	 0.00000000E+00
					-3.95133000E-05	-5.11557000E-04	-6.32202000E-05
					-4.06442000E-04	-2.09369000E-03	 6.91278000E-04
					-4.18852000E-04	-6.73335000E-04	 7.87147000E-04
					 0.00000000E+00	 0.00000000E+00	 0.00000000E+00
					 1.20290000E-03	-1.34817000E-03	-2.21640000E-03
					 0.00000000E+00	 0.00000000E+00	 0.00000000E+00
					 9.53745000E-04	-2.15308000E-03	-2.12442000E-03
					 0.00000000E+00	 0.00000000E+00	 0.00000000E+00
					 5.36734000E-04	-3.82949000E-04	-1.08198000E-03
					 8.21242000E-04	-1.09444000E-03	-1.42448000E-03
					 0.00000000E+00	 0.00000000E+00	 0.00000000E+00
					 1.09143000E-03	-1.64487000E-03	-2.02059000E-03
					 0.00000000E+00	 0.00000000E+00	 0.00000000E+00
					 3.94122000E-04	-7.38596000E-04	-1.01170000E-03
					 5.00558000E-04	-2.03112000E-03	-1.17975000E-03
					 0.00000000E+00	 0.00000000E+00	 0.00000000E+00
					 0.00000000E+00	 0.00000000E+00	 0.00000000E+00
					-1.39713000E-04	-2.76789000E-03	-8.99513000E-05
					-6.11508000E-04	-2.89725000E-03	 1.68342000E-03
					 0.00000000E+00	 0.00000000E+00	 0.00000000E+00
					 0.00000000E+00	 0.00000000E+00	 0.00000000E+00
					-6.60465000E-05	-2.45343000E-03	-1.52026000E-04
					-7.11754000E-04	-2.54561000E-03	 1.79813000E-03
					 0.00000000E+00	 0.00000000E+00	 0.00000000E+00
					-4.78540000E-05	-8.65254000E-04	-4.68177000E-05
					-3.43396000E-04	-2.76427000E-03	 6.43873000E-04
					-1.90053000E-04	-9.73288000E-04	 8.59296000E-04
					 0.00000000E+00	 0.00000000E+00	 0.00000000E+00
					 8.04771000E-04	-3.21376000E-03	-2.00299000E-03
					 0.00000000E+00	 0.00000000E+00	 0.00000000E+00
					 8.72288000E-04	-2.59776000E-03	-2.17942000E-03
					 0.00000000E+00	 0.00000000E+00	 0.00000000E+00
					 1.41961000E-04	-1.09488000E-03	-9.87940000E-04
					 2.51340000E-04	-2.95138000E-03	-9.09904000E-04
					 3.35501000E-04	-4.85067000E-03	-4.82270000E-04
					-2.21395000E-03	-5.29074000E-03	 3.42955000E-03
					 3.21950000E-04	-7.40601000E-03	-4.81066000E-04
					-2.15597000E-03	-7.54628000E-03	 3.49894000E-03
					 2.42951000E-04	-2.43197000E-03	-4.46950000E-04
					-9.91949000E-04	-5.03509000E-03	 1.57510000E-03
					-1.69461000E-03	-2.59117000E-03	 2.38415000E-03
					 3.19475000E-04	-6.14721000E-03	-5.00569000E-04
					-2.18195000E-03	-6.42675000E-03	 3.38052000E-03
					 2.03109000E-04	-4.19649000E-03	-3.76941000E-04
					-9.19206000E-04	-7.42224000E-03	 1.54365000E-03
					-1.40787000E-03	-4.33699000E-03	 2.50026000E-03
					 3.43346000E-03	-4.70411000E-03	-4.44640000E-03
					 2.57912000E-03	-7.57573000E-03	-4.52408000E-03
					 2.17589000E-03	-2.57601000E-03	-3.27529000E-03
					 1.75456000E-03	-4.75123000E-03	-2.65337000E-03
					 2.99024000E-03	-6.36849000E-03	-4.34791000E-03
					 1.78170000E-03	-4.35029000E-03	-3.18356000E-03
					 1.47554000E-03	-7.45652000E-03	-2.49434000E-03
					 2.63426000E-04	-9.55615000E-03	-5.40162000E-04
					-1.78723000E-03	-9.69068000E-03	 3.53779000E-03
					 2.91437000E-04	-8.56370000E-03	-4.95088000E-04
					-1.97707000E-03	-8.76152000E-03	 3.59219000E-03
					 1.31723000E-04	-5.59153000E-03	-3.28460000E-04
					-7.69767000E-04	-9.58974000E-03	 1.48929000E-03
					-1.16253000E-03	-5.77111000E-03	 2.51572000E-03
					 1.90311000E-03	-9.53930000E-03	-4.26767000E-03
					 2.24173000E-03	-8.72959000E-03	-4.52213000E-03
					 1.43192000E-03	-5.85620000E-03	-3.07522000E-03
					 1.19453000E-03	-9.49550000E-03	-2.32613000E-03
					 6.18167000E-04	-1.43977000E-02	-7.91747000E-04
					-3.44818000E-03	-1.45053000E-02	 5.51272000E-03
					 5.96114000E-04	-1.83976000E-02	-7.32355000E-04
					-3.18027000E-03	-1.85840000E-02	 5.55518000E-03
					 5.06842000E-04	-8.96777000E-03	-6.12451000E-04
					-1.37336000E-03	-1.44235000E-02	 2.34884000E-03
					-2.99508000E-03	-9.13610000E-03	 4.55940000E-03
					 6.01876000E-04	-1.64898000E-02	-7.69324000E-04
					-3.31631000E-03	-1.66473000E-02	 5.45462000E-03
					 4.44125000E-04	-1.22836000E-02	-6.10197000E-04
					-1.29437000E-03	-1.84701000E-02	 2.29197000E-03
					-2.65881000E-03	-1.24526000E-02	 4.67207000E-03
					 4.78728000E-03	-1.45808000E-02	-7.03436000E-03
					 4.53572000E-03	-1.85279000E-02	-6.99714000E-03
					 4.16529000E-03	-8.91249000E-03	-5.90835000E-03
					 2.68021000E-03	-1.44640000E-02	-3.85513000E-03
					 4.66294000E-03	-1.65768000E-02	-6.99711000E-03
					 3.67419000E-03	-1.24192000E-02	-5.94202000E-03
					 2.54966000E-03	-1.84474000E-02	-3.74226000E-03
					 6.84258000E-04	-2.23090000E-02	-5.42501000E-04
					-3.02386000E-03	-2.23089000E-02	 5.57196000E-03
					 6.39658000E-04	-2.03674000E-02	-6.55822000E-04
					-3.13225000E-03	-2.04446000E-02	 5.69903000E-03
					 4.57076000E-04	-1.52883000E-02	-4.81701000E-04
					-1.26319000E-03	-2.22994000E-02	 2.24773000E-03
					-2.24726000E-03	-1.53466000E-02	 4.76745000E-03
					 4.39864000E-03	-2.25490000E-02	-6.98625000E-03
					 4.47185000E-03	-2.05159000E-02	-7.09979000E-03
					 3.27554000E-03	-1.53571000E-02	-5.77192000E-03
					 2.45691000E-03	-2.24390000E-02	-3.55279000E-03
					 8.78600000E-04	-2.72621000E-02	-1.18801000E-03
					-4.02198000E-03	-2.72649000E-02	 5.06465000E-03