# vtk DataFile Version 3.0

ASCII
DATASET UNSTRUCTURED_GRID

POINTS 522 double
	 1.00000000E+00	 1.00000000E+00	-5.96046000E-08
	 1.00000000E+00	 5.00000000E-01	-5.96046000E-08
	 1.00000000E+00	 5.00000000E-01	 1.00000000E+00
	 1.00000000E+00	 1.00000000E+00	 1.00000000E+00
	 5.00000000E-01	 1.00000000E+00	-5.96046000E-08
	 5.00000000E-01	 5.00000000E-01	-5.96046000E-08
	 5.00000000E-01	 5.00000000E-01	 1.00000000E+00
	 5.00000000E-01	 1.00000000E+00	 1.00000000E+00
	 1.00000000E+00	 7.50000000E-01	-5.96046000E-08
	 1.00000000E+00	 5.00000000E-01	 5.00000000E-01
	 1.00000000E+00	 7.50000000E-01	 1.00000000E+00
	 1.00000000E+00	 1.00000000E+00	 5.00000000E-01
	 7.50000000E-01	 1.00000000E+00	-5.96046000E-08
	 7.50000000E-01	 5.00000000E-01	-5.96046000E-08
	 7.50000000E-01	 5.00000000E-01	 1.00000000E+00
	 7.50000000E-01	 1.00000000E+00	 1.00000000E+00
	 5.00000000E-01	 7.50000000E-01	-5.96046000E-08
	 5.00000000E-01	 5.00000000E-01	 5.00000000E-01
	 5.00000000E-01	 7.50000000E-01	 1.00000000E+00
	 5.00000000E-01	 1.00000000E+00	 5.00000000E-01
	 1.00000000E+00	-1.49012000E-08	-5.96046000E-08
	 1.00000000E+00	-1.49012000E-08	 1.00000000E+00
	 5.00000000E-01	-1.49012000E-08	-5.96046000E-08
	 5.00000000E-01	-1.49012000E-08	 1.00000000E+00
	 1.00000000E+00	 2.50000000E-01	-5.96046000E-08
	 1.00000000E+00	-1.49012000E-08	 5.00000000E-01
	 1.00000000E+00	 2.50000000E-01	 1.00000000E+00
	 7.50000000E-01	-1.49012000E-08	-5.96046000E-08
	 7.50000000E-01	-1.49012000E-08	 1.00000000E+00
	 5.00000000E-01	 2.50000000E-01	-5.96046000E-08
	 5.00000000E-01	-1.49012000E-08	 5.00000000E-01
	 5.00000000E-01	 2.50000000E-01	 1.00000000E+00
	-7.45058000E-09	 1.00000000E+00	-5.96046000E-08
	-7.45058000E-09	 5.00000000E-01	-5.96046000E-08
	-7.45058000E-09	 5.00000000E-01	 1.00000000E+00
	-7.45058000E-09	 1.00000000E+00	 1.00000000E+00
	 2.50000000E-01	 1.00000000E+00	-5.96046000E-08
	 2.50000000E-01	 5.00000000E-01	-5.96046000E-08
	 2.50000000E-01	 5.00000000E-01	 1.00000000E+00
	 2.50000000E-01	 1.00000000E+00	 1.00000000E+00
	-7.45058000E-09	 7.50000000E-01	-5.96046000E-08
	-7.45058000E-09	 5.00000000E-01	 5.00000000E-01
	-7.45058000E-09	 7.50000000E-01	 1.00000000E+00
	-7.45058000E-09	 1.00000000E+00	 5.00000000E-01
	-7.45058000E-09	-1.49012000E-08	-5.96046000E-08
	-7.45058000E-09	-1.49012000E-08	 1.00000000E+00
	 2.50000000E-01	-1.49012000E-08	-5.96046000E-08
	 2.50000000E-01	-1.49012000E-08	 1.00000000E+00
	-7.45058000E-09	 2.50000000E-01	-5.96046000E-08
	-7.45058000E-09	-1.49012000E-08	 5.00000000E-01
	-7.45058000E-09	 2.50000000E-01	 1.00000000E+00
	 1.00000000E+00	 5.00000000E-01	 2.00000000E+00
	 1.00000000E+00	 1.00000000E+00	 2.00000000E+00
	 5.00000000E-01	 5.00000000E-01	 2.00000000E+00
	 5.00000000E-01	 1.00000000E+00	 2.00000000E+00
	 1.00000000E+00	 5.00000000E-01	 1.50000000E+00
	 1.00000000E+00	 7.50000000E-01	 2.00000000E+00
	 1.00000000E+00	 1.00000000E+00	 1.50000000E+00
	 7.50000000E-01	 5.00000000E-01	 2.00000000E+00
	 7.50000000E-01	 1.00000000E+00	 2.00000000E+00
	 5.00000000E-01	 5.00000000E-01	 1.50000000E+00
	 5.00000000E-01	 7.50000000E-01	 2.00000000E+00
	 5.00000000E-01	 1.00000000E+00	 1.50000000E+00
	 1.00000000E+00	-1.49012000E-08	 2.00000000E+00
	 5.00000000E-01	-1.49012000E-08	 2.00000000E+00
	 1.00000000E+00	-1.49012000E-08	 1.50000000E+00
	 1.00000000E+00	 2.50000000E-01	 2.00000000E+00
	 7.50000000E-01	-1.49012000E-08	 2.00000000E+00
	 5.00000000E-01	-1.49012000E-08	 1.50000000E+00
	 5.00000000E-01	 2.50000000E-01	 2.00000000E+00
	-7.45058000E-09	 5.00000000E-01	 2.00000000E+00
	-7.45058000E-09	 1.00000000E+00	 2.00000000E+00
	 2.50000000E-01	 5.00000000E-01	 2.00000000E+00
	 2.50000000E-01	 1.00000000E+00	 2.00000000E+00
	-7.45058000E-09	 5.00000000E-01	 1.50000000E+00
	-7.45058000E-09	 7.50000000E-01	 2.00000000E+00
	-7.45058000E-09	 1.00000000E+00	 1.50000000E+00
	-7.45058000E-09	-1.49012000E-08	 2.00000000E+00
	 2.50000000E-01	-1.49012000E-08	 2.00000000E+00
	-7.45058000E-09	-1.49012000E-08	 1.50000000E+00
	-7.45058000E-09	 2.50000000E-01	 2.00000000E+00
	 1.00000000E+00	 5.00000000E-01	 3.00000000E+00
	 1.00000000E+00	 1.00000000E+00	 3.00000000E+00
	 5.00000000E-01	 5.00000000E-01	 3.00000000E+00
	 5.00000000E-01	 1.00000000E+00	 3.00000000E+00
	 1.00000000E+00	 5.00000000E-01	 2.50000000E+00
	 1.00000000E+00	 7.50000000E-01	 3.00000000E+00
	 1.00000000E+00	 1.00000000E+00	 2.50000000E+00
	 7.50000000E-01	 5.00000000E-01	 3.00000000E+00
	 7.50000000E-01	 1.00000000E+00	 3.00000000E+00
	 5.00000000E-01	 5.00000000E-01	 2.50000000E+00
	 5.00000000E-01	 7.50000000E-01	 3.00000000E+00
	 5.00000000E-01	 1.00000000E+00	 2.50000000E+00
	 1.00000000E+00	-1.49012000E-08	 3.00000000E+00
	 5.00000000E-01	-1.49012000E-08	 3.00000000E+00
	 1.00000000E+00	-1.49012000E-08	 2.50000000E+00
	 1.00000000E+00	 2.50000000E-01	 3.00000000E+00
	 7.50000000E-01	-1.49012000E-08	 3.00000000E+00
	 5.00000000E-01	-1.49012000E-08	 2.50000000E+00
	 5.00000000E-01	 2.50000000E-01	 3.00000000E+00
	-7.45058000E-09	 5.00000000E-01	 3.00000000E+00
	-7.45058000E-09	 1.00000000E+00	 3.00000000E+00
	 2.50000000E-01	 5.00000000E-01	 3.00000000E+00
	 2.50000000E-01	 1.00000000E+00	 3.00000000E+00
	-7.45058000E-09	 5.00000000E-01	 2.50000000E+00
	-7.45058000E-09	 7.50000000E-01	 3.00000000E+00
	-7.45058000E-09	 1.00000000E+00	 2.50000000E+00
	-7.45058000E-09	-1.49012000E-08	 3.00000000E+00
	 2.50000000E-01	-1.49012000E-08	 3.00000000E+00
	-7.45058000E-09	-1.49012000E-08	 2.50000000E+00
	-7.45058000E-09	 2.50000000E-01	 3.00000000E+00
	 1.00000000E+00	 5.00000000E-01	 4.00000000E+00
	 1.00000000E+00	 1.00000000E+00	 4.00000000E+00
	 5.00000000E-01	 5.00000000E-01	 4.00000000E+00
	 5.00000000E-01	 1.00000000E+00	 4.00000000E+00
	 1.00000000E+00	 5.00000000E-01	 3.50000000E+00
	 1.00000000E+00	 7.50000000E-01	 4.00000000E+00
	 1.00000000E+00	 1.00000000E+00	 3.50000000E+00
	 7.50000000E-01	 5.00000000E-01	 4.00000000E+00
	 7.50000000E-01	 1.00000000E+00	 4.00000000E+00
	 5.00000000E-01	 5.00000000E-01	 3.50000000E+00
	 5.00000000E-01	 7.50000000E-01	 4.00000000E+00
	 5.00000000E-01	 1.00000000E+00	 3.50000000E+00
	 1.00000000E+00	-1.49012000E-08	 4.00000000E+00
	 5.00000000E-01	-1.49012000E-08	 4.00000000E+00
	 1.00000000E+00	-1.49012000E-08	 3.50000000E+00
	 1.00000000E+00	 2.50000000E-01	 4.00000000E+00
	 7.50000000E-01	-1.49012000E-08	 4.00000000E+00
	 5.00000000E-01	-1.49012000E-08	 3.50000000E+00
	 5.00000000E-01	 2.50000000E-01	 4.00000000E+00
	-7.45058000E-09	 5.00000000E-01	 4.00000000E+00
	-7.45058000E-09	 1.00000000E+00	 4.00000000E+00
	 2.50000000E-01	 5.00000000E-01	 4.00000000E+00
	 2.50000000E-01	 1.00000000E+00	 4.00000000E+00
	-7.45058000E-09	 5.00000000E-01	 3.50000000E+00
	-7.45058000E-09	 7.50000000E-01	 4.00000000E+00
	-7.45058000E-09	 1.00000000E+00	 3.50000000E+00
	-7.45058000E-09	-1.49012000E-08	 4.00000000E+00
	 2.50000000E-01	-1.49012000E-08	 4.00000000E+00
	-7.45058000E-09	-1.49012000E-08	 3.50000000E+00
	-7.45058000E-09	 2.50000000E-01	 4.00000000E+00
	 1.00000000E+00	 5.00000000E-01	 5.00000000E+00
	 1.00000000E+00	 1.00000000E+00	 5.00000000E+00
	 5.00000000E-01	 5.00000000E-01	 5.00000000E+00
	 5.00000000E-01	 1.00000000E+00	 5.00000000E+00
	 1.00000000E+00	 5.00000000E-01	 4.50000000E+00
	 1.00000000E+00	 7.50000000E-01	 5.00000000E+00
	 1.00000000E+00	 1.00000000E+00	 4.50000000E+00
	 7.50000000E-01	 5.00000000E-01	 5.00000000E+00
	 7.50000000E-01	 1.00000000E+00	 5.00000000E+00
	 5.00000000E-01	 5.00000000E-01	 4.50000000E+00
	 5.00000000E-01	 7.50000000E-01	 5.00000000E+00
	 5.00000000E-01	 1.00000000E+00	 4.50000000E+00
	 1.00000000E+00	-1.49012000E-08	 5.00000000E+00
	 5.00000000E-01	-1.49012000E-08	 5.00000000E+00
	 1.00000000E+00	-1.49012000E-08	 4.50000000E+00
	 1.00000000E+00	 2.50000000E-01	 5.00000000E+00
	 7.50000000E-01	-1.49012000E-08	 5.00000000E+00
	 5.00000000E-01	-1.49012000E-08	 4.50000000E+00
	 5.00000000E-01	 2.50000000E-01	 5.00000000E+00
	-7.45058000E-09	 5.00000000E-01	 5.00000000E+00
	-7.45058000E-09	 1.00000000E+00	 5.00000000E+00
	 2.50000000E-01	 5.00000000E-01	 5.00000000E+00
	 2.50000000E-01	 1.00000000E+00	 5.00000000E+00
	-7.45058000E-09	 5.00000000E-01	 4.50000000E+00
	-7.45058000E-09	 7.50000000E-01	 5.00000000E+00
	-7.45058000E-09	 1.00000000E+00	 4.50000000E+00
	-7.45058000E-09	-1.49012000E-08	 5.00000000E+00
	 2.50000000E-01	-1.49012000E-08	 5.00000000E+00
	-7.45058000E-09	-1.49012000E-08	 4.50000000E+00
	-7.45058000E-09	 2.50000000E-01	 5.00000000E+00
	 1.00000000E+00	 5.00000000E-01	 6.00000000E+00
	 1.00000000E+00	 1.00000000E+00	 6.00000000E+00
	 5.00000000E-01	 5.00000000E-01	 6.00000000E+00
	 5.00000000E-01	 1.00000000E+00	 6.00000000E+00
	 1.00000000E+00	 5.00000000E-01	 5.50000000E+00
	 1.00000000E+00	 7.50000000E-01	 6.00000000E+00
	 1.00000000E+00	 1.00000000E+00	 5.50000000E+00
	 7.50000000E-01	 5.00000000E-01	 6.00000000E+00
	 7.50000000E-01	 1.00000000E+00	 6.00000000E+00
	 5.00000000E-01	 5.00000000E-01	 5.50000000E+00
	 5.00000000E-01	 7.50000000E-01	 6.00000000E+00
	 5.00000000E-01	 1.00000000E+00	 5.50000000E+00
	 1.00000000E+00	-1.49012000E-08	 6.00000000E+00
	 5.00000000E-01	-1.49012000E-08	 6.00000000E+00
	 1.00000000E+00	-1.49012000E-08	 5.50000000E+00
	 1.00000000E+00	 2.50000000E-01	 6.00000000E+00
	 7.50000000E-01	-1.49012000E-08	 6.00000000E+00
	 5.00000000E-01	-1.49012000E-08	 5.50000000E+00
	 5.00000000E-01	 2.50000000E-01	 6.00000000E+00
	-7.45058000E-09	 5.00000000E-01	 6.00000000E+00
	-7.45058000E-09	 1.00000000E+00	 6.00000000E+00
	 2.50000000E-01	 5.00000000E-01	 6.00000000E+00
	 2.50000000E-01	 1.00000000E+00	 6.00000000E+00
	-7.45058000E-09	 5.00000000E-01	 5.50000000E+00
	-7.45058000E-09	 7.50000000E-01	 6.00000000E+00
	-7.45058000E-09	 1.00000000E+00	 5.50000000E+00
	-7.45058000E-09	-1.49012000E-08	 6.00000000E+00
	 2.50000000E-01	-1.49012000E-08	 6.00000000E+00
	-7.45058000E-09	-1.49012000E-08	 5.50000000E+00
	-7.45058000E-09	 2.50000000E-01	 6.00000000E+00
	 1.00000000E+00	 5.00000000E-01	 7.00000000E+00
[...]
POINT_DATA 522
FIELD U 1
	U 3 522 double
		 0.00000000E+00	 0.00000000E+00	 0.00000000E+00
		 0.00000000E+00	 0.00000000E+00	 0.00000000E+00
		-7.03267000E-06	 1.59617000E-03	-8.31709000E-07
		 1.04779000E-03	 1.70682000E-03	-2.13735000E-03
		 0.00000000E+00	 0.00000000E+00	 0.00000000E+00
		 0.00000000E+00	 0.00000000E+00	 0.00000000E+00
		-6.11372000E-06	 2.52268000E-03	-6.83830000E-06
		 7.92653000E-04	 2.63886000E-03	-2.17135000E-03
		 0.00000000E+00	 0.00000000E+00	 0.00000000E+00
		-2.95449000E-06	 1.68073000E-04	 3.92660000E-07
		 5.22009000E-04	 1.60371000E-03	-1.10801000E-03
		 6.95774000E-04	 3.59300000E-04	-1.10545000E-03
		 0.00000000E+00	 0.00000000E+00	 0.00000000E+00
		 0.00000000E+00	 0.00000000E+00	 0.00000000E+00
		-6.47243000E-06	 2.10580000E-03	-4.16552000E-06
		 9.18091000E-04	 2.21709000E-03	-2.08381000E-03
		 0.00000000E+00	 0.00000000E+00	 0.00000000E+00
		-3.17680000E-06	 7.01061000E-04	-2.97922000E-06
		 3.92340000E-04	 2.53067000E-03	-1.05529000E-03
		 3.87722000E-04	 8.80838000E-04	-1.08050000E-03
		 0.00000000E+00	 0.00000000E+00	 0.00000000E+00
		-1.06289000E-03	 1.71958000E-03	 2.13453000E-03
		 0.00000000E+00	 0.00000000E+00	 0.00000000E+00
		-8.04473000E-04	 2.65180000E-03	 2.15693000E-03
		 0.00000000E+00	 0.00000000E+00	 0.00000000E+00
		-7.01811000E-04	 3.64078000E-04	 1.10570000E-03
		-5.36461000E-04	 1.61052000E-03	 1.10584000E-03
		 0.00000000E+00	 0.00000000E+00	 0.00000000E+00
		-9.31330000E-04	 2.22982000E-03	 2.07469000E-03
		 0.00000000E+00	 0.00000000E+00	 0.00000000E+00
		-3.93373000E-04	 8.84115000E-04	 1.07451000E-03
		-4.04498000E-04	 2.53719000E-03	 1.04134000E-03
		 0.00000000E+00	 0.00000000E+00	 0.00000000E+00
		 0.00000000E+00	 0.00000000E+00	 0.00000000E+00
		-5.50811000E-06	 3.19306000E-03	-1.14434000E-05
		 5.27153000E-04	 3.29440000E-03	-2.14739000E-03
		 0.00000000E+00	 0.00000000E+00	 0.00000000E+00
		 0.00000000E+00	 0.00000000E+00	 0.00000000E+00
		-5.73563000E-06	 2.90236000E-03	-9.27853000E-06
		 6.61250000E-04	 3.01355000E-03	-2.23610000E-03
		 0.00000000E+00	 0.00000000E+00	 0.00000000E+00
		-4.20160000E-06	 9.49088000E-04	-5.25583000E-06
		 2.62374000E-04	 3.19557000E-03	-9.71114000E-04
		 4.76573000E-05	 1.11065000E-03	-1.11081000E-03
		 0.00000000E+00	 0.00000000E+00	 0.00000000E+00
		-5.36455000E-04	 3.30567000E-03	 2.12451000E-03
		 0.00000000E+00	 0.00000000E+00	 0.00000000E+00
		-6.71670000E-04	 3.02651000E-03	 2.21686000E-03
		 0.00000000E+00	 0.00000000E+00	 0.00000000E+00
		-5.46173000E-05	 1.11235000E-03	 1.10033000E-03
		-2.72823000E-04	 3.20043000E-03	 9.48480000E-04
		-7.29345000E-06	 7.03547000E-03	-1.20085000E-05
		 1.72834000E-03	 7.09220000E-03	-3.57611000E-03
		-4.72063000E-06	 8.69547000E-03	-2.36345000E-05
		 1.57763000E-03	 8.75365000E-03	-3.59744000E-03
		-8.07601000E-06	 3.94449000E-03	-4.99389000E-06
		 8.60940000E-04	 7.04938000E-03	-1.81467000E-03
		 1.41349000E-03	 4.04064000E-03	-2.95439000E-03
		-5.61999000E-06	 7.88040000E-03	-1.76722000E-05
		 1.65420000E-03	 7.93882000E-03	-3.54524000E-03
		-6.28683000E-06	 5.25659000E-03	-1.29635000E-05
		 7.87284000E-04	 8.71151000E-03	-1.78889000E-03
		 1.19909000E-03	 5.35600000E-03	-2.97682000E-03
		-1.74440000E-03	 7.12545000E-03	 3.55041000E-03
		-1.58730000E-03	 8.78731000E-03	 3.54837000E-03
		-1.43125000E-03	 4.06342000E-03	 2.94299000E-03
		-8.76038000E-04	 7.06635000E-03	 1.79023000E-03
		-1.66659000E-03	 7.97207000E-03	 3.50823000E-03
		-1.21168000E-03	 5.37945000E-03	 2.94961000E-03
		-7.96973000E-04	 8.72851000E-03	 1.74120000E-03
		-3.78808000E-06	 1.01995000E-02	-3.51921000E-05
		 1.43231000E-03	 1.02639000E-02	-3.60010000E-03
		-4.23277000E-06	 9.46365000E-03	-2.95897000E-05
		 1.50491000E-03	 9.52117000E-03	-3.65503000E-03
		-5.55034000E-06	 6.35460000E-03	-2.05083000E-05
		 7.11307000E-04	 1.02185000E-02	-1.74110000E-03
		 9.93735000E-04	 6.46138000E-03	-2.96989000E-03
		-1.43842000E-03	 1.02952000E-02	 3.52784000E-03
		-1.51268000E-03	 9.55472000E-03	 3.59401000E-03
		-1.00312000E-03	 6.48272000E-03	 2.92782000E-03
		-7.18471000E-04	 1.02335000E-02	 1.67033000E-03
		-1.06112000E-05	 1.43903000E-02	-3.81952000E-05
		 2.34864000E-03	 1.44437000E-02	-4.44209000E-03
		-7.19959000E-06	 1.66860000E-02	-6.03132000E-05
		 2.21371000E-03	 1.67341000E-02	-4.45421000E-03
		-7.69818000E-06	 1.05718000E-02	-2.23232000E-05
		 1.17120000E-03	 1.44001000E-02	-2.31281000E-03
		 2.03258000E-03	 1.06263000E-02	-4.01279000E-03
		-8.61811000E-06	 1.55558000E-02	-4.91295000E-05
		 2.28103000E-03	 1.56045000E-02	-4.39893000E-03
		-4.88490000E-06	 1.25546000E-02	-3.92203000E-05
		 1.10283000E-03	 1.66940000E-02	-2.28252000E-03
		 1.91224000E-03	 1.26049000E-02	-4.03199000E-03
		-2.37018000E-03	 1.44914000E-02	 4.36299000E-03
		-2.22712000E-03	 1.67806000E-02	 4.33077000E-03
		-2.04904000E-03	 1.06665000E-02	 3.96542000E-03
		-1.19249000E-03	 1.44251000E-02	 2.23541000E-03
		-2.29814000E-03	 1.56512000E-02	 4.29828000E-03
		-1.92184000E-03	 1.26449000E-02	 3.95084000E-03
		-1.11699000E-03	 1.67178000E-02	 2.16110000E-03
		-5.28461000E-06	 1.88313000E-02	-8.15167000E-05
		 2.07474000E-03	 1.88842000E-02	-4.48651000E-03
		-6.25526000E-06	 1.77759000E-02	-7.11309000E-05
		 2.14432000E-03	 1.78251000E-02	-4.50488000E-03
		-3.68349000E-06	 1.44055000E-02	-5.57077000E-05
		 1.03312000E-03	 1.88413000E-02	-2.27370000E-03
		 1.79440000E-03	 1.44652000E-02	-4.04746000E-03
		-2.08309000E-03	 1.89275000E-02	 4.32038000E-03
		-2.15504000E-03	 1.78708000E-02	 4.35936000E-03
		-1.80017000E-03	 1.45027000E-02	 3.93313000E-03
		-1.04306000E-03	 1.88628000E-02	 2.10999000E-03
		-1.51723000E-05	 2.33101000E-02	-8.34726000E-05
		 3.20754000E-03	 2.34169000E-02	-5.99035000E-03
		-7.55924000E-06	 2.63708000E-02	-1.25520000E-04
		 2.90586000E-03	 2.64855000E-02	-6.02057000E-03
		-1.24341000E-05	 1.85086000E-02	-5.89104000E-05
		 1.59446000E-03	 2.33215000E-02	-3.13001000E-03
		 2.74390000E-03	 1.85942000E-02	-5.08516000E-03
		-1.05766000E-05	 2.48805000E-02	-1.04170000E-04
		 3.05707000E-03	 2.49925000E-02	-5.93648000E-03
		-7.38802000E-06	 2.11565000E-02	-8.79625000E-05
		 1.44805000E-03	 2.63857000E-02	-3.09939000E-03
		 2.53011000E-03	 2.12403000E-02	-5.09475000E-03
		-3.23406000E-03	 2.35083000E-02	 5.82023000E-03
		-2.91668000E-03	 2.65667000E-02	 5.76633000E-03
		-2.76709000E-03	 1.86580000E-02	 4.96506000E-03
		-1.62418000E-03	 2.33693000E-02	 2.96197000E-03
		-3.07414000E-03	 2.50773000E-02	 5.72528000E-03
		-2.54209000E-03	 2.12988000E-02	 4.91616000E-03
		-1.46234000E-03	 2.64271000E-02	 2.84760000E-03
		-5.30545000E-06	 2.91321000E-02	-1.64131000E-04
		 2.59368000E-03	 2.92432000E-02	-6.07080000E-03
		-5.74617000E-06	 2.77906000E-02	-1.46017000E-04
		 2.75032000E-03	 2.79059000E-02	-6.09873000E-03
		-5.61837000E-06	 2.35810000E-02	-1.15199000E-04
		 1.29627000E-03	 2.91465000E-02	-3.09008000E-03
		 2.30444000E-03	 2.36634000E-02	-5.14217000E-03
		-2.59896000E-03	 2.93148000E-02	 5.73939000E-03
		-2.75717000E-03	 2.79836000E-02	 5.80331000E-03
		-2.31161000E-03	 2.37158000E-02	 4.90861000E-03
		-1.30561000E-03	 2.91819000E-02	 2.76127000E-03
		-4.46393000E-05	 3.64973000E-02	-1.68850000E-04
		 4.06971000E-03	 3.65503000E-02	-8.24894000E-03
		-3.03175000E-05	 4.04569000E-02	-2.46969000E-04
		 3.79224000E-03	 4.05209000E-02	-8.34136000E-03
		-2.60016000E-05	 2.92603000E-02	-1.16852000E-04
		 2.00985000E-03	 3.64855000E-02	-4.23684000E-03
		 3.66006000E-03	 2.93458000E-02	-7.13035000E-03
		-3.69293000E-05	 3.85135000E-02	-2.09260000E-04
		 3.93154000E-03	 3.85754000E-02	-8.23638000E-03
		-1.54540000E-05	 3.27737000E-02	-1.77864000E-04
		 1.88109000E-03	 4.04511000E-02	-4.25982000E-03
		 3.34092000E-03	 3.28689000E-02	-7.19394000E-03
		-4.15670000E-03	 3.67129000E-02	 7.90604000E-03
		-3.85054000E-03	 4.06769000E-02	 7.84237000E-03
		-3.70847000E-03	 2.94720000E-02	 6.89188000E-03
		-2.09879000E-03	 3.65675000E-02	 3.89793000E-03
		-4.00294000E-03	 3.87328000E-02	 7.81282000E-03
		-3.36827000E-03	 3.29852000E-02	 6.83417000E-03
		-1.94139000E-03	 4.05282000E-02	 3.76467000E-03
		-2.06313000E-05	 4.41378000E-02	-3.19892000E-04
		 3.51761000E-03	 4.42043000E-02	-8.39934000E-03
		-2.47842000E-05	 4.23341000E-02	-2.83429000E-04
		 3.65591000E-03	 4.23986000E-02	-8.44998000E-03
		-1.03087000E-05	 3.59681000E-02	-2.33777000E-04
		 1.74931000E-03	 4.41349000E-02	-4.24795000E-03
		 3.01241000E-03	 3.60586000E-02	-7.24599000E-03
		-3.55612000E-03	 4.43536000E-02	 7.75512000E-03
		-3.70327000E-03	 4.25537000E-02	 7.87812000E-03
		-3.02891000E-03	 3.61655000E-02	 6.77551000E-03
		-1.78984000E-03	 4.42066000E-02	 3.60716000E-03
		-7.64708000E-05	 5.40316000E-02	-3.25220000E-04
		 4.56203000E-03	 5.39767000E-02	-9.75668000E-03
		-5.54702000E-05	 5.85964000E-02	-4.27060000E-04
		 4.44884000E-03	 5.85523000E-02	-9.87319000E-03
		-6.18078000E-05	 4.48658000E-02	-2.41587000E-04
		 2.24114000E-03	 5.39890000E-02	-5.03020000E-03
		 4.38062000E-03	 4.48601000E-02	-9.12061000E-03
		-6.56398000E-05	 5.63285000E-02	-3.76665000E-04
		 4.50658000E-03	 5.62816000E-02	-9.79644000E-03
		-4.41044000E-05	 4.91946000E-02	-3.31602000E-04
		 2.19735000E-03	 5.85607000E-02	-5.11897000E-03
		 4.18668000E-03	 4.92019000E-02	-9.22914000E-03
		-4.70898000E-03	 5.42005000E-02	 9.10293000E-03
		-4.55567000E-03	 5.87665000E-02	 9.01513000E-03
		-4.50086000E-03	 4.50564000E-02	 8.63386000E-03
		-2.39270000E-03	 5.41008000E-02	 4.37845000E-03
		-4.63229000E-03	 5.64993000E-02	 9.03990000E-03
		-4.27206000E-03	 4.93915000E-02	 8.56124000E-03
		-2.30726000E-03	 5.86662000E-02	 4.26371000E-03
		-3.80091000E-05	 6.30327000E-02	-5.24055000E-04
		 4.34797000E-03	 6.30011000E-02	-9.95632000E-03
		-4.62081000E-05	 6.08305000E-02	-4.76152000E-04
		 4.39914000E-03	 6.07889000E-02	-9.95001000E-03
		-3.02731000E-05	 5.33217000E-02	-4.17235000E-04
		 2.15229000E-03	 6.30041000E-02	-5.17560000E-03
		 4.00835000E-03	 5.33411000E-02	-9.29717000E-03
		-4.42176000E-03	 6.32090000E-02	 8.90356000E-03
		-4.48888000E-03	 6.10007000E-02	 8.99344000E-03
		-4.06667000E-03	 5.35252000E-02	 8.45704000E-03
		-2.22765000E-03	 6.31053000E-02	 4.12613000E-03
		-1.23502000E-04	 7.37140000E-02	-5.12041000E-04
		 4.52919000E-03	 7.36051000E-02	-1.03841000E-02
		-9.86181000E-05	 7.83558000E-02	-6.29117000E-04
		 4.53529000E-03	 7.82486000E-02	-1.05104000E-02
		-9.64578000E-05	 6.37304000E-02	-4.14465000E-04
		 2.20308000E-03	 7.36593000E-02	-5.42147000E-03
		 4.60011000E-03	 6.36430000E-02	-1.01531000E-02
		-1.11605000E-04	 7.60369000E-02	-5.71424000E-04
		 4.53199000E-03	 7.59288000E-02	-1.04575000E-02
		-7.25187000E-05	 6.83829000E-02	-5.27591000E-04
		 2.21887000E-03	 7.83021000E-02	-5.55246000E-03
		 4.54958000E-03	 6.83052000E-02	-1.02787000E-02
		-4.77431000E-03	 7.38390000E-02	 9.36076000E-03
		-4.73231000E-03	 7.84803000E-02	 9.25379000E-03
		-4.78689000E-03	 6.38781000E-02	 9.32069000E-03
		-2.44965000E-03	 7.37738000E-02	 4.39872000E-03
		-4.75411000E-03	 7.61616000E-02	 9.31495000E-03
		-4.69154000E-03	 6.85314000E-02	 9.22073000E-03
		-2.41617000E-03	 7.84159000E-02	 4.29497000E-03
		-7.48892000E-05	 8.29771000E-02	-7.46640000E-04
		 4.54610000E-03	 8.28752000E-02	-1.06208000E-02
		-8.58577000E-05	 8.06681000E-02	-6.87289000E-04
		 4.54168000E-03	 8.05627000E-02	-1.05641000E-02
		-5.11942000E-05	 7.29670000E-02	-6.36363000E-04
		 2.23481000E-03	 8.29256000E-02	-5.66854000E-03
		 4.51114000E-03	 7.29001000E-02	-1.03751000E-02
		-4.69703000E-03	 8.31070000E-02	 9.12983000E-03
		-4.71399000E-03	 8.07942000E-02	 9.19174000E-03
		-4.61293000E-03	 7.31225000E-02	 9.10011000E-03
		-2.38505000E-03	 8.30398000E-02	 4.17610000E-03
		-1.64638000E-04	 9.36044000E-02	-7.18227000E-04
		 4.42305000E-03	 9.34825000E-02	-1.05694000E-02
		-1.51156000E-04	 9.82067000E-02	-8.26490000E-04
		 4.45013000E-03	 9.80789000E-02	-1.06837000E-02
		-1.48252000E-04	 8.37037000E-02	-6.16449000E-04
		 2.13161000E-03	 9.35450000E-02	-5.64736000E-03
		 4.45676000E-03	 8.35939000E-02	-1.04926000E-02
		-1.57194000E-04	 9.59034000E-02	-7.70687000E-04
		 4.43631000E-03	 9.57759000E-02	-1.06236000E-02
		-1.26450000E-04	 8.83153000E-02	-7.28664000E-04
		 2.14820000E-03	 9.81436000E-02	-5.75855000E-03
		 4.48712000E-03	 8.81996000E-02	-1.06110000E-02
		-4.76129000E-03	 9.37253000E-02	 9.14620000E-03
		-4.75388000E-03	 9.83309000E-02	 9.04325000E-03
		-4.75838000E-03	 8.38252000E-02	 9.26828000E-03
		-2.46283000E-03	 9.36670000E-02	 4.21472000E-03
		-4.75687000E-03	 9.60256000E-02	 9.09515000E-03
		-4.74120000E-03	 8.84369000E-02	 9.16240000E-03
		-2.45093000E-03	 9.82713000E-02	 4.10907000E-03
		-1.37141000E-04	 1.02816000E-01	-9.47372000E-04
		 4.47447000E-03	 1.02692000E-01	-1.08099000E-02
		-1.45107000E-04	 1.00511000E-01	-8.85754000E-04
		 4.46201000E-03	 1.00384000E-01	-1.07451000E-02
		-1.05026000E-04	 9.29287000E-02	-8.49493000E-04
		 2.16631000E-03	 1.02755000E-01	-5.88293000E-03
		 4.51300000E-03	 9.28153000E-02	-1.07329000E-02
		-4.74290000E-03	 1.02939000E-01	 8.92691000E-03
		-4.74917000E-03	 1.00634000E-01	 8.98523000E-03
		-4.72078000E-03	 9.30511000E-02	 9.04268000E-03
		-2.43896000E-03	 1.02879000E-01	 3.99198000E-03
		 0.00000000E+00	 0.00000000E+00	 0.00000000E+00
		 0.00000000E+00	 0.00000000E+00	 0.00000000E+00
		-3.51409000E-05	-3.46437000E-03	 2.10185000E-04
		-1.84399000E-03	-3.71387000E-03	 4.22074000E-03
		 0.00000000E+00	 0.00000000E+00	 0.00000000E+00
		 0.00000000E+00	 0.00000000E+00	 0.00000000E+00
		-1.18918000E-06	-5.04870000E-03	 1.83146000E-04
		-1.36266000E-03	-5.31028000E-03	 4.25767000E-03
		 0.00000000E+00	 0.00000000E+00	 0.00000000E+00
		-2.85048000E-05	-5.34720000E-04	 1.00635000E-04
		-9.41872000E-04	-3.50329000E-03	 2.25112000E-03
		-1.27631000E-03	-9.34654000E-04	 2.23530000E-03
		 0.00000000E+00	 0.00000000E+00	 0.00000000E+00
		 0.00000000E+00	 0.00000000E+00	 0.00000000E+00
		-1.71363000E-05	-4.33997000E-03	 1.97054000E-04
		-1.59832000E-03	-4.59242000E-03	 4.12407000E-03
		 0.00000000E+00	 0.00000000E+00	 0.00000000E+00
		 4.27336000E-06	-1.46421000E-03	 8.50430000E-05
		-6.82527000E-04	-5.08856000E-03	 2.13531000E-03
		-6.58646000E-04	-1.84318000E-03	 2.17175000E-03
		 0.00000000E+00	 0.00000000E+00	 0.00000000E+00
		 1.77746000E-03	-3.60651000E-03	-3.81142000E-03
		 0.00000000E+00	 0.00000000E+00	 0.00000000E+00
		 1.36566000E-03	-5.20812000E-03	-3.90279000E-03
		 0.00000000E+00	 0.00000000E+00	 0.00000000E+00
		 1.22092000E-03	-8.49485000E-04	-2.02632000E-03
		 8.72789000E-04	-3.44846000E-03	-1.83581000E-03
		 0.00000000E+00	 0.00000000E+00	 0.00000000E+00
		 1.56798000E-03	-4.48761000E-03	-3.74057000E-03
		 0.00000000E+00	 0.00000000E+00	 0.00000000E+00
		 6.71135000E-04	-1.76510000E-03	-1.99328000E-03
		 6.79954000E-04	-5.03757000E-03	-1.77424000E-03
		 0.00000000E+00	 0.00000000E+00	 0.00000000E+00
		 0.00000000E+00	 0.00000000E+00	 0.00000000E+00
		 2.66212000E-05	-6.19085000E-03	 1.54515000E-04
		-8.73559000E-04	-6.41840000E-03	 4.16691000E-03
		 0.00000000E+00	 0.00000000E+00	 0.00000000E+00
		 0.00000000E+00	 0.00000000E+00	 0.00000000E+00
		 1.37613000E-05	-5.70086000E-03	 1.66767000E-04
		-1.11998000E-03	-5.94449000E-03	 4.34600000E-03
		 0.00000000E+00	 0.00000000E+00	 0.00000000E+00
		 3.25585000E-05	-1.86343000E-03	 8.26460000E-05
		-4.26255000E-04	-6.21632000E-03	 1.94401000E-03
		 5.06736000E-06	-2.20526000E-03	 2.21720000E-03
		 0.00000000E+00	 0.00000000E+00	 0.00000000E+00
		 9.29702000E-04	-6.32797000E-03	-3.86754000E-03
		 0.00000000E+00	 0.00000000E+00	 0.00000000E+00
		 1.15126000E-03	-5.85198000E-03	-4.02383000E-03
		 0.00000000E+00	 0.00000000E+00	 0.00000000E+00
		 6.27536000E-05	-2.13305000E-03	-2.04497000E-03
		 4.80250000E-04	-6.17345000E-03	-1.63870000E-03
		-9.25677000E-05	-1.37320000E-02	 3.63032000E-04
		-2.99266000E-03	-1.38698000E-02	 6.50447000E-03
		-6.06545000E-05	-1.65587000E-02	 2.82525000E-04
		-2.81645000E-03	-1.66919000E-02	 6.45956000E-03
		-5.43910000E-05	-8.02082000E-03	 2.99205000E-04
		-1.54363000E-03	-1.37903000E-02	 3.43490000E-03
		-2.44987000E-03	-8.24771000E-03	 5.64264000E-03
		-7.58673000E-05	-1.51562000E-02	 3.21363000E-04
		-2.90394000E-03	-1.52899000E-02	 6.41259000E-03
		-2.29009000E-05	-1.02544000E-02	 2.45774000E-04
		-1.43434000E-03	-1.66140000E-02	 3.30273000E-03
		-2.09565000E-03	-1.04791000E-02	 5.62767000E-03
		 2.81287000E-03	-1.37230000E-02	-5.78631000E-03
		 2.69384000E-03	-1.65601000E-02	-5.90040000E-03
		 2.34390000E-03	-8.11603000E-03	-5.05538000E-03
		 1.35927000E-03	-1.37167000E-02	-2.71112000E-03
		 2.75619000E-03	-1.51565000E-02	-5.77482000E-03
		 2.05437000E-03	-1.03597000E-02	-5.14708000E-03
		 1.31705000E-03	-1.65496000E-02	-2.73627000E-03
		-3.97790000E-05	-1.92405000E-02	 2.00326000E-04
		-2.63307000E-03	-1.93545000E-02	 6.34129000E-03
		-4.98881000E-05	-1.79087000E-02	 2.43928000E-04
		-2.72355000E-03	-1.80634000E-02	 6.51269000E-03
		 1.92994000E-06	-1.21714000E-02	 1.90372000E-04
		-1.34194000E-03	-1.92824000E-02	 3.09669000E-03
		-1.75323000E-03	-1.23890000E-02	 5.53454000E-03
		 2.58210000E-03	-1.92517000E-02	-5.94747000E-03
		 2.63829000E-03	-1.79154000E-02	-6.03383000E-03
		 1.77333000E-03	-1.22904000E-02	-5.16249000E-03
		 1.26991000E-03	-1.92347000E-02	-2.69373000E-03
		-2.06346000E-04	-2.59464000E-02	 4.26070000E-04
		-4.09113000E-03	-2.59193000E-02	 6.53815000E-03
		-1.72751000E-04	-2.98516000E-02	 3.27574000E-04
		-4.14251000E-03	-2.99287000E-02	 6.45133000E-03
		-1.44803000E-04	-1.99064000E-02	 4.03299000E-04
		-2.14569000E-03	-2.59476000E-02	 3.53017000E-03
		-3.53181000E-03	-1.99818000E-02	 6.73236000E-03
		-1.87923000E-04	-2.78882000E-02	 3.80401000E-04
		-4.11938000E-03	-2.79245000E-02	 6.41324000E-03
		-1.14050000E-04	-2.32899000E-02	 3.05314000E-04
		-2.18156000E-03	-2.99110000E-02	 3.34500000E-03
		-3.49967000E-03	-2.33718000E-02	 6.66708000E-03
		 3.63851000E-03	-2.58297000E-02	-5.67074000E-03
		 3.79327000E-03	-2.97442000E-02	-5.81420000E-03
		 3.23576000E-03	-1.98428000E-02	-5.92820000E-03
		 1.71980000E-03	-2.59044000E-02	-2.66678000E-03
		 3.71422000E-03	-2.77675000E-02	-5.66553000E-03
		 3.27455000E-03	-2.32210000E-02	-6.05958000E-03
		 1.81163000E-03	-2.98204000E-02	-2.70995000E-03
		-1.46853000E-04	-3.38653000E-02	 2.24849000E-04
		-4.29680000E-03	-3.40681000E-02	 6.33592000E-03
		-1.59402000E-04	-3.18579000E-02	 2.74479000E-04
		-4.22221000E-03	-3.18663000E-02	 6.49600000E-03
		-8.09013000E-05	-2.66725000E-02	 2.05343000E-04
		-2.18832000E-03	-3.39910000E-02	 3.12866000E-03
		-3.50587000E-03	-2.67853000E-02	 6.53878000E-03
		 3.95972000E-03	-3.37932000E-02	-5.93033000E-03
		 3.87660000E-03	-3.17463000E-02	-5.96524000E-03
		 3.30790000E-03	-2.66109000E-02	-6.13343000E-03
		 1.89607000E-03	-3.38592000E-02	-2.72373000E-03
		-2.74002000E-04	-3.62488000E-02	 4.61551000E-04
		-5.23746000E-03	-3.61337000E-02	 5.57799000E-03
		-2.37344000E-04	-4.13313000E-02	 3.94260000E-04
		-5.46739000E-03	-4.16769000E-02	 5.50146000E-03
		-2.82829000E-04	-3.13946000E-02	 4.44479000E-04
		-2.75542000E-03	-3.62092000E-02	 3.10595000E-03
		-4.68179000E-03	-3.14147000E-02	 6.06426000E-03
		-2.54741000E-04	-3.87373000E-02	 4.28312000E-04
		-5.34249000E-03	-3.87981000E-02	 5.47592000E-03
		-2.52851000E-04	-3.59125000E-02	 3.13349000E-04
		-2.72855000E-03	-4.15065000E-02	 2.97087000E-03
		-4.85735000E-03	-3.58741000E-02	 6.01117000E-03
		 4.52057000E-03	-3.61264000E-02	-4.65355000E-03
		 4.69377000E-03	-4.10562000E-02	-4.70992000E-03
		 4.08909000E-03	-3.12720000E-02	-5.17195000E-03
		 2.12205000E-03	-3.62106000E-02	-2.18184000E-03
		 4.61006000E-03	-3.85688000E-02	-4.61806000E-03
		 4.28247000E-03	-3.57436000E-02	-5.27888000E-03
		 2.21591000E-03	-4.11890000E-02	-2.18206000E-03
		-3.39510000E-04	-4.65943000E-02	 3.25194000E-04
		-5.56292000E-03	-4.72988000E-02	 5.44358000E-03
		-2.86545000E-04	-4.39061000E-02	 3.59347000E-04
		-5.51342000E-03	-4.49541000E-02	 5.52116000E-03
		-2.47826000E-04	-4.05874000E-02	 1.53899000E-04
		-3.06915000E-03	-4.69352000E-02	 2.85568000E-03
		-4.87516000E-03	-4.04362000E-02	 5.90858000E-03
		 4.88182000E-03	-4.61576000E-02	-4.78786000E-03