<?xml version="1.0"?>
<VTKFile type="UnstructuredGrid" version="0.1" byte_order="LittleEndian">
	<UnstructuredGrid>
		<Piece NumberOfPoints="522" NumberOfCells="64">
			<Points>
				<DataArray type="Float64" NumberOfComponents="3" format="ascii">
					 1.00000000E+00	 1.00000000E+00	-5.96046000E-08
					 1.00000000E+00	 5.00000000E-01	-5.96046000E-08
					 1.00000000E+00	 5.00000000E-01	 1.00000000E+00
					 1.00000000E+00	 1.00000000E+00	 1.00000000E+00
					 5.00000000E-01	 1.00000000E+00	-5.96046000E-08
					 5.00000000E-01	 5.00000000E-01	-5.96046000E-08
					 5.00000000E-01	 5.00000000E-01	 1.00000000E+00
					 5.00000000E-01	 1.00000000E+00	 1.00000000E+00
					 1.00000000E+00	 7.50000000E-01	-5.96046000E-08
					 1.00000000E+00	 5.00000000E-01	 5.00000000E-01
					 1.00000000E+00	 7.50000000E-01	 1.00000000E+00
					 1.00000000E+00	 1.00000000E+00	 5.00000000E-01
					 7.50000000E-01	 1.00000000E+00	-5.96046000E-08
					 7.50000000E-01	 5.00000000E-01	-5.96046000E-08
					 7.50000000E-01	 5.00000000E-01	 1.00000000E+00
					 7.50000000E-01	 1.00000000E+00	 1.00000000E+00
					 5.00000000E-01	 7.50000000E-01	-5.96046000E-08
					 5.00000000E-01	 5.00000000E-01	 5.00000000E-01
					 5.00000000E-01	 7.50000000E-01	 1.00000000E+00
					 5.00000000E-01	 1.00000000E+00	 5.00000000E-01
					 1.00000000E+00	-1.49012000E-08	-5.96046000E-08
					 1.00000000E+00	-1.49012000E-08	 1.00000000E+00
					 5.00000000E-01	-1.49012000E-08	-5.96046000E-08
					 5.00000000E-01	-1.49012000E-08	 1.00000000E+00
					 1.00000000E+00	 2.50000000E-01	-5.96046000E-08
					 1.00000000E+00	-1.49012000E-08	 5.00000000E-01
					 1.00000000E+00	 2.50000000E-01	 1.00000000E+00
					 7.50000000E-01	-1.49012000E-08	-5.96046000E-08
					 7.50000000E-01	-1.49012000E-08	 1.00000000E+00
					 5.00000000E-01	 2.50000000E-01	-5.96046000E-08
					 5.00000000E-01	-1.49012000E-08	 5.00000000E-01
					 5.00000000E-01	 2.50000000E-01	 1.00000000E+00
					-7.45058000E-09	 1.00000000E+00	-5.96046000E-08
					-7.45058000E-09	 5.00000000E-01	-5.96046000E-08
					-7.45058000E-09	 5.00000000E-01	 1.00000000E+00
					-7.45058000E-09	 1.00000000E+00	 1.00000000E+00
					 2.50000000E-01	 1.00000000E+00	-5.96046000E-08
					 2.50000000E-01	 5.00000000E-01	-5.96046000E-08
					 2.50000000E-01	 5.00000000E-01	 1.00000000E+00
					 2.50000000E-01	 1.00000000E+00	 1.00000000E+00
					-7.45058000E-09	 7.50000000E-01	-5.96046000E-08
					-7.45058000E-09	 5.00000000E-01	 5.00000000E-01
					-7.45058000E-09	 7.50000000E-01	 1.00000000E+00
					-7.45058000E-09	 1.00000000E+00	 5.00000000E-01
					-7.45058000E-09	-1.49012000E-08	-5.96046000E-08
					-7.45058000E-09	-1.49012000E-08	 1.00000000E+00
					 2.50000000E-01	-1.49012000E-08	-5.96046000E-08
					 2.50000000E-01	-1.49012000E-08	 1.00000000E+00
					-7.45058000E-09	 2.50000000E-01	-5.96046000E-08
					-7.45058000E-09	-1.49012000E-08	 5.00000000E-01
					-7.45058000E-09	 2.50000000E-01	 1.00000000E+00
					 1.00000000E+00	 5.00000000E-01	 2.00000000E+00
					 1.00000000E+00	 1.00000000E+00	 2.00000000E+00
					 5.00000000E-01	 5.00000000E-01	 2.00000000E+00
					 5.00000000E-01	 1.00000000E+00	 2.00000000E+00
					 1.00000000E+00	 5.00000000E-01	 1.50000000E+00
					 1.00000000E+00	 7.50000000E-01	 2.00000000E+00
					 1.00000000E+00	 1.00000000E+00	 1.50000000E+00
					 7.50000000E-01	 5.00000000E-01	 2.00000000E+00
					 7.50000000E-01	 1.00000000E+00	 2.00000000E+00
					 5.00000000E-01	 5.00000000E-01	 1.50000000E+00
					 5.00000000E-01	 7.50000000E-01	 2.00000000E+00
					 5.00000000E-01	 1.00000000E+00	 1.50000000E+00
					 1.00000000E+00	-1.49012000E-08	 2.00000000E+00
					 5.00000000E-01	-1.49012000E-08	 2.00000000E+00
					 1.00000000E+00	-1.49012000E-08	 1.50000000E+00
					 1.00000000E+00	 2.50000000E-01	 2.00000000E+00
					 7.50000000E-01	-1.49012000E-08	 2.00000000E+00
					 5.00000000E-01	-1.49012000E-08	 1.50000000E+00
					 5.00000000E-01	 2.50000000E-01	 2.00000000E+00
					-7.45058000E-09	 5.00000000E-01	 2.00000000E+00
					-7.45058000E-09	 1.00000000E+00	 2.00000000E+00
					 2.50000000E-01	 5.00000000E-01	 2.00000000E+00
					 2.50000000E-01	 1.00000000E+00	 2.00000000E+00
					-7.45058000E-09	 5.00000000E-01	 1.50000000E+00
					-7.45058000E-09	 7.50000000E-01	 2.00000000E+00
					-7.45058000E-09	 1.00000000E+00	 1.50000000E+00
					-7.45058000E-09	-1.49012000E-08	 2.00000000E+00
					 2.50000000E-01	-1.49012000E-08	 2.00000000E+00
					-7.45058000E-09	-1.49012000E-08	 1.50000000E+00
					-7.45058000E-09	 2.50000000E-01	 2.00000000E+00
					 1.00000000E+00	 5.00000000E-01	 3.00000000E+00
					 1.00000000E+00	 1.00000000E+00	 3.00000000E+00
					 5.00000000E-01	 5.00000000E-01	 3.00000000E+00
					 5.00000000E-01	 1.00000000E+00	 3.00000000E+00
					 1.00000000E+00	 5.00000000E-01	 2.50000000E+00
					 1.00000000E+00	 7.50000000E-01	 3.00000000E+00
					 1.00000000E+00	 1.00000000E+00	 2.50000000E+00
					 7.50000000E-01	 5.00000000E-01	 3.00000000E+00
					 7.50000000E-01	 1.00000000E+00	 3.00000000E+00
					 5.00000000E-01	 5.00000000E-01	 2.50000000E+00
					 5.00000000E-01	 7.50000000E-01	 3.00000000E+00
					 5.00000000E-01	 1.00000000E+00	 2.50000000E+00
					 1.00000000E+00	-1.49012000E-08	 3.00000000E+00
					 5.00000000E-01	-1.49012000E-08	 3.00000000E+00
					 1.00000000E+00	-1.49012000E-08	 2.50000000E+00
					 1.00000000E+00	 2.50000000E-01	 3.00000000E+00
					 7.50000000E-01	-1.49012000E-08	 3.00000000E+00
					 5.00000000E-01	-1.49012000E-08	 2.50000000E+00
					 5.00000000E-01	 2.50000000E-01	 3.00000000E+00
					-7.45058000E-09	 5.00000000E-01	 3.00000000E+00
					-7.45058000E-09	 1.00000000E+00	 3.00000000E+00
					 2.50000000E-01	 5.00000000E-01	 3.00000000E+00
					 2.50000000E-01	 1.00000000E+00	 3.00000000E+00
					-7.45058000E-09	 5.00000000E-01	 2.50000000E+00
					-7.45058000E-09	 7.50000000E-01	 3.00000000E+00
					-7.45058000E-09	 1.00000000E+00	 2.50000000E+00
					-7.45058000E-09	-1.49012000E-08	 3.00000000E+00
					 2.50000000E-01	-1.49012000E-08	 3.00000000E+00
					-7.45058000E-09	-1.49012000E-08	 2.50000000E+00
					-7.45058000E-09	 2.50000000E-01	 3.00000000E+00
					 1.00000000E+00	 5.00000000E-01	 4.00000000E+00
					 1.00000000E+00	 1.00000000E+00	 4.00000000E+00
					 5.00000000E-01	 5.00000000E-01	 4.00000000E+00
					 5.00000000E-01	 1.00000000E+00	 4.00000000E+00
					 1.00000000E+00	 5.00000000E-01	 3.50000000E+00
					 1.00000000E+00	 7.50000000E-01	 4.00000000E+00
					 1.00000000E+00	 1.00000000E+00	 3.50000000E+00
					 7.50000000E-01	 5.00000000E-01	 4.00000000E+00
					 7.50000000E-01	 1.00000000E+00	 4.00000000E+00
					 5.00000000E-01	 5.00000000E-01	 3.50000000E+00
					 5.00000000E-01	 7.50000000E-01	 4.00000000E+00
					 5.00000000E-01	 1.00000000E+00	 3.50000000E+00
					 1.00000000E+00	-1.49012000E-08	 4.00000000E+00
					 5.00000000E-01	-1.49012000E-08	 4.00000000E+00
					 1.00000000E+00	-1.49012000E-08	 3.50000000E+00
					 1.00000000E+00	 2.50000000E-01	 4.00000000E+00
					 7.50000000E-01	-1.49012000E-08	 4.00000000E+00
					 5.00000000E-01	-1.49012000E-08	 3.50000000E+00
					 5.00000000E-01	 2.50000000E-01	 4.00000000E+00
					-7.45058000E-09	 5.00000000E-01	 4.00000000E+00
					-7.45058000E-09	 1.00000000E+00	 4.00000000E+00
					 2.50000000E-01	 5.00000000E-01	 4.00000000E+00
					 2.50000000E-01	 1.00000000E+00	 4.00000000E+00
					-7.45058000E-09	 5.00000000E-01	 3.50000000E+00
					-7.45058000E-09	 7.50000000E-01	 4.00000000E+00
					-7.45058000E-09	 1.00000000E+00	 3.50000000E+00
					-7.45058000E-09	-1.49012000E-08	 4.00000000E+00
					 2.50000000E-01	-1.49012000E-08	 4.00000000E+00
					-7.45058000E-09	-1.49012000E-08	 3.50000000E+00
					-7.45058000E-09	 2.50000000E-01	 4.00000000E+00
					 1.00000000E+00	 5.00000000E-01	 5.00000000E+00
					 1.00000000E+00	 1.00000000E+00	 5.00000000E+00
					 5.00000000E-01	 5.00000000E-01	 5.00000000E+00
					 5.00000000E-01	 1.00000000E+00	 5.00000000E+00
					 1.00000000E+00	 5.00000000E-01	 4.50000000E+00
					 1.00000000E+00	 7.50000000E-01	 5.00000000E+00
					 1.00000000E+00	 1.00000000E+00	 4.50000000E+00
					 7.50000000E-01	 5.00000000E-01	 5.00000000E+00
					 7.50000000E-01	 1.00000000E+00	 5.00000000E+00
					 5.00000000E-01	 5.00000000E-01	 4.50000000E+00
					 5.00000000E-01	 7.50000000E-01	 5.00000000E+00
					 5.00000000E-01	 1.00000000E+00	 4.50000000E+00
					 1.00000000E+00	-1.49012000E-08	 5.00000000E+00
					 5.00000000E-01	-1.49012000E-08	 5.00000000E+00
					 1.00000000E+00	-1.49012000E-08	 4.50000000E+00
					 1.00000000E+00	 2.50000000E-01	 5.00000000E+00
					 7.50000000E-01	-1.49012000E-08	 5.00000000E+00
					 5.00000000E-01	-1.49012000E-08	 4.50000000E+00
					 5.00000000E-01	 2.50000000E-01	 5.00000000E+00
					-7.45058000E-09	 5.00000000E-01	 5.00000000E+00
					-7.45058000E-09	 1.00000000E+00	 5.00000000E+00
					 2.50000000E-01	 5.00000000E-01	 5.00000000E+00
					 2.50000000E-01	 1.00000000E+00	 5.00000000E+00
					-7.45058000E-09	 5.00000000E-01	 4.50000000E+00
					-7.45058000E-09	 7.50000000E-01	 5.00000000E+00
					-7.45058000E-09	 1.00000000E+00	 4.50000000E+00
					-7.45058000E-09	-1.49012000E-08	 5.00000000E+00
					 2.50000000E-01	-1.49012000E-08	 5.00000000E+00
					-7.45058000E-09	-1.49012000E-08	 4.50000000E+00
					-7.45058000E-09	 2.50000000E-01	 5.00000000E+00
					 1.00000000E+00	 5.00000000E-01	 6.00000000E+00
					 1.00000000E+00	 1.00000000E+00	 6.00000000E+00
					 5.00000000E-01	 5.00000000E-01	 6.00000000E+00
					 5.00000000E-01	 1.00000000E+00	 6.00000000E+00
					 1.00000000E+00	 5.00000000E-01	 5.50000000E+00
					 1.00000000E+00	 7.50000000E-01	 6.00000000E+00
					 1.00000000E+00	 1.00000000E+00	 5.50000000E+00
					 7.50000000E-01	 5.00000000E-01	 6.00000000E+00
					 7.50000000E-01	 1.00000000E+00	 6.00000000E+00
					 5.00000000E-01	 5.00000000E-01	 5.50000000E+00
					 5.00000000E-01	 7.50000000E-01	 6.00000000E+00
					 5.00000000E-01	 1.00000000E+00	 5.50000000E+00
					 1.00000000E+00	-1.49012000E-08	 6.00000000E+00
[...]
			<PointData>
				<DataArray type="Float32" Name="U" NumberOfComponents="3" ComponentName0="D1" ComponentName1="D2" ComponentName2="D3" format="ascii">
					 0.00000000E+00	 0.00000000E+00	 0.00000000E+00
					 0.00000000E+00	 0.00000000E+00	 0.00000000E+00
					 4.32036000E-05	 2.40344000E-03	 3.34343000E-05
					-3.18056000E-04	 2.71488000E-03	-2.09289000E-03
					 0.00000000E+00	 0.00000000E+00	 0.00000000E+00
					 0.00000000E+00	 0.00000000E+00	 0.00000000E+00
					 3.77789000E-05	 2.03231000E-03	 1.91133000E-05
					-6.40249000E-04	 2.12633000E-03	-2.08813000E-03
					 0.00000000E+00	 0.00000000E+00	 0.00000000E+00
					 1.48640000E-05	 6.48815000E-04	 3.31710000E-05
					-9.20078000E-05	 2.49957000E-03	-1.03049000E-03
					-7.06250000E-05	 8.69730000E-04	-9.30364000E-04
					 0.00000000E+00	 0.00000000E+00	 0.00000000E+00
					 0.00000000E+00	 0.00000000E+00	 0.00000000E+00
					 4.74999000E-05	 2.26714000E-03	 1.02296000E-05
					-4.66085000E-04	 2.43340000E-03	-2.13705000E-03
					 0.00000000E+00	 0.00000000E+00	 0.00000000E+00
					 1.94931000E-05	 4.32314000E-04	 2.31785000E-05
					-2.89349000E-04	 2.02670000E-03	-1.02405000E-03
					-3.72095000E-04	 5.91637000E-04	-9.56435000E-04
					 0.00000000E+00	 0.00000000E+00	 0.00000000E+00
					 4.06786000E-04	 2.68965000E-03	 2.10240000E-03
					 0.00000000E+00	 0.00000000E+00	 0.00000000E+00
					 6.46692000E-04	 2.17617000E-03	 2.19306000E-03
					 0.00000000E+00	 0.00000000E+00	 0.00000000E+00
					 6.57479000E-05	 8.51674000E-04	 9.95400000E-04
					 1.88394000E-04	 2.47691000E-03	 1.04385000E-03
					 0.00000000E+00	 0.00000000E+00	 0.00000000E+00
					 5.09796000E-04	 2.43360000E-03	 2.16546000E-03
					 0.00000000E+00	 0.00000000E+00	 0.00000000E+00
					 3.73807000E-04	 6.36782000E-04	 1.00951000E-03
					 3.25223000E-04	 2.05514000E-03	 1.10139000E-03
					 0.00000000E+00	 0.00000000E+00	 0.00000000E+00
					 0.00000000E+00	 0.00000000E+00	 0.00000000E+00
					-3.89646000E-05	 1.18382000E-03	 3.81010000E-05
					-1.05424000E-03	 1.29750000E-03	-2.05459000E-03
					 0.00000000E+00	 0.00000000E+00	 0.00000000E+00
					 0.00000000E+00	 0.00000000E+00	 0.00000000E+00
					-1.04149000E-05	 1.68204000E-03	 1.84951000E-05
					-8.40499000E-04	 1.79892000E-03	-2.03280000E-03
					 0.00000000E+00	 0.00000000E+00	 0.00000000E+00
					 2.27239000E-05	-6.07335000E-05	 4.96796000E-05
					-5.14087000E-04	 1.19580000E-03	-1.05838000E-03
					-6.97541000E-04	 9.53337000E-05	-1.00780000E-03
					 0.00000000E+00	 0.00000000E+00	 0.00000000E+00
					 9.75053000E-04	 1.32045000E-03	 2.14988000E-03
					 0.00000000E+00	 0.00000000E+00	 0.00000000E+00
					 8.12703000E-04	 1.80594000E-03	 2.12193000E-03
					 0.00000000E+00	 0.00000000E+00	 0.00000000E+00
					 6.73585000E-04	 1.77186000E-04	 1.03580000E-03
					 4.52915000E-04	 1.20071000E-03	 1.12172000E-03
					 9.99968000E-06	 8.81175000E-03	-1.01861000E-04
					-2.26484000E-04	 9.09694000E-03	-4.39047000E-03
					-1.16510000E-06	 8.61034000E-03	-8.35154000E-05
					-4.18835000E-04	 8.70007000E-03	-4.41495000E-03
					 1.24905000E-05	 5.12979000E-03	-3.47381000E-05
					-7.05326000E-05	 8.91181000E-03	-2.21140000E-03
					-2.88917000E-04	 5.37327000E-03	-3.28277000E-03
					 7.65392000E-06	 8.76571000E-03	-8.48745000E-05
					-3.19450000E-04	 8.90536000E-03	-4.36514000E-03
					-2.21948000E-06	 4.73059000E-03	-2.70747000E-05
					-2.04946000E-04	 8.61643000E-03	-2.20806000E-03
					-5.49530000E-04	 4.87451000E-03	-3.30353000E-03
					-3.94466000E-05	 8.90507000E-03	 4.22459000E-03
					 3.84308000E-04	 8.79442000E-03	 4.28788000E-03
					 2.10437000E-04	 5.29737000E-03	 3.21737000E-03
					 2.40768000E-05	 8.82716000E-03	 2.09887000E-03
					 1.74379000E-04	 8.91298000E-03	 4.22191000E-03
					 5.33624000E-04	 4.93476000E-03	 3.25187000E-03
					 1.94537000E-04	 8.67270000E-03	 2.07464000E-03
					 9.08579000E-06	 8.06250000E-03	 6.53119000E-06
					-6.04500000E-04	 8.22114000E-03	-4.29670000E-03
					 4.14572000E-07	 8.35010000E-03	-2.18378000E-05
					-5.05587000E-04	 8.48572000E-03	-4.38778000E-03
					 2.04309000E-06	 4.04970000E-03	 1.70079000E-05
					-3.34555000E-04	 8.10624000E-03	-2.08985000E-03
					-8.94766000E-04	 4.17069000E-03	-3.21131000E-03
					 7.30358000E-04	 8.15305000E-03	 4.27189000E-03
					 5.49785000E-04	 8.51792000E-03	 4.33690000E-03
					 8.96561000E-04	 4.17567000E-03	 3.23904000E-03
					 3.43891000E-04	 8.07744000E-03	 2.08645000E-03
					-4.77641000E-05	 1.89620000E-02	-2.82350000E-05
					 2.60408000E-04	 1.89471000E-02	-5.99236000E-03
					-2.54294000E-05	 1.91299000E-02	 3.46154000E-05
					 8.98667000E-05	 1.91713000E-02	-5.93974000E-03
					-7.09285000E-05	 1.34737000E-02	-6.06645000E-05
					 8.51502000E-05	 1.89400000E-02	-3.05395000E-03
					 3.08509000E-05	 1.35523000E-02	-5.28043000E-03
					-3.38390000E-05	 1.90602000E-02	-1.68229000E-05
					 1.67788000E-04	 1.91203000E-02	-5.89842000E-03
					-3.54425000E-05	 1.34615000E-02	-7.64750000E-06
					 6.37277000E-06	 1.91200000E-02	-2.96229000E-03
					-1.63844000E-04	 1.35549000E-02	-5.23940000E-03
					-3.83732000E-04	 1.90672000E-02	 5.85020000E-03
					-1.67074000E-04	 1.92490000E-02	 5.94479000E-03
					-1.54480000E-04	 1.36329000E-02	 5.13002000E-03
					-2.26243000E-04	 1.89911000E-02	 2.94890000E-03
					-2.73579000E-04	 1.91786000E-02	 5.87150000E-03
					 1.07728000E-04	 1.36331000E-02	 5.17578000E-03
					-8.92871000E-05	 1.91604000E-02	 2.96330000E-03
					-8.77445000E-06	 1.91087000E-02	 4.67254000E-05
					-1.22006000E-04	 1.92379000E-02	-5.91234000E-03
					-1.48115000E-05	 1.91575000E-02	 2.15004000E-05
					-1.77237000E-05	 1.92477000E-02	-5.96530000E-03
					-1.18816000E-05	 1.32134000E-02	-1.08300000E-05
					-4.57113000E-05	 1.91472000E-02	-2.89559000E-03
					-3.76402000E-04	 1.32878000E-02	-5.15916000E-03
					 3.53628000E-05	 1.93484000E-02	 5.94774000E-03
					-5.89474000E-05	 1.93282000E-02	 5.98152000E-03
					 3.69219000E-04	 1.33515000E-02	 5.16649000E-03
					 3.25829000E-05	 1.91975000E-02	 2.94185000E-03
					-6.24087000E-05	 3.22198000E-02	-2.02441000E-05
					 5.14371000E-04	 3.21738000E-02	-7.21685000E-03
					-6.19817000E-05	 3.26364000E-02	-1.29248000E-04
					 2.72030000E-04	 3.26525000E-02	-7.31099000E-03
					-8.30216000E-06	 2.51570000E-02	-2.70146000E-05
					 1.87057000E-04	 3.21959000E-02	-3.55552000E-03
					 5.76173000E-04	 2.51061000E-02	-6.65971000E-03
					-5.78560000E-05	 3.24603000E-02	-7.80877000E-05
					 3.83805000E-04	 3.24695000E-02	-7.28698000E-03
					 5.50048000E-06	 2.55757000E-02	-3.87321000E-05
					 1.14453000E-04	 3.26266000E-02	-3.68047000E-03
					 2.91816000E-04	 2.56103000E-02	-6.66878000E-03
					-5.96501000E-04	 3.23168000E-02	 7.12649000E-03
					-3.84824000E-04	 3.27844000E-02	 7.06872000E-03
					-5.31316000E-04	 2.52399000E-02	 6.57680000E-03
					-2.74968000E-04	 3.22614000E-02	 3.48541000E-03
					-4.84445000E-04	 3.26285000E-02	 7.10359000E-03
					-2.88856000E-04	 2.57007000E-02	 6.56758000E-03
					-2.28742000E-04	 3.26917000E-02	 3.46070000E-03
					-5.50339000E-05	 3.29076000E-02	-1.82411000E-04
					 8.11552000E-05	 3.28757000E-02	-7.35104000E-03
					-5.94631000E-05	 3.27855000E-02	-1.46154000E-04
					 1.81707000E-04	 3.27992000E-02	-7.32695000E-03
					-3.19241000E-05	 2.57204000E-02	-7.18281000E-05
					 3.03602000E-05	 3.28853000E-02	-3.69461000E-03
					 4.14686000E-05	 2.57432000E-02	-6.71566000E-03
					-2.56941000E-04	 3.30855000E-02	 6.99771000E-03
					-3.14339000E-04	 3.29569000E-02	 7.03276000E-03
					-9.93993000E-05	 2.58326000E-02	 6.57365000E-03
					-1.59889000E-04	 3.29876000E-02	 3.36953000E-03
					-8.41426000E-06	 4.79655000E-02	-1.75576000E-04
					-1.07688000E-04	 4.79700000E-02	-7.56293000E-03
					-3.86221000E-05	 4.80185000E-02	-1.95962000E-04
					 5.08757000E-05	 4.79148000E-02	-7.54139000E-03
					-6.29098000E-05	 4.00566000E-02	-1.29942000E-04
					-3.71590000E-05	 4.79773000E-02	-3.79817000E-03
					 1.79381000E-04	 4.00367000E-02	-7.54685000E-03
					-1.71583000E-05	 4.79666000E-02	-1.62739000E-04
					-3.23995000E-05	 4.78723000E-02	-7.61768000E-03
					-7.09781000E-05	 4.02871000E-02	-1.50523000E-04
					 1.32639000E-05	 4.79695000E-02	-3.84816000E-03
					 1.39257000E-04	 4.02578000E-02	-7.59941000E-03
					-9.26649000E-05	 4.79511000E-02	 7.20818000E-03
					-1.30249000E-04	 4.80020000E-02	 7.21870000E-03
					-3.57358000E-04	 4.00708000E-02	 7.32879000E-03
					-7.14856000E-05	 4.79538000E-02	 3.45836000E-03
					-1.20325000E-04	 4.79577000E-02	 7.24759000E-03
					-2.70843000E-04	 4.03642000E-02	 7.31450000E-03
					-8.05577000E-05	 4.80304000E-02	 3.45194000E-03
					-2.60787000E-05	 4.81072000E-02	-1.80766000E-04
					 2.32138000E-04	 4.82172000E-02	-7.59228000E-03
					-3.85174000E-05	 4.80597000E-02	-1.79135000E-04
					 1.27995000E-04	 4.79893000E-02	-7.55762000E-03
					-4.87157000E-05	 4.04689000E-02	-1.59832000E-04
					 4.97323000E-05	 4.81669000E-02	-3.87436000E-03
					 1.60178000E-04	 4.04455000E-02	-7.62881000E-03
					-1.25216000E-04	 4.81429000E-02	 7.16151000E-03
					-1.21853000E-04	 4.80356000E-02	 7.18283000E-03
					-2.31120000E-04	 4.05621000E-02	 7.23674000E-03
					-7.58339000E-05	 4.81160000E-02	 3.49157000E-03
					-1.28140000E-04	 6.27216000E-02	-3.23337000E-04
					-5.28290000E-04	 6.26236000E-02	-7.19324000E-03
					-9.55208000E-05	 6.23402000E-02	-2.27670000E-04
					-5.03831000E-04	 6.22612000E-02	-7.09657000E-03
					-7.77842000E-05	 5.55421000E-02	-2.53649000E-04
					-3.13691000E-04	 6.26583000E-02	-3.74446000E-03
					-3.96034000E-04	 5.55137000E-02	-7.34238000E-03
					-1.27821000E-04	 6.25384000E-02	-2.95232000E-04
					-4.97095000E-04	 6.24332000E-02	-7.16561000E-03
					-9.33922000E-05	 5.53233000E-02	-2.20900000E-04
					-3.14012000E-04	 6.23111000E-02	-3.69277000E-03
					-2.72469000E-04	 5.52436000E-02	-7.31319000E-03
					 5.18621000E-04	 6.29020000E-02	 6.53897000E-03
					 3.03903000E-04	 6.23736000E-02	 6.58908000E-03
					 2.02425000E-04	 5.56302000E-02	 6.88664000E-03
					 1.61259000E-04	 6.28208000E-02	 3.11452000E-03
					 4.11988000E-04	 6.25775000E-02	 6.59850000E-03
					 7.43977000E-05	 5.53620000E-02	 6.93042000E-03
					 1.03744000E-04	 6.23503000E-02	 3.22003000E-03
					-5.83537000E-05	 6.19458000E-02	-1.73596000E-04
					-5.73939000E-04	 6.17311000E-02	-7.03052000E-03
					-6.28721000E-05	 6.21120000E-02	-2.15697000E-04
					-5.29685000E-04	 6.20420000E-02	-7.03492000E-03
					-1.01923000E-04	 5.52199000E-02	-2.13664000E-04
					-2.65827000E-04	 6.18331000E-02	-3.71104000E-03
					-1.69888000E-04	 5.51198000E-02	-7.30202000E-03
					 1.17241000E-04	 6.20064000E-02	 6.69543000E-03
					 2.01340000E-04	 6.21699000E-02	 6.58777000E-03
					-8.60656000E-06	 5.53018000E-02	 6.93081000E-03
					 4.20250000E-05	 6.19919000E-02	 3.29851000E-03
					-1.11957000E-04	 7.66841000E-02	-3.72896000E-04
					-8.14717000E-04	 7.67059000E-02	-7.28924000E-03
					-9.57895000E-05	 7.58400000E-02	-4.16112000E-04
					-9.63196000E-04	 7.57692000E-02	-7.42901000E-03
					-2.13131000E-05	 6.96690000E-02	-2.92606000E-04
					-4.91229000E-04	 7.67044000E-02	-3.85635000E-03
					-6.77443000E-04	 6.96459000E-02	-7.20437000E-03
					-9.29106000E-05	 7.62504000E-02	-4.09574000E-04
					-8.88248000E-04	 7.62387000E-02	-7.38952000E-03
					-4.07488000E-05	 6.90579000E-02	-3.26298000E-04
					-5.28641000E-04	 7.57982000E-02	-3.89172000E-03
					-6.74888000E-04	 6.90286000E-02	-7.19812000E-03
					 6.61044000E-04	 7.66634000E-02	 6.57656000E-03
					 7.27026000E-04	 7.58500000E-02	 6.52597000E-03
					 5.29534000E-04	 6.97143000E-02	 6.44862000E-03
					 2.79973000E-04	 7.66610000E-02	 3.06174000E-03
					 7.10650000E-04	 7.63002000E-02	 6.63973000E-03
					 5.67687000E-04	 6.90795000E-02	 6.48605000E-03
					 3.19356000E-04	 7.58463000E-02	 3.04324000E-03
					-8.84597000E-05	 7.49647000E-02	-5.01051000E-04
					-1.11434000E-03	 7.49776000E-02	-7.38087000E-03
					-1.01204000E-04	 7.54177000E-02	-4.51772000E-04
					-1.04754000E-03	 7.54012000E-02	-7.31638000E-03
					-8.18937000E-05	 6.84359000E-02	-2.82635000E-04
					-5.67036000E-04	 7.49902000E-02	-3.97961000E-03
					-7.55407000E-04	 6.83426000E-02	-7.18208000E-03
					 7.79526000E-04	 7.49711000E-02	 6.41653000E-03
					 7.53473000E-04	 7.54635000E-02	 6.47476000E-03
					 6.06551000E-04	 6.84069000E-02	 6.49887000E-03
					 3.24065000E-04	 7.49613000E-02	 2.99162000E-03
					-4.38445000E-04	 9.12837000E-02	-3.22705000E-04
					-1.20896000E-03	 9.16227000E-02	-8.22522000E-03
					-6.59151000E-05	 8.99805000E-02	-7.35675000E-04
					-1.08328000E-03	 9.00807000E-02	-7.85892000E-03
					-1.46798000E-04	 8.37812000E-02	-4.24121000E-04
					-7.68389000E-04	 9.14218000E-02	-4.13898000E-03
					-1.02980000E-03	 8.36822000E-02	-7.73784000E-03
					-2.69453000E-04	 9.06805000E-02	-5.38399000E-04
					-1.15485000E-03	 9.08747000E-02	-8.02668000E-03
					-1.53213000E-04	 8.28554000E-02	-5.39833000E-04
					-5.37605000E-04	 9.00490000E-02	-4.27866000E-03
					-1.15134000E-03	 8.28915000E-02	-7.69066000E-03
					 3.93480000E-04	 9.13474000E-02	 7.18166000E-03
					 7.07667000E-04	 8.97132000E-02	 6.44470000E-03
					 9.11196000E-04	 8.39439000E-02	 6.87094000E-03
					-6.39337000E-05	 9.13034000E-02	 3.39825000E-03
					 5.54150000E-04	 9.05094000E-02	 6.64576000E-03
					 8.59953000E-04	 8.28846000E-02	 6.48696000E-03
					 2.95417000E-04	 8.98193000E-02	 2.92854000E-03
					 4.08845000E-04	 8.87151000E-02	-1.41727000E-04
					-7.54812000E-04	 8.86596000E-02	-7.17339000E-03
					 1.85989000E-04	 8.93296000E-02	-5.04559000E-04
					-9.28527000E-04	 8.94381000E-02	-7.64772000E-03
					-1.28111000E-04	 8.18788000E-02	-4.70607000E-04
					-1.34822000E-04	 8.86708000E-02	-3.61811000E-03
					-1.32359000E-03	 8.16270000E-02	-7.31164000E-03
					 7.01443000E-04	 8.89905000E-02	 6.31164000E-03
					 7.23298000E-04	 8.92243000E-02	 6.30431000E-03
					 7.39057000E-04	 8.20327000E-02	 6.42779000E-03
					 6.15927000E-04	 8.88751000E-02	 3.09928000E-03
					 0.00000000E+00	 0.00000000E+00	 0.00000000E+00
					 0.00000000E+00	 0.00000000E+00	 0.00000000E+00
					 1.28588000E-04	-2.45056000E-03	-1.13039000E-04
					-8.87821000E-04	-2.82238000E-03	 2.91546000E-03
					 0.00000000E+00	 0.00000000E+00	 0.00000000E+00
					 0.00000000E+00	 0.00000000E+00	 0.00000000E+00
					 3.04394000E-05	-3.28677000E-03	-1.52948000E-04
					-4.40375000E-04	-3.50747000E-03	 3.07766000E-03
					 0.00000000E+00	 0.00000000E+00	 0.00000000E+00
					 8.42456000E-05	-4.08152000E-04	-3.47883000E-05
					-4.07954000E-04	-2.55312000E-03	 1.46669000E-03
					-6.07984000E-04	-6.60843000E-04	 1.39761000E-03
					 0.00000000E+00	 0.00000000E+00	 0.00000000E+00
					 0.00000000E+00	 0.00000000E+00	 0.00000000E+00
					 9.34409000E-05	-2.96204000E-03	-1.56857000E-04
					-6.77085000E-04	-3.20593000E-03	 2.93032000E-03
					 0.00000000E+00	 0.00000000E+00	 0.00000000E+00
					 3.66580000E-05	-7.85523000E-04	-5.54101000E-05
					-2.45965000E-04	-3.33519000E-03	 1.41684000E-03
					-1.39339000E-04	-1.07669000E-03	 1.47643000E-03
					 0.00000000E+00	 0.00000000E+00	 0.00000000E+00
					 1.00404000E-03	-2.82532000E-03	-3.26871000E-03
					 0.00000000E+00	 0.00000000E+00	 0.00000000E+00
					 4.75136000E-04	-3.39357000E-03	-3.23081000E-03
					 0.00000000E+00	 0.00000000E+00	 0.00000000E+00
					 6.25232000E-04	-7.73214000E-04	-1.54264000E-03
					 5.96728000E-04	-2.56117000E-03	-1.76971000E-03
					 0.00000000E+00	 0.00000000E+00	 0.00000000E+00
					 7.51989000E-04	-3.15124000E-03	-3.19367000E-03
					 0.00000000E+00	 0.00000000E+00	 0.00000000E+00
					 1.77324000E-04	-1.03366000E-03	-1.53627000E-03
					 2.63099000E-04	-3.25751000E-03	-1.64580000E-03
					 0.00000000E+00	 0.00000000E+00	 0.00000000E+00
					 0.00000000E+00	 0.00000000E+00	 0.00000000E+00
					-9.26956000E-05	-3.50312000E-03	-1.14166000E-04
					-1.01630000E-04	-3.63365000E-03	 2.95081000E-03
					 0.00000000E+00	 0.00000000E+00	 0.00000000E+00
					 0.00000000E+00	 0.00000000E+00	 0.00000000E+00
					-5.18017000E-05	-3.49839000E-03	-1.48381000E-04
					-2.60455000E-04	-3.59044000E-03	 3.06729000E-03
					 0.00000000E+00	 0.00000000E+00	 0.00000000E+00
					-1.48856000E-05	-7.31953000E-04	 5.74856000E-06
					-6.98899000E-05	-3.48869000E-03	 1.32958000E-03
					 2.56332000E-04	-1.06476000E-03	 1.47303000E-03
					 0.00000000E+00	 0.00000000E+00	 0.00000000E+00
					-9.63302000E-05	-3.74565000E-03	-3.20291000E-03
					 0.00000000E+00	 0.00000000E+00	 0.00000000E+00
					 1.92714000E-04	-3.68364000E-03	-3.26485000E-03
					 0.00000000E+00	 0.00000000E+00	 0.00000000E+00
					-3.28089000E-04	-9.92390000E-04	-1.62332000E-03
					-4.39497000E-05	-3.56784000E-03	-1.61918000E-03
					 4.31975000E-05	-1.08184000E-02	-3.89747000E-04
					-2.34537000E-03	-1.08337000E-02	 5.21982000E-03
					-3.61404000E-05	-1.28347000E-02	-4.62785000E-04
					-1.87965000E-03	-1.29392000E-02	 5.26901000E-03
					 3.28279000E-05	-6.07474000E-03	-2.35622000E-04
					-1.10606000E-03	-1.07953000E-02	 2.47902000E-03
					-1.51185000E-03	-6.22365000E-03	 4.23734000E-03
					 1.04592000E-05	-1.18542000E-02	-4.34666000E-04
					-2.11421000E-03	-1.19541000E-02	 5.15053000E-03
					 1.17386000E-06	-7.38692000E-03	-2.85699000E-04
					-9.46685000E-04	-1.28664000E-02	 2.35961000E-03
					-1.15788000E-03	-7.60644000E-03	 4.30061000E-03
					 1.94834000E-03	-1.11294000E-02	-6.07110000E-03
					 1.77283000E-03	-1.28534000E-02	-6.17150000E-03
					 1.52091000E-03	-6.32610000E-03	-4.79225000E-03
					 1.02216000E-03	-1.09366000E-02	-3.24359000E-03
					 1.85979000E-03	-1.19956000E-02	-6.01798000E-03
					 1.13580000E-03	-7.59242000E-03	-4.91688000E-03
					 8.81166000E-04	-1.28059000E-02	-3.22578000E-03
					-9.46912000E-05	-1.45739000E-02	-3.71422000E-04
					-1.52495000E-03	-1.44427000E-02	 5.23808000E-03
					-6.89905000E-05	-1.36961000E-02	-4.00310000E-04
					-1.71693000E-03	-1.38251000E-02	 5.40991000E-03
					-4.37807000E-05	-8.39045000E-03	-2.41185000E-04
					-8.73143000E-04	-1.44722000E-02	 2.25164000E-03
					-7.67580000E-04	-8.52115000E-03	 4.22733000E-03
					 1.73163000E-03	-1.48263000E-02	-6.08344000E-03
					 1.75932000E-03	-1.38220000E-02	-6.24295000E-03
					 7.15451000E-04	-8.54461000E-03	-4.75442000E-03
					 7.45500000E-04	-1.46573000E-02	-3.06049000E-03
					-1.05687000E-04	-2.25089000E-02	-6.10844000E-04
					-3.68267000E-03	-2.23913000E-02	 6.10070000E-03
					-5.51461000E-05	-2.60191000E-02	-5.47831000E-04
					-3.49703000E-03	-2.60543000E-02	 6.15740000E-03
					-1.27410000E-04	-1.64499000E-02	-4.94907000E-04
					-1.88494000E-03	-2.24457000E-02	 2.83735000E-03
					-2.90065000E-03	-1.65296000E-02	 5.85507000E-03
					-7.69108000E-05	-2.42636000E-02	-5.59266000E-04
					-3.58646000E-03	-2.42666000E-02	 6.02603000E-03
					-9.49086000E-05	-1.92060000E-02	-4.98057000E-04
					-1.79433000E-03	-2.60155000E-02	 2.72963000E-03
					-2.71998000E-03	-1.92963000E-02	 5.85727000E-03
					 3.25865000E-03	-2.24948000E-02	-7.24622000E-03
					 3.28173000E-03	-2.60437000E-02	-7.32105000E-03
					 2.71075000E-03	-1.65005000E-02	-6.84922000E-03
					 1.57084000E-03	-2.25167000E-02	-4.01250000E-03
					 3.26666000E-03	-2.42859000E-02	-7.16784000E-03
					 2.57290000E-03	-1.92756000E-02	-6.88863000E-03
					 1.57549000E-03	-2.60219000E-02	-3.93441000E-03
					 1.80559000E-05	-2.93851000E-02	-5.33404000E-04
					-3.64472000E-03	-2.98340000E-02	 6.04672000E-03
					-1.45084000E-05	-2.77292000E-02	-5.67471000E-04
					-3.55907000E-03	-2.78019000E-02	 6.25200000E-03
					-8.67096000E-05	-2.17592000E-02	-5.25074000E-04
					-1.71647000E-03	-2.96072000E-02	 2.57122000E-03
					-2.58518000E-03	-2.18650000E-02	 5.79274000E-03
					 3.19606000E-03	-2.95137000E-02	-7.34783000E-03
					 3.24301000E-03	-2.78203000E-02	-7.47553000E-03
					 2.40597000E-03	-2.17926000E-02	-6.87263000E-03
					 1.64474000E-03	-2.94662000E-02	-3.78644000E-03
					-1.57224000E-04	-3.54871000E-02	-6.20500000E-04
					-4.85583000E-03	-3.53082000E-02	 6.08027000E-03