<?xml version="1.0"?>
<VTKFile type="UnstructuredGrid" version="0.1" byte_order="LittleEndian">
	<UnstructuredGrid>
		<Piece NumberOfPoints="522" NumberOfCells="64">
			<Points>
				<DataArray type="Float64" NumberOfComponents="3" format="ascii">
					 1.00000000E+00	 1.00000000E+00	-5.96046000E-08
					 1.00000000E+00	 5.00000000E-01	-5.96046000E-08
					 1.00000000E+00	 5.00000000E-01	 1.00000000E+00
					 1.00000000E+00	 1.00000000E+00	 1.00000000E+00
					 5.00000000E-01	 1.00000000E+00	-5.96046000E-08
					 5.00000000E-01	 5.00000000E-01	-5.96046000E-08
					 5.00000000E-01	 5.00000000E-01	 1.00000000E+00
					 5.00000000E-01	 1.00000000E+00	 1.00000000E+00
					 1.00000000E+00	 7.50000000E-01	-5.96046000E-08
					 1.00000000E+00	 5.00000000E-01	 5.00000000E-01
					 1.00000000E+00	 7.50000000E-01	 1.00000000E+00
					 1.00000000E+00	 1.00000000E+00	 5.00000000E-01
					 7.50000000E-01	 1.00000000E+00	-5.96046000E-08
					 7.50000000E-01	 5.00000000E-01	-5.96046000E-08
					 7.50000000E-01	 5.00000000E-01	 1.00000000E+00
					 7.50000000E-01	 1.00000000E+00	 1.00000000E+00
					 5.00000000E-01	 7.50000000E-01	-5.96046000E-08
					 5.00000000E-01	 5.00000000E-01	 5.00000000E-01
					 5.00000000E-01	 7.50000000E-01	 1.00000000E+00
					 5.00000000E-01	 1.00000000E+00	 5.00000000E-01
					 1.00000000E+00	-1.49012000E-08	-5.96046000E-08
					 1.00000000E+00	-1.49012000E-08	 1.00000000E+00
					 5.00000000E-01	-1.49012000E-08	-5.96046000E-08
					 5.00000000E-01	-1.49012000E-08	 1.00000000E+00
					 1.00000000E+00	 2.50000000E-01	-5.96046000E-08
					 1.00000000E+00	-1.49012000E-08	 5.00000000E-01
					 1.00000000E+00	 2.50000000E-01	 1.00000000E+00
					 7.50000000E-01	-1.49012000E-08	-5.96046000E-08
					 7.50000000E-01	-1.49012000E-08	 1.00000000E+00
					 5.00000000E-01	 2.50000000E-01	-5.96046000E-08
					 5.00000000E-01	-1.49012000E-08	 5.00000000E-01
					 5.00000000E-01	 2.50000000E-01	 1.00000000E+00
					-7.45058000E-09	 1.00000000E+00	-5.96046000E-08
					-7.45058000E-09	 5.00000000E-01	-5.96046000E-08
					-7.45058000E-09	 5.00000000E-01	 1.00000000E+00
					-7.45058000E-09	 1.00000000E+00	 1.00000000E+00
					 2.50000000E-01	 1.00000000E+00	-5.96046000E-08
					 2.50000000E-01	 5.00000000E-01	-5.96046000E-08
					 2.50000000E-01	 5.00000000E-01	 1.00000000E+00
					 2.50000000E-01	 1.00000000E+00	 1.00000000E+00
					-7.45058000E-09	 7.50000000E-01	-5.96046000E-08
					-7.45058000E-09	 5.00000000E-01	 5.00000000E-01
					-7.45058000E-09	 7.50000000E-01	 1.00000000E+00
					-7.45058000E-09	 1.00000000E+00	 5.00000000E-01
					-7.45058000E-09	-1.49012000E-08	-5.96046000E-08
					-7.45058000E-09	-1.49012000E-08	 1.00000000E+00
					 2.50000000E-01	-1.49012000E-08	-5.96046000E-08
					 2.50000000E-01	-1.49012000E-08	 1.00000000E+00
					-7.45058000E-09	 2.50000000E-01	-5.96046000E-08
					-7.45058000E-09	-1.49012000E-08	 5.00000000E-01
					-7.45058000E-09	 2.50000000E-01	 1.00000000E+00
					 1.00000000E+00	 5.00000000E-01	 2.00000000E+00
					 1.00000000E+00	 1.00000000E+00	 2.00000000E+00
					 5.00000000E-01	 5.00000000E-01	 2.00000000E+00
					 5.00000000E-01	 1.00000000E+00	 2.00000000E+00
					 1.00000000E+00	 5.00000000E-01	 1.50000000E+00
					 1.00000000E+00	 7.50000000E-01	 2.00000000E+00
					 1.00000000E+00	 1.00000000E+00	 1.50000000E+00
					 7.50000000E-01	 5.00000000E-01	 2.00000000E+00
					 7.50000000E-01	 1.00000000E+00	 2.00000000E+00
					 5.00000000E-01	 5.00000000E-01	 1.50000000E+00
					 5.00000000E-01	 7.50000000E-01	 2.00000000E+00
					 5.00000000E-01	 1.00000000E+00	 1.50000000E+00
					 1.00000000E+00	-1.49012000E-08	 2.00000000E+00
					 5.00000000E-01	-1.49012000E-08	 2.00000000E+00
					 1.00000000E+00	-1.49012000E-08	 1.50000000E+00
					 1.00000000E+00	 2.50000000E-01	 2.00000000E+00
					 7.50000000E-01	-1.49012000E-08	 2.00000000E+00
					 5.00000000E-01	-1.49012000E-08	 1.50000000E+00
					 5.00000000E-01	 2.50000000E-01	 2.00000000E+00
					-7.45058000E-09	 5.00000000E-01	 2.00000000E+00
					-7.45058000E-09	 1.00000000E+00	 2.00000000E+00
					 2.50000000E-01	 5.00000000E-01	 2.00000000E+00
					 2.50000000E-01	 1.00000000E+00	 2.00000000E+00
					-7.45058000E-09	 5.00000000E-01	 1.50000000E+00
					-7.45058000E-09	 7.50000000E-01	 2.00000000E+00
					-7.45058000E-09	 1.00000000E+00	 1.50000000E+00
					-7.45058000E-09	-1.49012000E-08	 2.00000000E+00
					 2.50000000E-01	-1.49012000E-08	 2.00000000E+00
					-7.45058000E-09	-1.49012000E-08	 1.50000000E+00
					-7.45058000E-09	 2.50000000E-01	 2.00000000E+00
					 1.00000000E+00	 5.00000000E-01	 3.00000000E+00
					 1.00000000E+00	 1.00000000E+00	 3.00000000E+00
					 5.00000000E-01	 5.00000000E-01	 3.00000000E+00
					 5.00000000E-01	 1.00000000E+00	 3.00000000E+00
					 1.00000000E+00	 5.00000000E-01	 2.50000000E+00
					 1.00000000E+00	 7.50000000E-01	 3.00000000E+00
					 1.00000000E+00	 1.00000000E+00	 2.50000000E+00
					 7.50000000E-01	 5.00000000E-01	 3.00000000E+00
					 7.50000000E-01	 1.00000000E+00	 3.00000000E+00
					 5.00000000E-01	 5.00000000E-01	 2.50000000E+00
					 5.00000000E-01	 7.50000000E-01	 3.00000000E+00
					 5.00000000E-01	 1.00000000E+00	 2.50000000E+00
					 1.00000000E+00	-1.49012000E-08	 3.00000000E+00
					 5.00000000E-01	-1.49012000E-08	 3.00000000E+00
					 1.00000000E+00	-1.49012000E-08	 2.50000000E+00
					 1.00000000E+00	 2.50000000E-01	 3.00000000E+00
					 7.50000000E-01	-1.49012000E-08	 3.00000000E+00
					 5.00000000E-01	-1.49012000E-08	 2.50000000E+00
					 5.00000000E-01	 2.50000000E-01	 3.00000000E+00
					-7.45058000E-09	 5.00000000E-01	 3.00000000E+00
					-7.45058000E-09	 1.00000000E+00	 3.00000000E+00
					 2.50000000E-01	 5.00000000E-01	 3.00000000E+00
					 2.50000000E-01	 1.00000000E+00	 3.00000000E+00
					-7.45058000E-09	 5.00000000E-01	 2.50000000E+00
					-7.45058000E-09	 7.50000000E-01	 3.00000000E+00
					-7.45058000E-09	 1.00000000E+00	 2.50000000E+00
					-7.45058000E-09	-1.49012000E-08	 3.00000000E+00
					 2.50000000E-01	-1.49012000E-08	 3.00000000E+00
					-7.45058000E-09	-1.49012000E-08	 2.50000000E+00
					-7.45058000E-09	 2.50000000E-01	 3.00000000E+00
					 1.00000000E+00	 5.00000000E-01	 4.00000000E+00
					 1.00000000E+00	 1.00000000E+00	 4.00000000E+00
					 5.00000000E-01	 5.00000000E-01	 4.00000000E+00
					 5.00000000E-01	 1.00000000E+00	 4.00000000E+00
					 1.00000000E+00	 5.00000000E-01	 3.50000000E+00
					 1.00000000E+00	 7.50000000E-01	 4.00000000E+00
					 1.00000000E+00	 1.00000000E+00	 3.50000000E+00
					 7.50000000E-01	 5.00000000E-01	 4.00000000E+00
					 7.50000000E-01	 1.00000000E+00	 4.00000000E+00
					 5.00000000E-01	 5.00000000E-01	 3.50000000E+00
					 5.00000000E-01	 7.50000000E-01	 4.00000000E+00
					 5.00000000E-01	 1.00000000E+00	 3.50000000E+00
					 1.00000000E+00	-1.49012000E-08	 4.00000000E+00
					 5.00000000E-01	-1.49012000E-08	 4.00000000E+00
					 1.00000000E+00	-1.49012000E-08	 3.50000000E+00
					 1.00000000E+00	 2.50000000E-01	 4.00000000E+00
					 7.50000000E-01	-1.49012000E-08	 4.00000000E+00
					 5.00000000E-01	-1.49012000E-08	 3.50000000E+00
					 5.00000000E-01	 2.50000000E-01	 4.00000000E+00
					-7.45058000E-09	 5.00000000E-01	 4.00000000E+00
					-7.45058000E-09	 1.00000000E+00	 4.00000000E+00
					 2.50000000E-01	 5.00000000E-01	 4.00000000E+00
					 2.50000000E-01	 1.00000000E+00	 4.00000000E+00
					-7.45058000E-09	 5.00000000E-01	 3.50000000E+00
					-7.45058000E-09	 7.50000000E-01	 4.00000000E+00
					-7.45058000E-09	 1.00000000E+00	 3.50000000E+00
					-7.45058000E-09	-1.49012000E-08	 4.00000000E+00
					 2.50000000E-01	-1.49012000E-08	 4.00000000E+00
					-7.45058000E-09	-1.49012000E-08	 3.50000000E+00
					-7.45058000E-09	 2.50000000E-01	 4.00000000E+00
					 1.00000000E+00	 5.00000000E-01	 5.00000000E+00
					 1.00000000E+00	 1.00000000E+00	 5.00000000E+00
					 5.00000000E-01	 5.00000000E-01	 5.00000000E+00
					 5.00000000E-01	 1.00000000E+00	 5.00000000E+00
					 1.00000000E+00	 5.00000000E-01	 4.50000000E+00
					 1.00000000E+00	 7.50000000E-01	 5.00000000E+00
					 1.00000000E+00	 1.00000000E+00	 4.50000000E+00
					 7.50000000E-01	 5.00000000E-01	 5.00000000E+00
					 7.50000000E-01	 1.00000000E+00	 5.00000000E+00
					 5.00000000E-01	 5.00000000E-01	 4.50000000E+00
					 5.00000000E-01	 7.50000000E-01	 5.00000000E+00
					 5.00000000E-01	 1.00000000E+00	 4.50000000E+00
					 1.00000000E+00	-1.49012000E-08	 5.00000000E+00
					 5.00000000E-01	-1.49012000E-08	 5.00000000E+00
					 1.00000000E+00	-1.49012000E-08	 4.50000000E+00
					 1.00000000E+00	 2.50000000E-01	 5.00000000E+00
					 7.50000000E-01	-1.49012000E-08	 5.00000000E+00
					 5.00000000E-01	-1.49012000E-08	 4.50000000E+00
					 5.00000000E-01	 2.50000000E-01	 5.00000000E+00
					-7.45058000E-09	 5.00000000E-01	 5.00000000E+00
					-7.45058000E-09	 1.00000000E+00	 5.00000000E+00
					 2.50000000E-01	 5.00000000E-01	 5.00000000E+00
					 2.50000000E-01	 1.00000000E+00	 5.00000000E+00
					-7.45058000E-09	 5.00000000E-01	 4.50000000E+00
					-7.45058000E-09	 7.50000000E-01	 5.00000000E+00
					-7.45058000E-09	 1.00000000E+00	 4.50000000E+00
					-7.45058000E-09	-1.49012000E-08	 5.00000000E+00
					 2.50000000E-01	-1.49012000E-08	 5.00000000E+00
					-7.45058000E-09	-1.49012000E-08	 4.50000000E+00
					-7.45058000E-09	 2.50000000E-01	 5.00000000E+00
					 1.00000000E+00	 5.00000000E-01	 6.00000000E+00
					 1.00000000E+00	 1.00000000E+00	 6.00000000E+00
					 5.00000000E-01	 5.00000000E-01	 6.00000000E+00
					 5.00000000E-01	 1.00000000E+00	 6.00000000E+00
					 1.00000000E+00	 5.00000000E-01	 5.50000000E+00
					 1.00000000E+00	 7.50000000E-01	 6.00000000E+00
					 1.00000000E+00	 1.00000000E+00	 5.50000000E+00
					 7.50000000E-01	 5.00000000E-01	 6.00000000E+00
					 7.50000000E-01	 1.00000000E+00	 6.00000000E+00
					 5.00000000E-01	 5.00000000E-01	 5.50000000E+00
					 5.00000000E-01	 7.50000000E-01	 6.00000000E+00
					 5.00000000E-01	 1.00000000E+00	 5.50000000E+00
					 1.00000000E+00	-1.49012000E-08	 6.00000000E+00
[...]
			<PointData>
				<DataArray type="Float32" Name="U" NumberOfComponents="3" ComponentName0="D1" ComponentName1="D2" ComponentName2="D3" format="ascii">
					 0.00000000E+00	 0.00000000E+00	 0.00000000E+00
					 0.00000000E+00	 0.00000000E+00	 0.00000000E+00
					-2.17456000E-05	 2.99336000E-03	 4.08836000E-05
					 3.36311000E-04	 3.09609000E-03	-2.35753000E-03
					 0.00000000E+00	 0.00000000E+00	 0.00000000E+00
					 0.00000000E+00	 0.00000000E+00	 0.00000000E+00
					-1.52137000E-05	 3.23241000E-03	 3.17218000E-05
					 8.96140000E-05	 3.33574000E-03	-2.39676000E-03
					 0.00000000E+00	 0.00000000E+00	 0.00000000E+00
					-1.30145000E-05	 9.02639000E-04	 2.18196000E-05
					 1.60139000E-04	 2.99649000E-03	-1.13804000E-03
					 3.43023000E-04	 1.10017000E-03	-1.28522000E-03
					 0.00000000E+00	 0.00000000E+00	 0.00000000E+00
					 0.00000000E+00	 0.00000000E+00	 0.00000000E+00
					-1.83397000E-05	 3.16094000E-03	 3.57173000E-05
					 2.10921000E-04	 3.26080000E-03	-2.35669000E-03
					 0.00000000E+00	 0.00000000E+00	 0.00000000E+00
					-6.53769000E-06	 1.05906000E-03	 1.48058000E-05
					 3.65047000E-05	 3.23399000E-03	-1.13834000E-03
					-7.65356000E-06	 1.25540000E-03	-1.26517000E-03
					 0.00000000E+00	 0.00000000E+00	 0.00000000E+00
					-3.79956000E-04	 3.11967000E-03	 2.43660000E-03
					 0.00000000E+00	 0.00000000E+00	 0.00000000E+00
					-1.20695000E-04	 3.35997000E-03	 2.45768000E-03
					 0.00000000E+00	 0.00000000E+00	 0.00000000E+00
					-3.68679000E-04	 1.11868000E-03	 1.32919000E-03
					-2.03736000E-04	 3.00783000E-03	 1.21870000E-03
					 0.00000000E+00	 0.00000000E+00	 0.00000000E+00
					-2.47890000E-04	 3.28460000E-03	 2.42555000E-03
					 0.00000000E+00	 0.00000000E+00	 0.00000000E+00
					-5.30899000E-06	 1.27165000E-03	 1.29557000E-03
					-6.73026000E-05	 3.24560000E-03	 1.20075000E-03
					 0.00000000E+00	 0.00000000E+00	 0.00000000E+00
					 0.00000000E+00	 0.00000000E+00	 0.00000000E+00
					-9.03530000E-06	 3.20307000E-03	 2.43229000E-05
					-1.68544000E-04	 3.29374000E-03	-2.37320000E-03
					 0.00000000E+00	 0.00000000E+00	 0.00000000E+00
					 0.00000000E+00	 0.00000000E+00	 0.00000000E+00
					-1.19151000E-05	 3.26400000E-03	 2.78279000E-05
					-3.79793000E-05	 3.36225000E-03	-2.41287000E-03
					 0.00000000E+00	 0.00000000E+00	 0.00000000E+00
					-1.70351000E-06	 9.00173000E-04	 1.13419000E-05
					-8.86032000E-05	 3.19929000E-03	-1.10539000E-03
					-3.70552000E-04	 1.08825000E-03	-1.29513000E-03
					 0.00000000E+00	 0.00000000E+00	 0.00000000E+00
					 1.49744000E-04	 3.31821000E-03	 2.42003000E-03
					 0.00000000E+00	 0.00000000E+00	 0.00000000E+00
					 1.31627000E-05	 3.38675000E-03	 2.46628000E-03
					 0.00000000E+00	 0.00000000E+00	 0.00000000E+00
					 3.67388000E-04	 1.10350000E-03	 1.31858000E-03
					 7.01837000E-05	 3.21116000E-03	 1.15330000E-03
					-4.00410000E-05	 8.97865000E-03	 6.62223000E-05
					 9.41583000E-04	 9.09578000E-03	-4.10755000E-03
					-3.20807000E-05	 9.81677000E-03	 5.13598000E-05
					 6.63512000E-04	 9.93397000E-03	-4.11741000E-03
					-3.04331000E-05	 5.64232000E-03	 5.51198000E-05
					 4.51850000E-04	 9.00547000E-03	-2.09443000E-03
					 5.77455000E-04	 5.78412000E-03	-3.22817000E-03
					-3.61679000E-05	 9.43049000E-03	 5.84320000E-05
					 8.03040000E-04	 9.54724000E-03	-4.05212000E-03
					-2.31932000E-05	 6.13105000E-03	 4.33632000E-05
					 3.15657000E-04	 9.84475000E-03	-2.04830000E-03
					 3.30481000E-04	 6.26098000E-03	-3.23826000E-03
					-1.02107000E-03	 9.14703000E-03	 4.23908000E-03
					-7.27001000E-04	 9.98371000E-03	 4.21949000E-03
					-6.38667000E-04	 5.81883000E-03	 3.33676000E-03
					-5.31829000E-04	 9.03211000E-03	 2.22657000E-03
					-8.74590000E-04	 9.59678000E-03	 4.16853000E-03
					-3.76929000E-04	 6.29493000E-03	 3.32338000E-03
					-3.79622000E-04	 9.86964000E-03	 2.15097000E-03
					-2.45226000E-05	 1.03684000E-02	 3.86102000E-05
					 3.80567000E-04	 1.04819000E-02	-4.13503000E-03
					-2.81709000E-05	 1.01249000E-02	 4.48392000E-05
					 5.21505000E-04	 1.02397000E-02	-4.17678000E-03
					-1.66351000E-05	 6.34884000E-03	 3.39677000E-05
					 1.77362000E-04	 1.03943000E-02	-2.01092000E-03
					 6.92560000E-05	 6.47711000E-03	-3.24910000E-03
					-4.28931000E-04	 1.05310000E-02	 4.21170000E-03
					-5.77286000E-04	 1.02899000E-02	 4.26551000E-03
					-1.02257000E-04	 6.51114000E-03	 3.31536000E-03
					-2.26140000E-04	 1.04179000E-02	 2.08835000E-03
					-5.13874000E-05	 1.86875000E-02	 6.60858000E-05
					 1.62262000E-03	 1.87787000E-02	-6.13228000E-03
					-4.27718000E-05	 2.02125000E-02	 4.52255000E-05
					 1.34122000E-03	 2.03071000E-02	-6.16264000E-03
					-4.77601000E-05	 1.32603000E-02	 7.07193000E-05
					 7.83581000E-04	 1.86926000E-02	-3.05482000E-03
					 1.31196000E-03	 1.33641000E-02	-5.11310000E-03
					-4.67754000E-05	 1.94883000E-02	 5.55136000E-05
					 1.48201000E-03	 1.95832000E-02	-6.10747000E-03
					-3.97148000E-05	 1.44610000E-02	 5.31481000E-05
					 6.49012000E-04	 2.02189000E-02	-3.03899000E-03
					 1.01009000E-03	 1.45702000E-02	-5.13054000E-03
					-1.72660000E-03	 1.88793000E-02	 6.26188000E-03
					-1.42554000E-03	 2.04077000E-02	 6.25044000E-03
					-1.40775000E-03	 1.34377000E-02	 5.25377000E-03
					-8.86832000E-04	 1.87441000E-02	 3.18642000E-03
					-1.57564000E-03	 1.96832000E-02	 6.21593000E-03
					-1.08847000E-03	 1.46429000E-02	 5.23603000E-03
					-7.34177000E-04	 2.02695000E-02	 3.12891000E-03
					-3.45869000E-05	 2.14542000E-02	 2.73307000E-05
					 1.05558000E-03	 2.15436000E-02	-6.17091000E-03
					-3.88842000E-05	 2.08716000E-02	 3.55332000E-05
					 1.19839000E-03	 2.09647000E-02	-6.21874000E-03
					-3.20385000E-05	 1.53585000E-02	 3.77619000E-05
					 5.12450000E-04	 2.14596000E-02	-3.00207000E-03
					 7.12320000E-04	 1.54682000E-02	-5.14615000E-03
					-1.12141000E-03	 2.16405000E-02	 6.22313000E-03
					-1.27367000E-03	 2.10652000E-02	 6.28696000E-03
					-7.74247000E-04	 1.55389000E-02	 5.22101000E-03
					-5.80580000E-04	 2.15068000E-02	 3.05647000E-03
					-4.95306000E-05	 3.24269000E-02	 2.63186000E-05
					 2.27451000E-03	 3.24282000E-02	-7.65701000E-03
					-3.74372000E-05	 3.46890000E-02	-8.05625000E-06
					 2.15611000E-03	 3.46843000E-02	-7.70862000E-03
					-5.08352000E-05	 2.51930000E-02	 5.09502000E-05
					 1.11431000E-03	 3.24113000E-02	-3.84014000E-03
					 1.91252000E-03	 2.52420000E-02	-7.00971000E-03
					-4.31228000E-05	 3.35751000E-02	 9.11738000E-06
					 2.21511000E-03	 3.35718000E-02	-7.62158000E-03
					-4.09850000E-05	 2.70485000E-02	 2.46715000E-05
					 1.05850000E-03	 3.46710000E-02	-3.81975000E-03
					 1.70483000E-03	 2.70940000E-02	-7.05347000E-03
					-2.37473000E-03	 3.25742000E-02	 7.70569000E-03
					-2.23000000E-03	 3.48305000E-02	 7.68882000E-03
					-2.01536000E-03	 2.53676000E-02	 7.10741000E-03
					-1.21374000E-03	 3.24851000E-02	 3.89163000E-03
					-2.30179000E-03	 3.37166000E-02	 7.63624000E-03
					-1.78569000E-03	 2.72198000E-02	 7.09876000E-03
					-1.13315000E-03	 3.47434000E-02	 3.80276000E-03
					-2.67119000E-05	 3.68127000E-02	-4.01419000E-05
					 2.02673000E-03	 3.68068000E-02	-7.72263000E-03
					-3.21089000E-05	 3.57668000E-02	-2.46757000E-05
					 2.09123000E-03	 3.57614000E-02	-7.79891000E-03
					-3.21470000E-05	 2.86835000E-02	 1.70276000E-06
					 1.00033000E-03	 3.67950000E-02	-3.76206000E-03
					 1.48446000E-03	 2.87231000E-02	-7.05839000E-03
					-2.07688000E-03	 3.69479000E-02	 7.63882000E-03
					-2.15299000E-03	 3.59081000E-02	 7.74569000E-03
					-1.54549000E-03	 2.88443000E-02	 7.05802000E-03
					-1.05282000E-03	 3.68620000E-02	 3.68116000E-03
					-5.27647000E-05	 4.76080000E-02	-3.78472000E-05
					 3.29873000E-03	 4.75389000E-02	-8.16109000E-03
					-3.59530000E-05	 5.09528000E-02	-9.54377000E-05
					 3.29690000E-03	 5.08804000E-02	-8.22322000E-03
					-4.96574000E-05	 3.99902000E-02	-4.35999000E-06
					 1.62459000E-03	 4.75710000E-02	-4.18026000E-03
					 2.74084000E-03	 3.99568000E-02	-7.99702000E-03
					-4.39165000E-05	 4.92826000E-02	-6.62401000E-05
					 3.29807000E-03	 4.92117000E-02	-8.10191000E-03
					-3.55197000E-05	 4.27568000E-02	-4.92236000E-05
					 1.63035000E-03	 5.09158000E-02	-4.14986000E-03
					 2.69793000E-03	 4.27153000E-02	-8.05432000E-03
					-3.40496000E-03	 4.77079000E-02	 8.08444000E-03
					-3.36770000E-03	 5.10487000E-02	 8.03143000E-03
					-2.84122000E-03	 4.01151000E-02	 7.98575000E-03
					-1.73043000E-03	 4.76581000E-02	 4.10406000E-03
					-3.38605000E-03	 4.93779000E-02	 7.96861000E-03
					-2.76785000E-03	 4.28738000E-02	 7.95355000E-03
					-1.70205000E-03	 5.10000000E-02	 3.95862000E-03
					-2.06155000E-05	 5.42709000E-02	-1.53964000E-04
					 3.29348000E-03	 5.42040000E-02	-8.27622000E-03
					-2.82625000E-05	 5.26137000E-02	-1.24740000E-04
					 3.29533000E-03	 5.25412000E-02	-8.34378000E-03
					-2.26754000E-05	 4.54553000E-02	-9.37543000E-05
					 1.63474000E-03	 5.42379000E-02	-4.11166000E-03
					 2.64478000E-03	 4.54150000E-02	-8.08541000E-03
					-3.33145000E-03	 5.43676000E-02	 7.96717000E-03
					-3.34941000E-03	 5.27107000E-02	 8.09333000E-03
					-2.68656000E-03	 4.55685000E-02	 7.89555000E-03
					-1.67514000E-03	 5.43164000E-02	 3.80332000E-03
					-7.89637000E-05	 6.28171000E-02	-1.07656000E-04
					 4.45396000E-03	 6.27304000E-02	-8.34655000E-03
					-5.43398000E-05	 6.73302000E-02	-1.96681000E-04
					 4.44903000E-03	 6.72495000E-02	-8.43349000E-03
					-6.13129000E-05	 5.51835000E-02	-7.10348000E-05
					 2.18651000E-03	 6.27689000E-02	-4.30897000E-03
					 3.90212000E-03	 5.51031000E-02	-8.25190000E-03
					-6.62763000E-05	 6.50767000E-02	-1.52775000E-04
					 4.45227000E-03	 6.49958000E-02	-8.31310000E-03
					-4.10651000E-05	 5.91351000E-02	-1.44451000E-04
					 2.19838000E-03	 6.72865000E-02	-4.31993000E-03
					 3.90318000E-03	 5.90574000E-02	-8.32415000E-03
					-4.61197000E-03	 6.29177000E-02	 8.12760000E-03
					-4.55735000E-03	 6.74353000E-02	 8.03663000E-03
					-4.02471000E-03	 5.52826000E-02	 8.10801000E-03
					-2.34471000E-03	 6.28654000E-02	 4.09261000E-03
					-4.58467000E-03	 6.51799000E-02	 8.00401000E-03
					-3.98435000E-03	 5.92349000E-02	 8.03361000E-03
					-2.30710000E-03	 6.73800000E-02	 3.92558000E-03
					-3.14775000E-05	 7.18184000E-02	-2.84063000E-04
					 4.45426000E-03	 7.17445000E-02	-8.52251000E-03
					-4.29080000E-05	 6.95775000E-02	-2.40098000E-04
					 4.45187000E-03	 6.94976000E-02	-8.55115000E-03
					-2.25962000E-05	 6.30682000E-02	-2.18265000E-04
					 2.21060000E-03	 7.17795000E-02	-4.33435000E-03
					 3.91037000E-03	 6.29976000E-02	-8.39783000E-03
					-4.51626000E-03	 7.19284000E-02	 7.95112000E-03
					-4.53714000E-03	 6.96847000E-02	 8.06784000E-03
					-3.95323000E-03	 6.31713000E-02	 7.95978000E-03
					-2.27312000E-03	 7.18697000E-02	 3.76504000E-03
					-1.16622000E-04	 7.86924000E-02	-2.08896000E-04
					 5.21277000E-03	 7.86006000E-02	-8.66930000E-03
					-8.31186000E-05	 8.39903000E-02	-3.13757000E-04
					 5.20082000E-03	 8.39090000E-02	-8.78163000E-03
					-1.00497000E-04	 7.06235000E-02	-1.54118000E-04
					 2.54723000E-03	 7.86416000E-02	-4.47255000E-03
					 4.89928000E-03	 7.05331000E-02	-8.49619000E-03
					-1.00089000E-04	 8.13469000E-02	-2.60525000E-04
					 5.20734000E-03	 8.12628000E-02	-8.68655000E-03
					-7.06105000E-05	 7.55920000E-02	-2.52770000E-04
					 2.56088000E-03	 8.39449000E-02	-4.54498000E-03
					 4.88485000E-03	 7.55115000E-02	-8.59464000E-03
					-5.44576000E-03	 7.88036000E-02	 8.25214000E-03
					-5.36587000E-03	 8.41094000E-02	 8.15424000E-03
					-5.09983000E-03	 7.07275000E-02	 8.18477000E-03
					-2.78043000E-03	 7.87428000E-02	 4.05560000E-03
					-5.40717000E-03	 8.14636000E-02	 8.16556000E-03
					-5.02565000E-03	 7.57040000E-02	 8.08530000E-03
					-2.72695000E-03	 8.40442000E-02	 3.91791000E-03
					-5.19291000E-05	 8.92513000E-02	-4.20615000E-04
					 5.20262000E-03	 8.91795000E-02	-8.89273000E-03
					-6.68112000E-05	 8.66250000E-02	-3.67905000E-04
					 5.20321000E-03	 8.65463000E-02	-8.87818000E-03
					-4.24731000E-05	 8.05258000E-02	-3.49269000E-04
					 2.57469000E-03	 8.92118000E-02	-4.61602000E-03
					 4.88535000E-03	 8.04531000E-02	-8.69428000E-03
					-5.30421000E-03	 8.93760000E-02	 8.05124000E-03
					-5.33482000E-03	 8.67463000E-02	 8.14190000E-03
					-4.97009000E-03	 8.06448000E-02	 7.99146000E-03
					-2.67798000E-03	 8.93074000E-02	 3.77559000E-03
					-1.46125000E-04	 9.55813000E-02	-3.38058000E-04
					 5.41973000E-03	 9.54649000E-02	-8.90848000E-03
					-1.23176000E-04	 1.01166000E-01	-4.52446000E-04
					 5.43621000E-03	 1.01057000E-01	-9.04975000E-03
					-1.30610000E-04	 8.70462000E-02	-2.69600000E-04
					 2.63340000E-03	 9.55226000E-02	-4.62031000E-03
					 5.38622000E-03	 8.69414000E-02	-8.81103000E-03
					-1.33272000E-04	 9.83690000E-02	-3.93822000E-04
					 5.42939000E-03	 9.82586000E-02	-8.97357000E-03
					-9.92518000E-05	 9.25486000E-02	-3.80552000E-04
					 2.65244000E-03	 1.01111000E-01	-4.74664000E-03
					 5.39454000E-03	 9.24512000E-02	-8.94105000E-03
					-5.72334000E-03	 9.56813000E-02	 8.24317000E-03
					-5.68382000E-03	 1.01286000E-01	 8.15585000E-03
					-5.65333000E-03	 8.71491000E-02	 8.27901000E-03
					-2.92893000E-03	 9.56312000E-02	 3.94809000E-03
					-5.70367000E-03	 9.84832000E-02	 8.19586000E-03
					-5.59306000E-03	 9.26633000E-02	 8.18755000E-03
					-2.89937000E-03	 1.01227000E-01	 3.84477000E-03
					-1.01908000E-04	 1.06739000E-01	-5.80522000E-04
					 5.46843000E-03	 1.06650000E-01	-9.19326000E-03
					-1.13383000E-04	 1.03957000E-01	-5.14742000E-04
					 5.45167000E-03	 1.03856000E-01	-9.12974000E-03
					-6.97119000E-05	 9.80291000E-02	-5.01418000E-04
					 2.67946000E-03	 1.06694000E-01	-4.87651000E-03
					 5.40938000E-03	 9.79439000E-02	-9.07186000E-03
					-5.66262000E-03	 1.06870000E-01	 8.04345000E-03
					-5.67309000E-03	 1.04083000E-01	 8.11153000E-03
					-5.54191000E-03	 9.81477000E-02	 8.07716000E-03
					-2.88102000E-03	 1.06805000E-01	 3.71839000E-03
					 0.00000000E+00	 0.00000000E+00	 0.00000000E+00
					 0.00000000E+00	 0.00000000E+00	 0.00000000E+00
					 3.62580000E-06	-4.31312000E-03	-2.37316000E-05
					-5.65617000E-04	-4.47134000E-03	 3.37484000E-03
					 0.00000000E+00	 0.00000000E+00	 0.00000000E+00
					 0.00000000E+00	 0.00000000E+00	 0.00000000E+00
					 1.29596000E-06	-4.71946000E-03	-3.17675000E-05
					-2.26859000E-04	-4.88358000E-03	 3.41710000E-03
					 0.00000000E+00	 0.00000000E+00	 0.00000000E+00
					 4.50415000E-06	-1.27801000E-03	-7.99732000E-06
					-2.84039000E-04	-4.32422000E-03	 1.63412000E-03
					-5.55064000E-04	-1.57185000E-03	 1.86849000E-03
					 0.00000000E+00	 0.00000000E+00	 0.00000000E+00
					 0.00000000E+00	 0.00000000E+00	 0.00000000E+00
					 2.78080000E-06	-4.58257000E-03	-2.70142000E-05
					-3.92915000E-04	-4.74059000E-03	 3.36738000E-03
					 0.00000000E+00	 0.00000000E+00	 0.00000000E+00
					 2.19185000E-06	-1.55186000E-03	-1.05510000E-05
					-1.13322000E-04	-4.73108000E-03	 1.61674000E-03
					-4.95979000E-05	-1.84361000E-03	 1.83023000E-03
					 0.00000000E+00	 0.00000000E+00	 0.00000000E+00
					 5.72212000E-04	-4.45204000E-03	-3.42790000E-03
					 0.00000000E+00	 0.00000000E+00	 0.00000000E+00
					 2.30238000E-04	-4.86425000E-03	-3.48702000E-03
					 0.00000000E+00	 0.00000000E+00	 0.00000000E+00
					 5.63568000E-04	-1.56558000E-03	-1.88871000E-03
					 2.90966000E-04	-4.31537000E-03	-1.68300000E-03
					 0.00000000E+00	 0.00000000E+00	 0.00000000E+00
					 3.98149000E-04	-4.72045000E-03	-3.42744000E-03
					 0.00000000E+00	 0.00000000E+00	 0.00000000E+00
					 5.42178000E-05	-1.83858000E-03	-1.85537000E-03
					 1.14683000E-04	-4.72206000E-03	-1.68253000E-03
					 0.00000000E+00	 0.00000000E+00	 0.00000000E+00
					 0.00000000E+00	 0.00000000E+00	 0.00000000E+00
					-3.20579000E-06	-4.76860000E-03	-3.86303000E-05
					 1.20730000E-04	-4.91675000E-03	 3.36013000E-03
					 0.00000000E+00	 0.00000000E+00	 0.00000000E+00
					 0.00000000E+00	 0.00000000E+00	 0.00000000E+00
					-4.72110000E-07	-4.80903000E-03	-3.64503000E-05
					-5.51589000E-05	-4.95996000E-03	 3.43296000E-03
					 0.00000000E+00	 0.00000000E+00	 0.00000000E+00
					-1.63814000E-06	-1.38110000E-03	-1.21173000E-05
					 5.97000000E-05	-4.77443000E-03	 1.54337000E-03
					 4.68245000E-04	-1.66022000E-03	 1.86406000E-03
					 0.00000000E+00	 0.00000000E+00	 0.00000000E+00
					-1.28901000E-04	-4.89629000E-03	-3.44343000E-03
					 0.00000000E+00	 0.00000000E+00	 0.00000000E+00
					 5.30472000E-05	-4.94566000E-03	-3.51200000E-03
					 0.00000000E+00	 0.00000000E+00	 0.00000000E+00
					-4.73435000E-04	-1.65369000E-03	-1.89298000E-03
					-6.60340000E-05	-4.76523000E-03	-1.62261000E-03
					-1.55796000E-05	-1.28448000E-02	-8.50330000E-05
					-1.34358000E-03	-1.30177000E-02	 5.42129000E-03
					-2.02461000E-05	-1.40319000E-02	-1.21247000E-04
					-1.06324000E-03	-1.41925000E-02	 5.39060000E-03
					-7.50311000E-07	-8.16559000E-03	-4.82412000E-05
					-6.82619000E-04	-1.29022000E-02	 2.73910000E-03
					-8.74693000E-04	-8.37420000E-03	 4.47363000E-03
					-1.78165000E-05	-1.34701000E-02	-1.03937000E-04
					-1.20250000E-03	-1.36318000E-02	 5.33103000E-03
					-5.51241000E-06	-8.90151000E-03	-6.75362000E-05
					-5.36246000E-04	-1.40812000E-02	 2.63457000E-03
					-5.79667000E-04	-9.08909000E-03	 4.46228000E-03
					 1.31932000E-03	-1.29613000E-02	-5.59644000E-03
					 1.02255000E-03	-1.41533000E-02	-5.63714000E-03
					 8.75530000E-04	-8.33914000E-03	-4.57720000E-03
					 6.52780000E-04	-1.28721000E-02	-2.91148000E-03
					 1.17254000E-03	-1.35900000E-02	-5.54063000E-03
					 5.70677000E-04	-9.06213000E-03	-4.60465000E-03
					 5.00362000E-04	-1.40617000E-02	-2.87540000E-03
					-3.43731000E-05	-1.49295000E-02	-1.56564000E-04
					-7.57454000E-04	-1.50621000E-02	 5.34790000E-03
					-2.68627000E-05	-1.45080000E-02	-1.37907000E-04
					-9.08442000E-04	-1.46889000E-02	 5.44273000E-03
					-1.39416000E-05	-9.31683000E-03	-8.64781000E-05
					-4.04147000E-04	-1.49613000E-02	 2.52205000E-03
					-2.63129000E-04	-9.49179000E-03	 4.43451000E-03
					 7.17098000E-04	-1.50488000E-02	-5.66666000E-03
					 8.69571000E-04	-1.46336000E-02	-5.72699000E-03
					 2.46276000E-04	-9.47711000E-03	-4.61388000E-03
					 3.43056000E-04	-1.49558000E-02	-2.83205000E-03
					-7.31292000E-05	-2.51247000E-02	-2.02964000E-04
					-2.34513000E-03	-2.52203000E-02	 7.02343000E-03
					-7.56085000E-05	-2.72595000E-02	-2.66826000E-04
					-2.13238000E-03	-2.74620000E-02	 6.97953000E-03
					-3.94650000E-05	-1.84808000E-02	-1.36207000E-04
					-1.20212000E-03	-2.51440000E-02	 3.42147000E-03
					-1.85772000E-03	-1.86316000E-02	 6.31808000E-03
					-7.18224000E-05	-2.62210000E-02	-2.30894000E-04
					-2.24028000E-03	-2.63855000E-02	 6.93571000E-03
					-4.50365000E-05	-2.01558000E-02	-1.89546000E-04
					-1.12863000E-03	-2.73363000E-02	 3.28889000E-03
					-1.59189000E-03	-2.03172000E-02	 6.27912000E-03
					 2.16540000E-03	-2.51625000E-02	-7.41376000E-03
					 1.98442000E-03	-2.73214000E-02	-7.53194000E-03
					 1.77710000E-03	-1.85573000E-02	-6.59139000E-03
					 1.04408000E-03	-2.51172000E-02	-3.81584000E-03
					 2.07430000E-03	-2.62665000E-02	-7.41050000E-03
					 1.50936000E-03	-2.02394000E-02	-6.66084000E-03
					 9.54882000E-04	-2.72684000E-02	-3.84231000E-03
					-9.10562000E-05	-2.92251000E-02	-3.29852000E-04
					-2.02123000E-03	-2.95305000E-02	 6.89405000E-03
					-8.23727000E-05	-2.82812000E-02	-3.02015000E-04
					-2.07857000E-03	-2.84085000E-02	 7.03541000E-03
					-5.01050000E-05	-2.15750000E-02	-2.41451000E-04
					-1.02838000E-03	-2.93585000E-02	 3.11059000E-03
					-1.36284000E-03	-2.17520000E-02	 6.21559000E-03
					 1.80253000E-03	-2.93132000E-02	-7.59893000E-03
					 1.89418000E-03	-2.83388000E-02	-7.65943000E-03
					 1.23001000E-03	-2.16565000E-02	-6.70417000E-03
					 8.49510000E-04	-2.92567000E-02	-3.81417000E-03
					-1.21591000E-04	-3.99387000E-02	-3.43257000E-04
					-3.26129000E-03	-3.98392000E-02	 7.06901000E-03