<?xml version="1.0"?>
<VTKFile type="UnstructuredGrid" version="0.1" byte_order="LittleEndian">
	<UnstructuredGrid>
		<Piece NumberOfPoints="522" NumberOfCells="64">
			<Points>
				<DataArray type="Float64" NumberOfComponents="3" format="ascii">
					 1.00000000E+00	 1.00000000E+00	-5.96046000E-08
					 1.00000000E+00	 5.00000000E-01	-5.96046000E-08
					 1.00000000E+00	 5.00000000E-01	 1.00000000E+00
					 1.00000000E+00	 1.00000000E+00	 1.00000000E+00
					 5.00000000E-01	 1.00000000E+00	-5.96046000E-08
					 5.00000000E-01	 5.00000000E-01	-5.96046000E-08
					 5.00000000E-01	 5.00000000E-01	 1.00000000E+00
					 5.00000000E-01	 1.00000000E+00	 1.00000000E+00
					 1.00000000E+00	 7.50000000E-01	-5.96046000E-08
					 1.00000000E+00	 5.00000000E-01	 5.00000000E-01
					 1.00000000E+00	 7.50000000E-01	 1.00000000E+00
					 1.00000000E+00	 1.00000000E+00	 5.00000000E-01
					 7.50000000E-01	 1.00000000E+00	-5.96046000E-08
					 7.50000000E-01	 5.00000000E-01	-5.96046000E-08
					 7.50000000E-01	 5.00000000E-01	 1.00000000E+00
					 7.50000000E-01	 1.00000000E+00	 1.00000000E+00
					 5.00000000E-01	 7.50000000E-01	-5.96046000E-08
					 5.00000000E-01	 5.00000000E-01	 5.00000000E-01
					 5.00000000E-01	 7.50000000E-01	 1.00000000E+00
					 5.00000000E-01	 1.00000000E+00	 5.00000000E-01
					 1.00000000E+00	-1.49012000E-08	-5.96046000E-08
					 1.00000000E+00	-1.49012000E-08	 1.00000000E+00
					 5.00000000E-01	-1.49012000E-08	-5.96046000E-08
					 5.00000000E-01	-1.49012000E-08	 1.00000000E+00
					 1.00000000E+00	 2.50000000E-01	-5.96046000E-08
					 1.00000000E+00	-1.49012000E-08	 5.00000000E-01
					 1.00000000E+00	 2.50000000E-01	 1.00000000E+00
					 7.50000000E-01	-1.49012000E-08	-5.96046000E-08
					 7.50000000E-01	-1.49012000E-08	 1.00000000E+00
					 5.00000000E-01	 2.50000000E-01	-5.96046000E-08
					 5.00000000E-01	-1.49012000E-08	 5.00000000E-01
					 5.00000000E-01	 2.50000000E-01	 1.00000000E+00
					-7.45058000E-09	 1.00000000E+00	-5.96046000E-08
					-7.45058000E-09	 5.00000000E-01	-5.96046000E-08
					-7.45058000E-09	 5.00000000E-01	 1.00000000E+00
					-7.45058000E-09	 1.00000000E+00	 1.00000000E+00
					 2.50000000E-01	 1.00000000E+00	-5.96046000E-08
					 2.50000000E-01	 5.00000000E-01	-5.96046000E-08
					 2.50000000E-01	 5.00000000E-01	 1.00000000E+00
					 2.50000000E-01	 1.00000000E+00	 1.00000000E+00
					-7.45058000E-09	 7.50000000E-01	-5.96046000E-08
					-7.45058000E-09	 5.00000000E-01	 5.00000000E-01
					-7.45058000E-09	 7.50000000E-01	 1.00000000E+00
					-7.45058000E-09	 1.00000000E+00	 5.00000000E-01
					-7.45058000E-09	-1.49012000E-08	-5.96046000E-08
					-7.45058000E-09	-1.49012000E-08	 1.00000000E+00
					 2.50000000E-01	-1.49012000E-08	-5.96046000E-08
					 2.50000000E-01	-1.49012000E-08	 1.00000000E+00
					-7.45058000E-09	 2.50000000E-01	-5.96046000E-08
					-7.45058000E-09	-1.49012000E-08	 5.00000000E-01
					-7.45058000E-09	 2.50000000E-01	 1.00000000E+00
					 1.00000000E+00	 5.00000000E-01	 2.00000000E+00
					 1.00000000E+00	 1.00000000E+00	 2.00000000E+00
					 5.00000000E-01	 5.00000000E-01	 2.00000000E+00
					 5.00000000E-01	 1.00000000E+00	 2.00000000E+00
					 1.00000000E+00	 5.00000000E-01	 1.50000000E+00
					 1.00000000E+00	 7.50000000E-01	 2.00000000E+00
					 1.00000000E+00	 1.00000000E+00	 1.50000000E+00
					 7.50000000E-01	 5.00000000E-01	 2.00000000E+00
					 7.50000000E-01	 1.00000000E+00	 2.00000000E+00
					 5.00000000E-01	 5.00000000E-01	 1.50000000E+00
					 5.00000000E-01	 7.50000000E-01	 2.00000000E+00
					 5.00000000E-01	 1.00000000E+00	 1.50000000E+00
					 1.00000000E+00	-1.49012000E-08	 2.00000000E+00
					 5.00000000E-01	-1.49012000E-08	 2.00000000E+00
					 1.00000000E+00	-1.49012000E-08	 1.50000000E+00
					 1.00000000E+00	 2.50000000E-01	 2.00000000E+00
					 7.50000000E-01	-1.49012000E-08	 2.00000000E+00
					 5.00000000E-01	-1.49012000E-08	 1.50000000E+00
					 5.00000000E-01	 2.50000000E-01	 2.00000000E+00
					-7.45058000E-09	 5.00000000E-01	 2.00000000E+00
					-7.45058000E-09	 1.00000000E+00	 2.00000000E+00
					 2.50000000E-01	 5.00000000E-01	 2.00000000E+00
					 2.50000000E-01	 1.00000000E+00	 2.00000000E+00
					-7.45058000E-09	 5.00000000E-01	 1.50000000E+00
					-7.45058000E-09	 7.50000000E-01	 2.00000000E+00
					-7.45058000E-09	 1.00000000E+00	 1.50000000E+00
					-7.45058000E-09	-1.49012000E-08	 2.00000000E+00
					 2.50000000E-01	-1.49012000E-08	 2.00000000E+00
					-7.45058000E-09	-1.49012000E-08	 1.50000000E+00
					-7.45058000E-09	 2.50000000E-01	 2.00000000E+00
					 1.00000000E+00	 5.00000000E-01	 3.00000000E+00
					 1.00000000E+00	 1.00000000E+00	 3.00000000E+00
					 5.00000000E-01	 5.00000000E-01	 3.00000000E+00
					 5.00000000E-01	 1.00000000E+00	 3.00000000E+00
					 1.00000000E+00	 5.00000000E-01	 2.50000000E+00
					 1.00000000E+00	 7.50000000E-01	 3.00000000E+00
					 1.00000000E+00	 1.00000000E+00	 2.50000000E+00
					 7.50000000E-01	 5.00000000E-01	 3.00000000E+00
					 7.50000000E-01	 1.00000000E+00	 3.00000000E+00
					 5.00000000E-01	 5.00000000E-01	 2.50000000E+00
					 5.00000000E-01	 7.50000000E-01	 3.00000000E+00
					 5.00000000E-01	 1.00000000E+00	 2.50000000E+00
					 1.00000000E+00	-1.49012000E-08	 3.00000000E+00
					 5.00000000E-01	-1.49012000E-08	 3.00000000E+00
					 1.00000000E+00	-1.49012000E-08	 2.50000000E+00
					 1.00000000E+00	 2.50000000E-01	 3.00000000E+00
					 7.50000000E-01	-1.49012000E-08	 3.00000000E+00
					 5.00000000E-01	-1.49012000E-08	 2.50000000E+00
					 5.00000000E-01	 2.50000000E-01	 3.00000000E+00
					-7.45058000E-09	 5.00000000E-01	 3.00000000E+00
					-7.45058000E-09	 1.00000000E+00	 3.00000000E+00
					 2.50000000E-01	 5.00000000E-01	 3.00000000E+00
					 2.50000000E-01	 1.00000000E+00	 3.00000000E+00
					-7.45058000E-09	 5.00000000E-01	 2.50000000E+00
					-7.45058000E-09	 7.50000000E-01	 3.00000000E+00
					-7.45058000E-09	 1.00000000E+00	 2.50000000E+00
					-7.45058000E-09	-1.49012000E-08	 3.00000000E+00
					 2.50000000E-01	-1.49012000E-08	 3.00000000E+00
					-7.45058000E-09	-1.49012000E-08	 2.50000000E+00
					-7.45058000E-09	 2.50000000E-01	 3.00000000E+00
					 1.00000000E+00	 5.00000000E-01	 4.00000000E+00
					 1.00000000E+00	 1.00000000E+00	 4.00000000E+00
					 5.00000000E-01	 5.00000000E-01	 4.00000000E+00
					 5.00000000E-01	 1.00000000E+00	 4.00000000E+00
					 1.00000000E+00	 5.00000000E-01	 3.50000000E+00
					 1.00000000E+00	 7.50000000E-01	 4.00000000E+00
					 1.00000000E+00	 1.00000000E+00	 3.50000000E+00
					 7.50000000E-01	 5.00000000E-01	 4.00000000E+00
					 7.50000000E-01	 1.00000000E+00	 4.00000000E+00
					 5.00000000E-01	 5.00000000E-01	 3.50000000E+00
					 5.00000000E-01	 7.50000000E-01	 4.00000000E+00
					 5.00000000E-01	 1.00000000E+00	 3.50000000E+00
					 1.00000000E+00	-1.49012000E-08	 4.00000000E+00
					 5.00000000E-01	-1.49012000E-08	 4.00000000E+00
					 1.00000000E+00	-1.49012000E-08	 3.50000000E+00
					 1.00000000E+00	 2.50000000E-01	 4.00000000E+00
					 7.50000000E-01	-1.49012000E-08	 4.00000000E+00
					 5.00000000E-01	-1.49012000E-08	 3.50000000E+00
					 5.00000000E-01	 2.50000000E-01	 4.00000000E+00
					-7.45058000E-09	 5.00000000E-01	 4.00000000E+00
					-7.45058000E-09	 1.00000000E+00	 4.00000000E+00
					 2.50000000E-01	 5.00000000E-01	 4.00000000E+00
					 2.50000000E-01	 1.00000000E+00	 4.00000000E+00
					-7.45058000E-09	 5.00000000E-01	 3.50000000E+00
					-7.45058000E-09	 7.50000000E-01	 4.00000000E+00
					-7.45058000E-09	 1.00000000E+00	 3.50000000E+00
					-7.45058000E-09	-1.49012000E-08	 4.00000000E+00
					 2.50000000E-01	-1.49012000E-08	 4.00000000E+00
					-7.45058000E-09	-1.49012000E-08	 3.50000000E+00
					-7.45058000E-09	 2.50000000E-01	 4.00000000E+00
					 1.00000000E+00	 5.00000000E-01	 5.00000000E+00
					 1.00000000E+00	 1.00000000E+00	 5.00000000E+00
					 5.00000000E-01	 5.00000000E-01	 5.00000000E+00
					 5.00000000E-01	 1.00000000E+00	 5.00000000E+00
					 1.00000000E+00	 5.00000000E-01	 4.50000000E+00
					 1.00000000E+00	 7.50000000E-01	 5.00000000E+00
					 1.00000000E+00	 1.00000000E+00	 4.50000000E+00
					 7.50000000E-01	 5.00000000E-01	 5.00000000E+00
					 7.50000000E-01	 1.00000000E+00	 5.00000000E+00
					 5.00000000E-01	 5.00000000E-01	 4.50000000E+00
					 5.00000000E-01	 7.50000000E-01	 5.00000000E+00
					 5.00000000E-01	 1.00000000E+00	 4.50000000E+00
					 1.00000000E+00	-1.49012000E-08	 5.00000000E+00
					 5.00000000E-01	-1.49012000E-08	 5.00000000E+00
					 1.00000000E+00	-1.49012000E-08	 4.50000000E+00
					 1.00000000E+00	 2.50000000E-01	 5.00000000E+00
					 7.50000000E-01	-1.49012000E-08	 5.00000000E+00
					 5.00000000E-01	-1.49012000E-08	 4.50000000E+00
					 5.00000000E-01	 2.50000000E-01	 5.00000000E+00
					-7.45058000E-09	 5.00000000E-01	 5.00000000E+00
					-7.45058000E-09	 1.00000000E+00	 5.00000000E+00
					 2.50000000E-01	 5.00000000E-01	 5.00000000E+00
					 2.50000000E-01	 1.00000000E+00	 5.00000000E+00
					-7.45058000E-09	 5.00000000E-01	 4.50000000E+00
					-7.45058000E-09	 7.50000000E-01	 5.00000000E+00
					-7.45058000E-09	 1.00000000E+00	 4.50000000E+00
					-7.45058000E-09	-1.49012000E-08	 5.00000000E+00
					 2.50000000E-01	-1.49012000E-08	 5.00000000E+00
					-7.45058000E-09	-1.49012000E-08	 4.50000000E+00
					-7.45058000E-09	 2.50000000E-01	 5.00000000E+00
					 1.00000000E+00	 5.00000000E-01	 6.00000000E+00
					 1.00000000E+00	 1.00000000E+00	 6.00000000E+00
					 5.00000000E-01	 5.00000000E-01	 6.00000000E+00
					 5.00000000E-01	 1.00000000E+00	 6.00000000E+00
					 1.00000000E+00	 5.00000000E-01	 5.50000000E+00
					 1.00000000E+00	 7.50000000E-01	 6.00000000E+00
					 1.00000000E+00	 1.00000000E+00	 5.50000000E+00
					 7.50000000E-01	 5.00000000E-01	 6.00000000E+00
					 7.50000000E-01	 1.00000000E+00	 6.00000000E+00
					 5.00000000E-01	 5.00000000E-01	 5.50000000E+00
					 5.00000000E-01	 7.50000000E-01	 6.00000000E+00
					 5.00000000E-01	 1.00000000E+00	 5.50000000E+00
					 1.00000000E+00	-1.49012000E-08	 6.00000000E+00
[...]
			<PointData>
				<DataArray type="Float32" Name="U" NumberOfComponents="3" ComponentName0="D1" ComponentName1="D2" ComponentName2="D3" format="ascii">
					 0.00000000E+00	 0.00000000E+00	 0.00000000E+00
					 0.00000000E+00	 0.00000000E+00	 0.00000000E+00
					-2.54756000E-05	-2.19741000E-03	 1.28330000E-05
					-1.84283000E-04	-2.26561000E-03	 1.91220000E-03
					 0.00000000E+00	 0.00000000E+00	 0.00000000E+00
					 0.00000000E+00	 0.00000000E+00	 0.00000000E+00
					-5.99405000E-06	-2.27067000E-03	 1.99948000E-05
					-3.50379000E-05	-2.41320000E-03	 1.95358000E-03
					 0.00000000E+00	 0.00000000E+00	 0.00000000E+00
					 8.55119000E-06	-5.07712000E-04	 2.35696000E-05
					-1.41033000E-04	-2.17963000E-03	 9.06160000E-04
					-3.22227000E-04	-6.67035000E-04	 1.01353000E-03
					 0.00000000E+00	 0.00000000E+00	 0.00000000E+00
					 0.00000000E+00	 0.00000000E+00	 0.00000000E+00
					 3.26080000E-06	-2.25255000E-03	 2.37543000E-05
					-1.25347000E-04	-2.36697000E-03	 1.96241000E-03
					 0.00000000E+00	 0.00000000E+00	 0.00000000E+00
					-1.47035000E-05	-6.44543000E-04	 1.09106000E-05
					-3.14876000E-06	-2.31275000E-03	 9.45949000E-04
					-6.23716000E-06	-7.94441000E-04	 9.62621000E-04
					 0.00000000E+00	 0.00000000E+00	 0.00000000E+00
					 2.30742000E-04	-2.23165000E-03	-1.89123000E-03
					 0.00000000E+00	 0.00000000E+00	 0.00000000E+00
					 4.17242000E-06	-2.38174000E-03	-1.90520000E-03
					 0.00000000E+00	 0.00000000E+00	 0.00000000E+00
					 2.67881000E-04	-6.50718000E-04	-9.77158000E-04
					 8.08451000E-05	-2.17931000E-03	-8.82885000E-04
					 0.00000000E+00	 0.00000000E+00	 0.00000000E+00
					 1.07504000E-04	-2.37028000E-03	-1.90802000E-03
					 0.00000000E+00	 0.00000000E+00	 0.00000000E+00
					 8.65881000E-06	-7.63964000E-04	-9.41582000E-04
					-9.59978000E-07	-2.29040000E-03	-8.98025000E-04
					 0.00000000E+00	 0.00000000E+00	 0.00000000E+00
					 0.00000000E+00	 0.00000000E+00	 0.00000000E+00
					 5.73059000E-06	-2.16508000E-03	 4.22168000E-05
					 2.10052000E-04	-2.28887000E-03	 1.92151000E-03
					 0.00000000E+00	 0.00000000E+00	 0.00000000E+00
					 0.00000000E+00	 0.00000000E+00	 0.00000000E+00
					-2.90854000E-05	-2.26720000E-03	 3.07474000E-05
					 1.20634000E-04	-2.36961000E-03	 1.94260000E-03
					 0.00000000E+00	 0.00000000E+00	 0.00000000E+00
					 4.66622000E-06	-4.96929000E-04	 2.97486000E-05
					 1.26957000E-04	-2.17212000E-03	 9.41121000E-04
					 3.11289000E-04	-6.68303000E-04	 1.01372000E-03
					 0.00000000E+00	 0.00000000E+00	 0.00000000E+00
					-2.69741000E-04	-2.26231000E-03	-1.86938000E-03
					 0.00000000E+00	 0.00000000E+00	 0.00000000E+00
					-1.21534000E-04	-2.37974000E-03	-1.88729000E-03
					 0.00000000E+00	 0.00000000E+00	 0.00000000E+00
					-2.82580000E-04	-6.74662000E-04	-9.92012000E-04
					-1.01877000E-04	-2.16616000E-03	-8.75318000E-04
					 9.69600000E-06	-7.74605000E-03	 1.02071000E-04
					 8.13395000E-05	-7.78747000E-03	 2.91160000E-03
					 1.67522000E-05	-7.65670000E-03	 2.02873000E-05
					 1.21575000E-04	-7.70534000E-03	 2.90998000E-03
					-8.14471000E-06	-4.74505000E-03	 3.66000000E-05
					 6.19083000E-05	-7.76448000E-03	 1.46405000E-03
					-5.10395000E-05	-4.82600000E-03	 2.53197000E-03
					-2.01715000E-06	-7.72977000E-03	 5.68019000E-05
					 1.19576000E-04	-7.76847000E-03	 2.92897000E-03
					 2.38686000E-05	-4.74413000E-03	 3.62632000E-05
					 7.90841000E-05	-7.66442000E-03	 1.43589000E-03
					 9.22161000E-05	-4.81157000E-03	 2.57112000E-03
					-1.14543000E-04	-7.82187000E-03	-2.76004000E-03
					-8.62109000E-05	-7.68434000E-03	-2.79909000E-03
					 6.74433000E-05	-4.79839000E-03	-2.43500000E-03
					-9.59149000E-06	-7.76593000E-03	-1.26933000E-03
					-8.62561000E-05	-7.72528000E-03	-2.83794000E-03
					-6.85562000E-05	-4.78586000E-03	-2.48476000E-03
					-6.21416000E-05	-7.66813000E-03	-1.34558000E-03
					 6.46935000E-06	-7.51032000E-03	 4.35349000E-06
					 2.13682000E-04	-7.55857000E-03	 2.86674000E-03
					 3.29520000E-05	-7.56990000E-03	 1.57908000E-05
					 1.40126000E-04	-7.64076000E-03	 2.86519000E-03
					 1.92025000E-05	-4.59687000E-03	 2.21876000E-05
					 8.29012000E-05	-7.55462000E-03	 1.36494000E-03
					 2.36731000E-04	-4.68694000E-03	 2.52180000E-03
					-1.53703000E-04	-7.54597000E-03	-2.87252000E-03
					-1.24157000E-04	-7.60145000E-03	-2.84267000E-03
					-1.95552000E-04	-4.69006000E-03	-2.46857000E-03
					-1.00861000E-04	-7.53322000E-03	-1.34973000E-03
					 2.25095000E-05	-1.38328000E-02	-3.61988000E-05
					 3.32980000E-04	-1.38170000E-02	 2.74324000E-03
					 2.13869000E-05	-1.35433000E-02	 2.58300000E-05
					 2.89392000E-04	-1.35394000E-02	 2.76353000E-03
					 1.22928000E-05	-1.08162000E-02	 3.00831000E-05
					 1.84010000E-04	-1.38336000E-02	 1.38526000E-03
					 2.00082000E-04	-1.08041000E-02	 2.85588000E-03
					 3.13889000E-05	-1.36713000E-02	-6.52284000E-06
					 3.00797000E-04	-1.36466000E-02	 2.78631000E-03
					 2.30878000E-06	-1.06360000E-02	 2.59770000E-05
					 1.62629000E-04	-1.35456000E-02	 1.38914000E-03
					 1.48885000E-04	-1.06641000E-02	 2.89898000E-03
					-2.13686000E-04	-1.37768000E-02	-2.77779000E-03
					-2.42199000E-04	-1.35399000E-02	-2.78828000E-03
					-1.68662000E-04	-1.08139000E-02	-2.82004000E-03
					-1.16775000E-04	-1.38196000E-02	-1.40239000E-03
					-2.57010000E-04	-1.36823000E-02	-2.81219000E-03
					-1.48543000E-04	-1.06446000E-02	-2.85162000E-03
					-9.82616000E-05	-1.35353000E-02	-1.40774000E-03
					 1.63101000E-05	-1.32801000E-02	 1.12353000E-05
					 2.13476000E-04	-1.33239000E-02	 2.76759000E-03
					 8.12932000E-06	-1.34140000E-02	 1.68807000E-05
					 2.73422000E-04	-1.34044000E-02	 2.75497000E-03
					 1.40400000E-05	-1.04763000E-02	 1.77620000E-05
					 1.42932000E-04	-1.32832000E-02	 1.41352000E-03
					 8.80510000E-05	-1.05258000E-02	 2.88814000E-03
					-2.02209000E-04	-1.33276000E-02	-2.75625000E-03
					-2.21695000E-04	-1.34251000E-02	-2.71618000E-03
					-1.36615000E-04	-1.05096000E-02	-2.87161000E-03
					-8.40826000E-05	-1.32996000E-02	-1.44532000E-03
					 2.21460000E-05	-1.95874000E-02	-6.37455000E-05
					 6.51064000E-04	-1.95915000E-02	 2.81709000E-03
					 2.37372000E-05	-1.88913000E-02	-5.84442000E-05
					 7.44536000E-04	-1.89067000E-02	 2.77681000E-03
					 6.11831000E-05	-1.66774000E-02	-5.30978000E-05
					 3.48653000E-04	-1.95847000E-02	 1.35889000E-03
					 5.33640000E-04	-1.66879000E-02	 2.69667000E-03
					 8.23346000E-06	-1.92095000E-02	-7.15799000E-05
					 6.98658000E-04	-1.92615000E-02	 2.82762000E-03
					 2.30322000E-05	-1.62029000E-02	-3.33833000E-05
					 3.64885000E-04	-1.88996000E-02	 1.39508000E-03
					 5.35050000E-04	-1.61983000E-02	 2.69362000E-03
					-6.01491000E-04	-1.95493000E-02	-2.88978000E-03
					-7.02304000E-04	-1.88780000E-02	-2.91070000E-03
					-4.56436000E-04	-1.66744000E-02	-2.79301000E-03
					-3.15509000E-04	-1.95597000E-02	-1.48957000E-03
					-6.33827000E-04	-1.92086000E-02	-2.93390000E-03
					-4.59975000E-04	-1.62264000E-02	-2.78343000E-03
					-3.39418000E-04	-1.88774000E-02	-1.49586000E-03
					 4.41321000E-05	-1.81270000E-02	-5.33986000E-05
					 8.03839000E-04	-1.81876000E-02	 2.82650000E-03
					 4.56700000E-05	-1.85221000E-02	-5.96068000E-05
					 7.76594000E-04	-1.85725000E-02	 2.79784000E-03
					-7.57637000E-06	-1.57177000E-02	-4.40550000E-05
					 4.00094000E-04	-1.81552000E-02	 1.43179000E-03
					 5.29811000E-04	-1.57249000E-02	 2.75025000E-03
					-7.08411000E-04	-1.81413000E-02	-2.91393000E-03
					-7.15606000E-04	-1.85092000E-02	-2.87372000E-03
					-4.51609000E-04	-1.57013000E-02	-2.77886000E-03
					-3.61351000E-04	-1.81296000E-02	-1.49482000E-03
					 4.06590000E-05	-2.58346000E-02	-2.09722000E-05
					 8.60609000E-04	-2.58964000E-02	 3.21888000E-03
					 3.23964000E-05	-2.49698000E-02	-1.58213000E-05
					 9.85898000E-04	-2.50018000E-02	 3.28064000E-03
					 2.58047000E-05	-2.26020000E-02	-4.93695000E-05
					 4.51748000E-04	-2.58816000E-02	 1.58480000E-03
					 7.63691000E-04	-2.26686000E-02	 3.01067000E-03
					 2.06687000E-05	-2.54332000E-02	-1.60201000E-05
					 9.47465000E-04	-2.54658000E-02	 3.22724000E-03
					 3.98919000E-05	-2.18193000E-02	-2.93140000E-05
					 4.93366000E-04	-2.49638000E-02	 1.60479000E-03
					 8.70295000E-04	-2.18398000E-02	 3.05483000E-03
					-8.66315000E-04	-2.58937000E-02	-3.31878000E-03
					-8.58290000E-04	-2.49627000E-02	-3.26084000E-03
					-7.71446000E-04	-2.26018000E-02	-3.09371000E-03
					-3.81166000E-04	-2.58372000E-02	-1.66344000E-03
					-8.37587000E-04	-2.54132000E-02	-3.29661000E-03
					-8.14497000E-04	-2.18190000E-02	-3.10459000E-03
					-4.10120000E-04	-2.49795000E-02	-1.63079000E-03
					-2.76052000E-06	-2.40322000E-02	 2.20085000E-05
					 1.07238000E-03	-2.39775000E-02	 3.28914000E-03
					 2.90340000E-05	-2.45098000E-02	-9.71807000E-06
					 9.95458000E-04	-2.45431000E-02	 3.25258000E-03
					 5.51280000E-05	-2.09467000E-02	-1.54462000E-05
					 5.20526000E-04	-2.40100000E-02	 1.65167000E-03
					 9.78378000E-04	-2.09779000E-02	 3.04328000E-03
					-9.20377000E-04	-2.40459000E-02	-3.27421000E-03
					-8.89659000E-04	-2.45420000E-02	-3.26320000E-03
					-8.83725000E-04	-2.09324000E-02	-3.05887000E-03
					-4.23789000E-04	-2.40252000E-02	-1.60891000E-03
					 6.55814000E-05	-3.19162000E-02	-5.91416000E-05
					 1.82546000E-04	-3.19796000E-02	 3.56593000E-03
					 1.49012000E-05	-3.17772000E-02	-3.18985000E-05
					 1.56236000E-04	-3.18371000E-02	 3.54491000E-03
					 4.00501000E-05	-2.88560000E-02	-2.56886000E-05
					 6.23444000E-05	-3.19019000E-02	 1.90558000E-03
					 6.13588000E-04	-2.89428000E-02	 3.40679000E-03
					 6.14546000E-05	-3.18410000E-02	-3.38984000E-05
					 1.49882000E-04	-3.18974000E-02	 3.49542000E-03
					 3.99225000E-05	-2.82987000E-02	-2.33238000E-05
					 1.02488000E-04	-3.17937000E-02	 1.77693000E-03
					 5.94849000E-04	-2.83723000E-02	 3.39718000E-03
					-7.39179000E-05	-3.19566000E-02	-3.62673000E-03
					-9.35581000E-05	-3.18361000E-02	-3.65097000E-03
					-5.05490000E-04	-2.89222000E-02	-3.45361000E-03
					 2.66693000E-05	-3.19220000E-02	-1.95104000E-03
					-9.66884000E-05	-3.18504000E-02	-3.57901000E-03
					-4.97292000E-04	-2.83304000E-02	-3.40084000E-03
					-4.85388000E-05	-3.17881000E-02	-1.87208000E-03
					 3.60468000E-05	-3.15651000E-02	-7.10919000E-05
					 2.20181000E-04	-3.16863000E-02	 3.53498000E-03
					 9.60905000E-06	-3.17147000E-02	-2.51947000E-05
					 1.94085000E-04	-3.17892000E-02	 3.65139000E-03
					 2.50957000E-05	-2.77383000E-02	-2.44647000E-05
					 1.51197000E-04	-3.15993000E-02	 1.65909000E-03
					 6.91900000E-04	-2.77285000E-02	 3.38064000E-03
					-1.74338000E-04	-3.17012000E-02	-3.69326000E-03
					-1.35487000E-04	-3.17473000E-02	-3.80085000E-03
					-6.33987000E-04	-2.77204000E-02	-3.44634000E-03
					-7.98109000E-05	-3.16191000E-02	-1.83557000E-03
					 4.31948000E-05	-3.87169000E-02	 1.30254000E-05
					-9.72073000E-04	-3.88633000E-02	 4.56507000E-03
					 8.21981000E-05	-3.97556000E-02	-8.49854000E-05
					-7.95482000E-04	-3.98925000E-02	 4.59453000E-03
					 7.93882000E-05	-3.50467000E-02	-7.38021000E-05
					-3.99092000E-04	-3.87629000E-02	 2.29102000E-03
					-4.92626000E-04	-3.51012000E-02	 4.02245000E-03
					 7.48784000E-05	-3.93134000E-02	-6.20439000E-05
					-8.91005000E-04	-3.94666000E-02	 4.56151000E-03
					 5.66677000E-05	-3.54383000E-02	-9.92331000E-05
					-3.82177000E-04	-3.98267000E-02	 2.27995000E-03
					-3.28426000E-04	-3.55687000E-02	 3.98527000E-03
					 1.21384000E-03	-3.86387000E-02	-4.83931000E-03
					 9.66736000E-04	-3.97690000E-02	-4.76517000E-03
					 6.27074000E-04	-3.50549000E-02	-4.21953000E-03
					 5.35180000E-04	-3.86844000E-02	-2.47491000E-03
					 1.05454000E-03	-3.93354000E-02	-4.69312000E-03
					 4.08094000E-04	-3.55245000E-02	-4.16270000E-03
					 5.16234000E-04	-3.97186000E-02	-2.39244000E-03
					 8.47090000E-05	-4.03703000E-02	-1.43413000E-05
					-6.64847000E-04	-4.06674000E-02	 4.71415000E-03
					 7.18428000E-05	-4.01022000E-02	-6.46313000E-05
					-6.99709000E-04	-4.01215000E-02	 4.75935000E-03
					 6.42384000E-05	-3.57408000E-02	 4.74439000E-06
					-2.06790000E-04	-4.05019000E-02	 2.19234000E-03
					-2.22102000E-04	-3.59186000E-02	 4.07300000E-03
					 8.23788000E-04	-4.05594000E-02	-4.78817000E-03
					 9.15829000E-04	-4.01804000E-02	-4.80118000E-03
					 3.21867000E-04	-3.58550000E-02	-4.07777000E-03
					 3.88858000E-04	-4.04554000E-02	-2.35761000E-03
					 1.22627000E-04	-4.93224000E-02	-3.68472000E-04
					-9.83970000E-04	-4.86313000E-02	 4.96818000E-03
					 1.06829000E-04	-5.05228000E-02	 1.08668000E-04
					-8.41785000E-04	-5.01285000E-02	 5.17757000E-03
					-5.08288000E-05	-4.39512000E-02	-9.15958000E-06
					-3.02255000E-04	-4.89386000E-02	 2.35893000E-03
					-9.25809000E-04	-4.38466000E-02	 4.92560000E-03
					 1.34200000E-04	-4.98049000E-02	-1.08047000E-04
					-9.48370000E-04	-4.95037000E-02	 5.03888000E-03
					 8.56434000E-06	-4.48201000E-02	 1.32388000E-05
					-3.20909000E-04	-5.03199000E-02	 2.60754000E-03
					-8.63718000E-04	-4.50244000E-02	 5.08442000E-03
					 1.36353000E-04	-4.99687000E-02	-5.21958000E-03
					 6.54625000E-04	-5.08497000E-02	-5.84706000E-03
					 1.10435000E-03	-4.38304000E-02	-5.14755000E-03
					 2.29242000E-04	-4.96890000E-02	-2.58956000E-03
					 4.06367000E-04	-5.02355000E-02	-5.71876000E-03
					 9.54800000E-04	-4.49055000E-02	-5.35561000E-03
					 3.71233000E-04	-5.06586000E-02	-2.79271000E-03
					 2.65768000E-04	-5.12756000E-02	 1.09389000E-04
					-2.78293000E-04	-5.07589000E-02	 5.59114000E-03
					 1.50948000E-04	-5.08978000E-02	 8.28253000E-05
					-5.83788000E-04	-5.05086000E-02	 5.15257000E-03
					 1.13521000E-04	-4.57301000E-02	 4.67210000E-05
					-5.22436000E-05	-5.09827000E-02	 3.00354000E-03
					-8.41092000E-04	-4.58955000E-02	 5.18863000E-03
					 7.98104000E-04	-5.17544000E-02	-5.92229000E-03
					 7.60749000E-04	-5.12272000E-02	-5.81383000E-03
					 8.34217000E-04	-4.57582000E-02	-5.44822000E-03
					 5.23136000E-04	-5.15198000E-02	-2.81817000E-03
					 0.00000000E+00	 0.00000000E+00	 0.00000000E+00
					 0.00000000E+00	 0.00000000E+00	 0.00000000E+00
					 3.36192000E-05	-1.64241000E-02	-3.39203000E-04
					-3.13829000E-03	-1.76090000E-02	 1.56379000E-02
					 0.00000000E+00	 0.00000000E+00	 0.00000000E+00
					 0.00000000E+00	 0.00000000E+00	 0.00000000E+00
					-5.63200000E-05	-1.83494000E-02	-4.46385000E-04
					-9.60478000E-04	-1.96242000E-02	 1.57758000E-02
					 0.00000000E+00	 0.00000000E+00	 0.00000000E+00
					 3.32702000E-05	-3.49928000E-03	-7.55475000E-05
					-1.56759000E-03	-1.66365000E-02	 7.60435000E-03
					-2.81938000E-03	-5.01487000E-03	 8.02510000E-03
					 0.00000000E+00	 0.00000000E+00	 0.00000000E+00
					 0.00000000E+00	 0.00000000E+00	 0.00000000E+00
					 1.20353000E-05	-1.77625000E-02	-4.09247000E-04
					-2.03442000E-03	-1.89503000E-02	 1.56266000E-02
					 0.00000000E+00	 0.00000000E+00	 0.00000000E+00
					-4.08593000E-05	-4.97436000E-03	-1.32091000E-04
					-5.16518000E-04	-1.85938000E-02	 7.47006000E-03
					-4.54920000E-04	-6.43315000E-03	 7.82212000E-03
					 0.00000000E+00	 0.00000000E+00	 0.00000000E+00
					 2.95866000E-03	-1.72343000E-02	-1.65337000E-02
					 0.00000000E+00	 0.00000000E+00	 0.00000000E+00
					 8.67658000E-04	-1.90419000E-02	-1.68081000E-02
					 0.00000000E+00	 0.00000000E+00	 0.00000000E+00
					 2.76820000E-03	-4.86519000E-03	-8.31320000E-03
					 1.52698000E-03	-1.64502000E-02	-8.37912000E-03
					 0.00000000E+00	 0.00000000E+00	 0.00000000E+00
					 1.89210000E-03	-1.84321000E-02	-1.65694000E-02
					 0.00000000E+00	 0.00000000E+00	 0.00000000E+00
					 4.03256000E-04	-6.30477000E-03	-8.17514000E-03
					 4.33615000E-04	-1.82919000E-02	-8.41906000E-03
					 0.00000000E+00	 0.00000000E+00	 0.00000000E+00
					 0.00000000E+00	 0.00000000E+00	 0.00000000E+00
					-4.62526000E-05	-1.82189000E-02	-3.83778000E-04
					 1.07043000E-03	-1.93168000E-02	 1.55987000E-02
					 0.00000000E+00	 0.00000000E+00	 0.00000000E+00
					 0.00000000E+00	 0.00000000E+00	 0.00000000E+00
					-8.38606000E-05	-1.85940000E-02	-4.26125000E-04
					 4.89119000E-05	-1.98490000E-02	 1.57881000E-02
					 0.00000000E+00	 0.00000000E+00	 0.00000000E+00
					-7.05031000E-05	-4.37122000E-03	-1.56556000E-04
					 4.91498000E-04	-1.83983000E-02	 7.35202000E-03
					 1.92425000E-03	-5.72338000E-03	 8.00065000E-03
					 0.00000000E+00	 0.00000000E+00	 0.00000000E+00
					-1.20489000E-03	-1.88153000E-02	-1.66248000E-02
					 0.00000000E+00	 0.00000000E+00	 0.00000000E+00
					-1.11753000E-04	-1.92822000E-02	-1.68360000E-02
					 0.00000000E+00	 0.00000000E+00	 0.00000000E+00
					-2.05304000E-03	-5.58525000E-03	-8.35440000E-03
					-6.28903000E-04	-1.81607000E-02	-8.23733000E-03
					-7.36236000E-05	-6.32721000E-02	-1.51386000E-03
					-3.77355000E-03	-6.48013000E-02	 2.74259000E-02
					-2.19014000E-05	-6.60105000E-02	-1.82656000E-03
					-1.91708000E-03	-6.75630000E-02	 2.73486000E-02
					-1.56123000E-05	-3.64915000E-02	-8.23630000E-04
					-1.88594000E-03	-6.38540000E-02	 1.28377000E-02
					-3.39172000E-03	-3.80136000E-02	 2.22019000E-02
					-6.92065000E-05	-6.48129000E-02	-1.68678000E-03
					-2.83613000E-03	-6.64297000E-02	 2.73301000E-02
					 1.09223000E-05	-3.88749000E-02	-9.64779000E-04
					-9.81283000E-04	-6.65984000E-02	 1.26866000E-02
					-1.49123000E-03	-4.04290000E-02	 2.20757000E-02
					 3.58162000E-03	-6.31931000E-02	-3.07567000E-02
					 1.90865000E-03	-6.60571000E-02	-3.10160000E-02
					 3.32563000E-03	-3.69799000E-02	-2.39705000E-02
					 1.76977000E-03	-6.30676000E-02	-1.59949000E-02
					 2.76370000E-03	-6.47912000E-02	-3.08994000E-02
					 1.42291000E-03	-3.93811000E-02	-2.42028000E-02
					 9.31934000E-04	-6.58805000E-02	-1.62705000E-02
					 6.73323000E-05	-6.70877000E-02	-1.86762000E-03
					-2.31394000E-04	-6.87755000E-02	 2.71494000E-02
					 4.91071000E-05	-6.67726000E-02	-1.87071000E-03
					-1.06282000E-03	-6.83719000E-02	 2.73374000E-02
					-3.64725000E-05	-3.93782000E-02	-9.86517000E-04
					-8.63790000E-05	-6.77251000E-02	 1.24797000E-02
					 4.54295000E-04	-4.08429000E-02	 2.20555000E-02
					 2.65348000E-04	-6.70988000E-02	-3.11048000E-02
					 1.06400000E-03	-6.67806000E-02	-3.11867000E-02
					-5.27570000E-04	-3.98159000E-02	-2.41862000E-02
					 1.48683000E-04	-6.68975000E-02	-1.62809000E-02
					 4.40224000E-05	-1.33049000E-01	-4.31489000E-03
					-3.57796000E-03	-1.35086000E-01	 3.36896000E-02
					 6.68391000E-05	-1.36152000E-01	-4.39057000E-03
					-2.62482000E-03	-1.38117000E-01	 3.36542000E-02
					 1.04856000E-05	-9.59234000E-02	-2.76609000E-03
					-1.79306000E-03	-1.33920000E-01	 1.45264000E-02
					-3.60923000E-03	-9.77472000E-02	 3.13134000E-02
					 4.93642000E-05	-1.34751000E-01	-4.35398000E-03
					-3.12730000E-03	-1.36677000E-01	 3.36405000E-02
					 3.81470000E-06	-9.88517000E-02	-2.98096000E-03
					-1.28270000E-03	-1.37001000E-01	 1.44153000E-02
					-2.28487000E-03	-1.00637000E-01	 3.12350000E-02
					 3.58210000E-03	-1.32053000E-01	-4.22895000E-02
					 2.65315000E-03	-1.35177000E-01	-4.25306000E-02
					 3.57607000E-03	-9.55103000E-02	-3.69710000E-02
					 1.84020000E-03	-1.32405000E-01	-2.31119000E-02
					 3.12370000E-03	-1.33728000E-01	-4.23672000E-02
					 2.23691000E-03	-9.83483000E-02	-3.72016000E-02
					 1.36490000E-03	-1.35572000E-01	-2.32635000E-02
					 1.64837000E-04	-1.38324000E-01	-4.49808000E-03
					-1.70648000E-03	-1.40411000E-01	 3.35100000E-02
					 1.12510000E-04	-1.37342000E-01	-4.44841000E-03
					-2.17197000E-03	-1.39301000E-01	 3.36976000E-02
					 3.25327000E-05	-1.00479000E-01	-3.04120000E-03
					-7.43819000E-04	-1.39220000E-01	 1.41734000E-02
					-9.99923000E-04	-1.02303000E-01	 3.10244000E-02
					 1.73915000E-03	-1.37409000E-01	-4.25252000E-02
					 2.20467000E-03	-1.36441000E-01	-4.26553000E-02
					 7.91410000E-04	-9.98732000E-02	-3.71896000E-02
					 9.92531000E-04	-1.37779000E-01	-2.32098000E-02
					 3.95187000E-04	-2.15135000E-01	-7.84311000E-03
					-3.26786000E-03	-2.16854000E-01	 3.37618000E-02