<?xml version="1.0"?>
<VTKFile type="UnstructuredGrid" version="0.1" byte_order="LittleEndian">
	<UnstructuredGrid>
		<Piece NumberOfPoints="522" NumberOfCells="64">
			<Points>
				<DataArray type="Float64" NumberOfComponents="3" format="ascii">
					 1.00000000E+00	 1.00000000E+00	-5.96046000E-08
					 1.00000000E+00	 5.00000000E-01	-5.96046000E-08
					 1.00000000E+00	 5.00000000E-01	 1.00000000E+00
					 1.00000000E+00	 1.00000000E+00	 1.00000000E+00
					 5.00000000E-01	 1.00000000E+00	-5.96046000E-08
					 5.00000000E-01	 5.00000000E-01	-5.96046000E-08
					 5.00000000E-01	 5.00000000E-01	 1.00000000E+00
					 5.00000000E-01	 1.00000000E+00	 1.00000000E+00
					 1.00000000E+00	 7.50000000E-01	-5.96046000E-08
					 1.00000000E+00	 5.00000000E-01	 5.00000000E-01
					 1.00000000E+00	 7.50000000E-01	 1.00000000E+00
					 1.00000000E+00	 1.00000000E+00	 5.00000000E-01
					 7.50000000E-01	 1.00000000E+00	-5.96046000E-08
					 7.50000000E-01	 5.00000000E-01	-5.96046000E-08
					 7.50000000E-01	 5.00000000E-01	 1.00000000E+00
					 7.50000000E-01	 1.00000000E+00	 1.00000000E+00
					 5.00000000E-01	 7.50000000E-01	-5.96046000E-08
					 5.00000000E-01	 5.00000000E-01	 5.00000000E-01
					 5.00000000E-01	 7.50000000E-01	 1.00000000E+00
					 5.00000000E-01	 1.00000000E+00	 5.00000000E-01
					 1.00000000E+00	-1.49012000E-08	-5.96046000E-08
					 1.00000000E+00	-1.49012000E-08	 1.00000000E+00
					 5.00000000E-01	-1.49012000E-08	-5.96046000E-08
					 5.00000000E-01	-1.49012000E-08	 1.00000000E+00
					 1.00000000E+00	 2.50000000E-01	-5.96046000E-08
					 1.00000000E+00	-1.49012000E-08	 5.00000000E-01
					 1.00000000E+00	 2.50000000E-01	 1.00000000E+00
					 7.50000000E-01	-1.49012000E-08	-5.96046000E-08
					 7.50000000E-01	-1.49012000E-08	 1.00000000E+00
					 5.00000000E-01	 2.50000000E-01	-5.96046000E-08
					 5.00000000E-01	-1.49012000E-08	 5.00000000E-01
					 5.00000000E-01	 2.50000000E-01	 1.00000000E+00
					-7.45058000E-09	 1.00000000E+00	-5.96046000E-08
					-7.45058000E-09	 5.00000000E-01	-5.96046000E-08
					-7.45058000E-09	 5.00000000E-01	 1.00000000E+00
					-7.45058000E-09	 1.00000000E+00	 1.00000000E+00
					 2.50000000E-01	 1.00000000E+00	-5.96046000E-08
					 2.50000000E-01	 5.00000000E-01	-5.96046000E-08
					 2.50000000E-01	 5.00000000E-01	 1.00000000E+00
					 2.50000000E-01	 1.00000000E+00	 1.00000000E+00
					-7.45058000E-09	 7.50000000E-01	-5.96046000E-08
					-7.45058000E-09	 5.00000000E-01	 5.00000000E-01
					-7.45058000E-09	 7.50000000E-01	 1.00000000E+00
					-7.45058000E-09	 1.00000000E+00	 5.00000000E-01
					-7.45058000E-09	-1.49012000E-08	-5.96046000E-08
					-7.45058000E-09	-1.49012000E-08	 1.00000000E+00
					 2.50000000E-01	-1.49012000E-08	-5.96046000E-08
					 2.50000000E-01	-1.49012000E-08	 1.00000000E+00
					-7.45058000E-09	 2.50000000E-01	-5.96046000E-08
					-7.45058000E-09	-1.49012000E-08	 5.00000000E-01
					-7.45058000E-09	 2.50000000E-01	 1.00000000E+00
					 1.00000000E+00	 5.00000000E-01	 2.00000000E+00
					 1.00000000E+00	 1.00000000E+00	 2.00000000E+00
					 5.00000000E-01	 5.00000000E-01	 2.00000000E+00
					 5.00000000E-01	 1.00000000E+00	 2.00000000E+00
					 1.00000000E+00	 5.00000000E-01	 1.50000000E+00
					 1.00000000E+00	 7.50000000E-01	 2.00000000E+00
					 1.00000000E+00	 1.00000000E+00	 1.50000000E+00
					 7.50000000E-01	 5.00000000E-01	 2.00000000E+00
					 7.50000000E-01	 1.00000000E+00	 2.00000000E+00
					 5.00000000E-01	 5.00000000E-01	 1.50000000E+00
					 5.00000000E-01	 7.50000000E-01	 2.00000000E+00
					 5.00000000E-01	 1.00000000E+00	 1.50000000E+00
					 1.00000000E+00	-1.49012000E-08	 2.00000000E+00
					 5.00000000E-01	-1.49012000E-08	 2.00000000E+00
					 1.00000000E+00	-1.49012000E-08	 1.50000000E+00
					 1.00000000E+00	 2.50000000E-01	 2.00000000E+00
					 7.50000000E-01	-1.49012000E-08	 2.00000000E+00
					 5.00000000E-01	-1.49012000E-08	 1.50000000E+00
					 5.00000000E-01	 2.50000000E-01	 2.00000000E+00
					-7.45058000E-09	 5.00000000E-01	 2.00000000E+00
					-7.45058000E-09	 1.00000000E+00	 2.00000000E+00
					 2.50000000E-01	 5.00000000E-01	 2.00000000E+00
					 2.50000000E-01	 1.00000000E+00	 2.00000000E+00
					-7.45058000E-09	 5.00000000E-01	 1.50000000E+00
					-7.45058000E-09	 7.50000000E-01	 2.00000000E+00
					-7.45058000E-09	 1.00000000E+00	 1.50000000E+00
					-7.45058000E-09	-1.49012000E-08	 2.00000000E+00
					 2.50000000E-01	-1.49012000E-08	 2.00000000E+00
					-7.45058000E-09	-1.49012000E-08	 1.50000000E+00
					-7.45058000E-09	 2.50000000E-01	 2.00000000E+00
					 1.00000000E+00	 5.00000000E-01	 3.00000000E+00
					 1.00000000E+00	 1.00000000E+00	 3.00000000E+00
					 5.00000000E-01	 5.00000000E-01	 3.00000000E+00
					 5.00000000E-01	 1.00000000E+00	 3.00000000E+00
					 1.00000000E+00	 5.00000000E-01	 2.50000000E+00
					 1.00000000E+00	 7.50000000E-01	 3.00000000E+00
					 1.00000000E+00	 1.00000000E+00	 2.50000000E+00
					 7.50000000E-01	 5.00000000E-01	 3.00000000E+00
					 7.50000000E-01	 1.00000000E+00	 3.00000000E+00
					 5.00000000E-01	 5.00000000E-01	 2.50000000E+00
					 5.00000000E-01	 7.50000000E-01	 3.00000000E+00
					 5.00000000E-01	 1.00000000E+00	 2.50000000E+00
					 1.00000000E+00	-1.49012000E-08	 3.00000000E+00
					 5.00000000E-01	-1.49012000E-08	 3.00000000E+00
					 1.00000000E+00	-1.49012000E-08	 2.50000000E+00
					 1.00000000E+00	 2.50000000E-01	 3.00000000E+00
					 7.50000000E-01	-1.49012000E-08	 3.00000000E+00
					 5.00000000E-01	-1.49012000E-08	 2.50000000E+00
					 5.00000000E-01	 2.50000000E-01	 3.00000000E+00
					-7.45058000E-09	 5.00000000E-01	 3.00000000E+00
					-7.45058000E-09	 1.00000000E+00	 3.00000000E+00
					 2.50000000E-01	 5.00000000E-01	 3.00000000E+00
					 2.50000000E-01	 1.00000000E+00	 3.00000000E+00
					-7.45058000E-09	 5.00000000E-01	 2.50000000E+00
					-7.45058000E-09	 7.50000000E-01	 3.00000000E+00
					-7.45058000E-09	 1.00000000E+00	 2.50000000E+00
					-7.45058000E-09	-1.49012000E-08	 3.00000000E+00
					 2.50000000E-01	-1.49012000E-08	 3.00000000E+00
					-7.45058000E-09	-1.49012000E-08	 2.50000000E+00
					-7.45058000E-09	 2.50000000E-01	 3.00000000E+00
					 1.00000000E+00	 5.00000000E-01	 4.00000000E+00
					 1.00000000E+00	 1.00000000E+00	 4.00000000E+00
					 5.00000000E-01	 5.00000000E-01	 4.00000000E+00
					 5.00000000E-01	 1.00000000E+00	 4.00000000E+00
					 1.00000000E+00	 5.00000000E-01	 3.50000000E+00
					 1.00000000E+00	 7.50000000E-01	 4.00000000E+00
					 1.00000000E+00	 1.00000000E+00	 3.50000000E+00
					 7.50000000E-01	 5.00000000E-01	 4.00000000E+00
					 7.50000000E-01	 1.00000000E+00	 4.00000000E+00
					 5.00000000E-01	 5.00000000E-01	 3.50000000E+00
					 5.00000000E-01	 7.50000000E-01	 4.00000000E+00
					 5.00000000E-01	 1.00000000E+00	 3.50000000E+00
					 1.00000000E+00	-1.49012000E-08	 4.00000000E+00
					 5.00000000E-01	-1.49012000E-08	 4.00000000E+00
					 1.00000000E+00	-1.49012000E-08	 3.50000000E+00
					 1.00000000E+00	 2.50000000E-01	 4.00000000E+00
					 7.50000000E-01	-1.49012000E-08	 4.00000000E+00
					 5.00000000E-01	-1.49012000E-08	 3.50000000E+00
					 5.00000000E-01	 2.50000000E-01	 4.00000000E+00
					-7.45058000E-09	 5.00000000E-01	 4.00000000E+00
					-7.45058000E-09	 1.00000000E+00	 4.00000000E+00
					 2.50000000E-01	 5.00000000E-01	 4.00000000E+00
					 2.50000000E-01	 1.00000000E+00	 4.00000000E+00
					-7.45058000E-09	 5.00000000E-01	 3.50000000E+00
					-7.45058000E-09	 7.50000000E-01	 4.00000000E+00
					-7.45058000E-09	 1.00000000E+00	 3.50000000E+00
					-7.45058000E-09	-1.49012000E-08	 4.00000000E+00
					 2.50000000E-01	-1.49012000E-08	 4.00000000E+00
					-7.45058000E-09	-1.49012000E-08	 3.50000000E+00
					-7.45058000E-09	 2.50000000E-01	 4.00000000E+00
					 1.00000000E+00	 5.00000000E-01	 5.00000000E+00
					 1.00000000E+00	 1.00000000E+00	 5.00000000E+00
					 5.00000000E-01	 5.00000000E-01	 5.00000000E+00
					 5.00000000E-01	 1.00000000E+00	 5.00000000E+00
					 1.00000000E+00	 5.00000000E-01	 4.50000000E+00
					 1.00000000E+00	 7.50000000E-01	 5.00000000E+00
					 1.00000000E+00	 1.00000000E+00	 4.50000000E+00
					 7.50000000E-01	 5.00000000E-01	 5.00000000E+00
					 7.50000000E-01	 1.00000000E+00	 5.00000000E+00
					 5.00000000E-01	 5.00000000E-01	 4.50000000E+00
					 5.00000000E-01	 7.50000000E-01	 5.00000000E+00
					 5.00000000E-01	 1.00000000E+00	 4.50000000E+00
					 1.00000000E+00	-1.49012000E-08	 5.00000000E+00
					 5.00000000E-01	-1.49012000E-08	 5.00000000E+00
					 1.00000000E+00	-1.49012000E-08	 4.50000000E+00
					 1.00000000E+00	 2.50000000E-01	 5.00000000E+00
					 7.50000000E-01	-1.49012000E-08	 5.00000000E+00
					 5.00000000E-01	-1.49012000E-08	 4.50000000E+00
					 5.00000000E-01	 2.50000000E-01	 5.00000000E+00
					-7.45058000E-09	 5.00000000E-01	 5.00000000E+00
					-7.45058000E-09	 1.00000000E+00	 5.00000000E+00
					 2.50000000E-01	 5.00000000E-01	 5.00000000E+00
					 2.50000000E-01	 1.00000000E+00	 5.00000000E+00
					-7.45058000E-09	 5.00000000E-01	 4.50000000E+00
					-7.45058000E-09	 7.50000000E-01	 5.00000000E+00
					-7.45058000E-09	 1.00000000E+00	 4.50000000E+00
					-7.45058000E-09	-1.49012000E-08	 5.00000000E+00
					 2.50000000E-01	-1.49012000E-08	 5.00000000E+00
					-7.45058000E-09	-1.49012000E-08	 4.50000000E+00
					-7.45058000E-09	 2.50000000E-01	 5.00000000E+00
					 1.00000000E+00	 5.00000000E-01	 6.00000000E+00
					 1.00000000E+00	 1.00000000E+00	 6.00000000E+00
					 5.00000000E-01	 5.00000000E-01	 6.00000000E+00
					 5.00000000E-01	 1.00000000E+00	 6.00000000E+00
					 1.00000000E+00	 5.00000000E-01	 5.50000000E+00
					 1.00000000E+00	 7.50000000E-01	 6.00000000E+00
					 1.00000000E+00	 1.00000000E+00	 5.50000000E+00
					 7.50000000E-01	 5.00000000E-01	 6.00000000E+00
					 7.50000000E-01	 1.00000000E+00	 6.00000000E+00
					 5.00000000E-01	 5.00000000E-01	 5.50000000E+00
					 5.00000000E-01	 7.50000000E-01	 6.00000000E+00
					 5.00000000E-01	 1.00000000E+00	 5.50000000E+00
					 1.00000000E+00	-1.49012000E-08	 6.00000000E+00
[...]
			<PointData>
				<DataArray type="Float32" Name="U" NumberOfComponents="3" ComponentName0="D1" ComponentName1="D2" ComponentName2="D3" format="ascii">
					 0.00000000E+00	 0.00000000E+00	 0.00000000E+00
					 0.00000000E+00	 0.00000000E+00	 0.00000000E+00
					 1.97225000E-05	-3.53673000E-03	 2.67835000E-05
					-2.62920000E-04	-3.83464000E-03	 3.48309000E-03
					 0.00000000E+00	 0.00000000E+00	 0.00000000E+00
					 0.00000000E+00	 0.00000000E+00	 0.00000000E+00
					 4.37519000E-06	-3.55865000E-03	 5.41054000E-05
					 2.84808000E-04	-3.77509000E-03	 3.58443000E-03
					 0.00000000E+00	 0.00000000E+00	 0.00000000E+00
					-1.47875000E-05	-7.79222000E-04	 8.78125000E-06
					-1.51353000E-04	-3.59872000E-03	 1.74500000E-03
					-4.12376000E-04	-1.10239000E-03	 1.72302000E-03
					 0.00000000E+00	 0.00000000E+00	 0.00000000E+00
					 0.00000000E+00	 0.00000000E+00	 0.00000000E+00
					 5.74969000E-06	-3.67025000E-03	 4.30549000E-05
					 2.25780000E-05	-3.93565000E-03	 3.53618000E-03
					 0.00000000E+00	 0.00000000E+00	 0.00000000E+00
					-1.90959000E-05	-8.81241000E-04	 3.93782000E-05
					 1.23564000E-04	-3.57069000E-03	 1.79840000E-03
					 1.42486000E-04	-1.16154000E-03	 1.68090000E-03
					 0.00000000E+00	 0.00000000E+00	 0.00000000E+00
					 1.99300000E-04	-3.81517000E-03	-3.50160000E-03
					 0.00000000E+00	 0.00000000E+00	 0.00000000E+00
					-2.99732000E-04	-3.77109000E-03	-3.46965000E-03
					 0.00000000E+00	 0.00000000E+00	 0.00000000E+00
					 3.82641000E-04	-1.12518000E-03	-1.69012000E-03
					 1.23667000E-04	-3.57497000E-03	-1.72974000E-03
					 0.00000000E+00	 0.00000000E+00	 0.00000000E+00
					-4.74995000E-05	-3.87678000E-03	-3.49811000E-03
					 0.00000000E+00	 0.00000000E+00	 0.00000000E+00
					-1.43765000E-04	-1.17398000E-03	-1.62318000E-03
					-1.21117000E-04	-3.57006000E-03	-1.71533000E-03
					 0.00000000E+00	 0.00000000E+00	 0.00000000E+00
					 0.00000000E+00	 0.00000000E+00	 0.00000000E+00
					-2.00083000E-05	-3.01646000E-03	 1.00144000E-04
					 8.28938000E-04	-3.24586000E-03	 3.51196000E-03
					 0.00000000E+00	 0.00000000E+00	 0.00000000E+00
					 0.00000000E+00	 0.00000000E+00	 0.00000000E+00
					-3.33871000E-06	-3.35759000E-03	 4.48016000E-05
					 5.49995000E-04	-3.60114000E-03	 3.53501000E-03
					 0.00000000E+00	 0.00000000E+00	 0.00000000E+00
					-2.05080000E-05	-4.88244000E-04	 1.92627000E-05
					 4.34048000E-04	-3.05043000E-03	 1.83603000E-03
					 6.42017000E-04	-7.92579000E-04	 1.72352000E-03
					 0.00000000E+00	 0.00000000E+00	 0.00000000E+00
					-7.45097000E-04	-3.28010000E-03	-3.46414000E-03
					 0.00000000E+00	 0.00000000E+00	 0.00000000E+00
					-5.28047000E-04	-3.56881000E-03	-3.44307000E-03
					 0.00000000E+00	 0.00000000E+00	 0.00000000E+00
					-6.41923000E-04	-7.57644000E-04	-1.65950000E-03
					-4.02467000E-04	-3.05453000E-03	-1.69400000E-03
					 7.85218000E-06	-1.47578000E-02	-4.43613000E-05
					 8.30361000E-05	-1.50222000E-02	 6.98865000E-03
					 3.10856000E-05	-1.44230000E-02	-1.38382000E-04
					 5.69605000E-04	-1.47104000E-02	 7.02518000E-03
					 6.00484000E-05	-8.19800000E-03	-9.32513000E-06
					 6.02148000E-05	-1.48273000E-02	 3.40623000E-03
					-1.17189000E-04	-8.50059000E-03	 5.33987000E-03
					 1.49847000E-05	-1.46355000E-02	-9.94774000E-05
					 3.24570000E-04	-1.49066000E-02	 7.02037000E-03
					 2.59174000E-05	-8.04100000E-03	-1.64655000E-05
					 2.80793000E-04	-1.45231000E-02	 3.42767000E-03
					 4.24872000E-04	-8.33022000E-03	 5.35112000E-03
					-3.41346000E-05	-1.49078000E-02	-7.18993000E-03
					-5.09416000E-04	-1.46112000E-02	-7.15253000E-03
					 1.53185000E-04	-8.43485000E-03	-5.41364000E-03
					-2.91107000E-06	-1.47848000E-02	-3.53555000E-03
					-2.74064000E-04	-1.47935000E-02	-7.17231000E-03
					-3.87727000E-04	-8.33711000E-03	-5.36153000E-03
					-2.41782000E-04	-1.44727000E-02	-3.59534000E-03
					 1.86713000E-05	-1.36299000E-02	-8.37242000E-05
					 1.11422000E-03	-1.38966000E-02	 7.03338000E-03
					 2.85331000E-05	-1.40998000E-02	-8.37740000E-05
					 8.31102000E-04	-1.43895000E-02	 7.01212000E-03
					-1.29359000E-05	-7.43188000E-03	 2.40429000E-05
					 5.48898000E-04	-1.37110000E-02	 3.41045000E-03
					 9.30538000E-04	-7.64807000E-03	 5.33371000E-03
					-1.10439000E-03	-1.37902000E-02	-7.15953000E-03
					-7.99621000E-04	-1.42877000E-02	-7.17535000E-03
					-9.20318000E-04	-7.63983000E-03	-5.35728000E-03
					-4.86524000E-04	-1.36599000E-02	-3.55241000E-03
					 5.24001000E-05	-3.16601000E-02	-1.94794000E-04
					-6.96903000E-05	-3.19839000E-02	 9.23843000E-03
					 6.81066000E-05	-3.18039000E-02	-1.93192000E-04
					 4.48004000E-05	-3.20118000E-02	 9.33180000E-03
					 2.28749000E-05	-2.27061000E-02	-1.50998000E-04
					-7.17160000E-05	-3.17904000E-02	 4.55714000E-03
					 6.52535000E-05	-2.30251000E-02	 8.29038000E-03
					 4.93604000E-05	-3.17674000E-02	-1.99106000E-04
					-1.09796000E-05	-3.19472000E-02	 9.23396000E-03
					 4.03969000E-05	-2.24911000E-02	-1.47899000E-04
					 7.27871000E-05	-3.18575000E-02	 4.52703000E-03
					 3.88508000E-04	-2.27762000E-02	 8.34382000E-03
					 2.75767000E-04	-3.17465000E-02	-9.69735000E-03
					 1.85813000E-05	-3.17934000E-02	-9.66220000E-03
					-1.63817000E-05	-2.28455000E-02	-8.58792000E-03
					 1.89556000E-04	-3.16524000E-02	-4.97235000E-03
					 1.65051000E-04	-3.17612000E-02	-9.62909000E-03
					-3.37931000E-04	-2.26514000E-02	-8.57173000E-03
					 5.87170000E-05	-3.17653000E-02	-4.90129000E-03
					 7.56195000E-05	-3.15992000E-02	-1.19804000E-04
					 2.34723000E-04	-3.19537000E-02	 9.23956000E-03
					 7.97587000E-05	-3.17322000E-02	-1.71928000E-04
					 1.37709000E-04	-3.19568000E-02	 9.38225000E-03
					 3.92770000E-05	-2.19638000E-02	-1.08563000E-04
					 1.88050000E-04	-3.17543000E-02	 4.47231000E-03
					 7.49577000E-04	-2.22554000E-02	 8.31529000E-03
					-2.85477000E-04	-3.16671000E-02	-9.69338000E-03
					-1.48113000E-04	-3.17485000E-02	-9.76502000E-03
					-6.94564000E-04	-2.20258000E-02	-8.54352000E-03
					-1.00995000E-04	-3.15954000E-02	-4.80089000E-03
					 1.15131000E-04	-5.14658000E-02	-3.99727000E-04
					-1.19022000E-03	-5.15038000E-02	 1.06065000E-02
					 6.95318000E-05	-5.25052000E-02	-3.66311000E-04
					-8.63351000E-04	-5.26870000E-02	 1.06213000E-02
					 4.63640000E-05	-4.11751000E-02	-2.41378000E-04
					-4.67303000E-04	-5.14622000E-02	 5.15071000E-03
					-6.02519000E-04	-4.14235000E-02	 9.98713000E-03
					 9.61874000E-05	-5.20173000E-02	-4.00868000E-04
					-1.02100000E-03	-5.22054000E-02	 1.05588000E-02
					 5.11495000E-05	-4.17509000E-02	-2.56064000E-04
					-3.74681000E-04	-5.25694000E-02	 5.11087000E-03
					-4.05879000E-04	-4.19885000E-02	 9.99466000E-03
					 1.14978000E-03	-5.15195000E-02	-1.14367000E-02
					 1.00523000E-03	-5.24613000E-02	-1.14597000E-02
					 7.41852000E-04	-4.12217000E-02	-1.05782000E-02
					 6.23891000E-04	-5.14638000E-02	-5.97710000E-03
					 1.08214000E-03	-5.20426000E-02	-1.13823000E-02
					 5.27508000E-04	-4.17417000E-02	-1.06043000E-02
					 5.05270000E-04	-5.24618000E-02	-5.90265000E-03
					 9.98425000E-05	-5.32769000E-02	-4.08868000E-04
					-5.05577000E-04	-5.34369000E-02	 1.06665000E-02
					 8.15394000E-05	-5.29142000E-02	-3.88318000E-04
					-6.87614000E-04	-5.31258000E-02	 1.06676000E-02
					 5.40139000E-05	-4.20803000E-02	-2.45624000E-04
					-1.97526000E-04	-5.33212000E-02	 5.06414000E-03
					-2.26858000E-04	-4.23441000E-02	 9.99230000E-03
					 7.66182000E-04	-5.33609000E-02	-1.13684000E-02
					 8.78163000E-04	-5.29134000E-02	-1.14336000E-02
					 3.64025000E-04	-4.21415000E-02	-1.05503000E-02
					 3.78148000E-04	-5.32918000E-02	-5.89089000E-03
					 4.95514000E-05	-7.50332000E-02	-7.29772000E-04
					-1.02123000E-03	-7.54163000E-02	 1.14573000E-02
					 9.27421000E-05	-7.62505000E-02	-7.93466000E-04
					-1.04319000E-03	-7.64036000E-02	 1.14230000E-02
					 1.13953000E-04	-6.29257000E-02	-5.87307000E-04
					-4.83372000E-04	-7.52227000E-02	 5.28288000E-03
					-1.22705000E-03	-6.30416000E-02	 1.11236000E-02
					 6.26264000E-05	-7.56617000E-02	-7.34957000E-04
					-1.02428000E-03	-7.59153000E-02	 1.14857000E-02
					 1.07361000E-04	-6.40652000E-02	-5.90951000E-04
					-4.78611000E-04	-7.63097000E-02	 5.27090000E-03
					-9.60960000E-04	-6.42795000E-02	 1.11786000E-02
					 1.43369000E-03	-7.48540000E-02	-1.28385000E-02
					 1.19648000E-03	-7.61164000E-02	-1.29765000E-02
					 1.38780000E-03	-6.28132000E-02	-1.22154000E-02
					 7.02193000E-04	-7.49403000E-02	-6.73768000E-03
					 1.31758000E-03	-7.55394000E-02	-1.29215000E-02
					 1.13144000E-03	-6.39962000E-02	-1.23315000E-02
					 6.69543000E-04	-7.61883000E-02	-6.81016000E-03
					 1.71066000E-04	-7.73387000E-02	-7.69460000E-04
					-1.07886000E-03	-7.76666000E-02	 1.13676000E-02
					 1.38766000E-04	-7.68013000E-02	-7.60493000E-04
					-1.05491000E-03	-7.70264000E-02	 1.14184000E-02
					 1.00908000E-04	-6.50346000E-02	-5.97126000E-04
					-4.51466000E-04	-7.75002000E-02	 5.24991000E-03
					-8.08777000E-04	-6.52339000E-02	 1.11449000E-02
					 1.03452000E-03	-7.70202000E-02	-1.29153000E-02
					 1.12792000E-03	-7.66338000E-02	-1.29646000E-02
					 9.34738000E-04	-6.49563000E-02	-1.22696000E-02
					 6.18293000E-04	-7.71638000E-02	-6.76412000E-03
					 1.43585000E-04	-1.00237000E-01	-9.01641000E-04
					-7.48904000E-04	-1.00477000E-01	 1.11008000E-02
					 1.76835000E-04	-1.01229000E-01	-9.58595000E-04
					-8.65042000E-04	-1.01314000E-01	 1.10192000E-02
					 1.14414000E-04	-8.77164000E-02	-8.36020000E-04
					-3.51813000E-04	-1.00345000E-01	 5.06868000E-03
					-9.14665000E-04	-8.79530000E-02	 1.14342000E-02
					 1.69186000E-04	-1.00742000E-01	-9.30679000E-04
					-8.29348000E-04	-1.00811000E-01	 1.10258000E-02
					 1.49750000E-04	-8.88171000E-02	-8.66947000E-04
					-3.53641000E-04	-1.01287000E-01	 5.02466000E-03
					-9.38057000E-04	-8.89564000E-02	 1.13376000E-02
					 1.01477000E-03	-1.00160000E-01	-1.29756000E-02
					 1.19303000E-03	-1.01067000E-01	-1.29584000E-02
					 1.18995000E-03	-8.76003000E-02	-1.30639000E-02
					 6.20140000E-04	-1.00192000E-01	-6.90207000E-03
					 1.10181000E-03	-1.00583000E-01	-1.30313000E-02
					 1.21267000E-03	-8.85894000E-02	-1.30908000E-02
					 6.54667000E-04	-1.01147000E-01	-6.97479000E-03
					 1.54655000E-04	-1.02298000E-01	-1.04622000E-03
					-1.03170000E-03	-1.02456000E-01	 1.09574000E-02
					 1.51076000E-04	-1.01742000E-01	-1.02258000E-03
					-9.22005000E-04	-1.01825000E-01	 1.09924000E-02
					 1.59803000E-04	-8.98645000E-02	-8.98822000E-04
					-4.03766000E-04	-1.02362000E-01	 4.95136000E-03
					-9.66749000E-04	-9.00634000E-02	 1.13452000E-02
					 1.30173000E-03	-1.02175000E-01	-1.31500000E-02
					 1.26037000E-03	-1.01587000E-01	-1.30662000E-02
					 1.19999000E-03	-8.97149000E-02	-1.31863000E-02
					 7.24557000E-04	-1.02257000E-01	-7.06718000E-03
					 1.86232000E-04	-1.23919000E-01	-1.40184000E-03
					-5.51198000E-04	-1.24144000E-01	 1.03705000E-02
					 1.65363000E-04	-1.24682000E-01	-1.35553000E-03
					-5.81438000E-04	-1.24788000E-01	 1.03996000E-02
					 1.24636000E-04	-1.12166000E-01	-1.16986000E-03
					-1.71762000E-04	-1.24046000E-01	 4.49817000E-03
					-7.04477000E-04	-1.12280000E-01	 1.06798000E-02
					 1.64744000E-04	-1.24302000E-01	-1.36326000E-03
					-5.43712000E-04	-1.24502000E-01	 1.04350000E-02
					 1.34732000E-04	-1.13037000E-01	-1.15996000E-03
					-2.13038000E-04	-1.24723000E-01	 4.55813000E-03
					-7.69755000E-04	-1.13161000E-01	 1.06328000E-02
					 9.71895000E-04	-1.23670000E-01	-1.29872000E-02
					 8.95665000E-04	-1.24527000E-01	-1.29761000E-02
					 9.57898000E-04	-1.12037000E-01	-1.29656000E-02
					 5.76457000E-04	-1.23809000E-01	-7.15122000E-03
					 9.59751000E-04	-1.24080000E-01	-1.29778000E-02
					 1.03945000E-03	-1.12938000E-01	-1.29142000E-02
					 5.23721000E-04	-1.24622000E-01	-7.18403000E-03
					 1.36976000E-04	-1.25374000E-01	-1.36989000E-03
					-4.36827000E-04	-1.25589000E-01	 1.04564000E-02
					 1.70024000E-04	-1.25012000E-01	-1.34206000E-03
					-5.44590000E-04	-1.25231000E-01	 1.04440000E-02
					 1.63735000E-04	-1.13974000E-01	-1.19682000E-03
					-2.03152000E-04	-1.25514000E-01	 4.57181000E-03
					-8.29329000E-04	-1.14049000E-01	 1.05956000E-02
					 8.10044000E-04	-1.25254000E-01	-1.30351000E-02
					 8.32336000E-04	-1.24942000E-01	-1.29572000E-02
					 1.01374000E-03	-1.13756000E-01	-1.29996000E-02
					 5.25366000E-04	-1.25301000E-01	-7.28078000E-03
					-4.43173000E-05	-1.47308000E-01	-1.19331000E-03
					-3.32930000E-04	-1.47696000E-01	 1.01970000E-02
					 1.42412000E-04	-1.47916000E-01	-1.44041000E-03
					-1.47377000E-04	-1.47682000E-01	 9.90302000E-03
					 1.60653000E-04	-1.35737000E-01	-1.34055000E-03
					-2.19575000E-04	-1.47493000E-01	 4.42384000E-03
					-3.66175000E-04	-1.35935000E-01	 1.02417000E-02
					 4.70779000E-05	-1.47607000E-01	-1.36577000E-03
					-2.67600000E-04	-1.47619000E-01	 1.00335000E-02
					 2.00819000E-04	-1.36290000E-01	-1.38167000E-03
					-1.96251000E-05	-1.47835000E-01	 4.29984000E-03
					-4.11218000E-04	-1.36449000E-01	 1.01563000E-02
					 4.07275000E-04	-1.46838000E-01	-1.25638000E-02
					 6.22837000E-04	-1.48178000E-01	-1.34522000E-02
					 9.33345000E-04	-1.35510000E-01	-1.27531000E-02
					 9.79811000E-05	-1.47063000E-01	-7.01372000E-03
					 4.92673000E-04	-1.47529000E-01	-1.31342000E-02
					 8.38028000E-04	-1.36123000E-01	-1.31970000E-02
					 3.45894000E-04	-1.48039000E-01	-7.36232000E-03
					 4.86754000E-04	-1.48790000E-01	-1.09219000E-03
					 2.64657000E-04	-1.48978000E-01	 1.09298000E-02
					 2.86005000E-04	-1.48445000E-01	-1.38195000E-03
					 7.14852000E-05	-1.48300000E-01	 1.03066000E-02
					 2.13904000E-04	-1.36842000E-01	-1.27588000E-03
					 4.56657000E-04	-1.48830000E-01	 4.91739000E-03
					-4.75388000E-04	-1.37110000E-01	 1.05724000E-02
					 7.44215000E-04	-1.49065000E-01	-1.38928000E-02
					 7.28720000E-04	-1.48615000E-01	-1.36925000E-02
					 7.18048000E-04	-1.36654000E-01	-1.33227000E-02
					 5.84375000E-04	-1.48915000E-01	-7.39687000E-03
					 0.00000000E+00	 0.00000000E+00	 0.00000000E+00
					 0.00000000E+00	 0.00000000E+00	 0.00000000E+00
					 1.01948000E-04	-1.36564000E-02	-3.21599000E-04
					-1.73539000E-03	-1.42995000E-02	 1.20919000E-02
					 0.00000000E+00	 0.00000000E+00	 0.00000000E+00
					 0.00000000E+00	 0.00000000E+00	 0.00000000E+00
					 3.57370000E-05	-1.45880000E-02	-2.46949000E-04
					-2.12705000E-04	-1.54900000E-02	 1.22311000E-02
					 0.00000000E+00	 0.00000000E+00	 0.00000000E+00
					-2.99719000E-05	-3.12416000E-03	-1.17618000E-04
					-7.88345000E-04	-1.37112000E-02	 5.67875000E-03
					-1.95967000E-03	-4.13794000E-03	 6.32605000E-03
					 0.00000000E+00	 0.00000000E+00	 0.00000000E+00
					 0.00000000E+00	 0.00000000E+00	 0.00000000E+00
					 8.28756000E-05	-1.43419000E-02	-2.62622000E-04
					-9.64944000E-04	-1.51458000E-02	 1.21218000E-02
					 0.00000000E+00	 0.00000000E+00	 0.00000000E+00
					-2.76606000E-05	-4.05653000E-03	-6.13212000E-05
					-6.99218000E-05	-1.47555000E-02	 5.78013000E-03
					-1.15145000E-04	-5.14440000E-03	 6.12109000E-03
					 0.00000000E+00	 0.00000000E+00	 0.00000000E+00
					 1.54159000E-03	-1.42561000E-02	-1.26786000E-02
					 0.00000000E+00	 0.00000000E+00	 0.00000000E+00
					 1.05680000E-04	-1.51373000E-02	-1.27793000E-02
					 0.00000000E+00	 0.00000000E+00	 0.00000000E+00
					 1.92773000E-03	-4.15699000E-03	-6.49292000E-03
					 8.53083000E-04	-1.36903000E-02	-6.24449000E-03
					 0.00000000E+00	 0.00000000E+00	 0.00000000E+00
					 8.30570000E-04	-1.48779000E-02	-1.27571000E-02
					 0.00000000E+00	 0.00000000E+00	 0.00000000E+00
					 8.17068000E-05	-5.05643000E-03	-6.30940000E-03
					 5.21522000E-05	-1.45785000E-02	-6.32788000E-03
					 0.00000000E+00	 0.00000000E+00	 0.00000000E+00
					 0.00000000E+00	 0.00000000E+00	 0.00000000E+00
					-7.04473000E-05	-1.40461000E-02	-1.73956000E-04
					 1.35615000E-03	-1.48027000E-02	 1.20399000E-02
					 0.00000000E+00	 0.00000000E+00	 0.00000000E+00
					 0.00000000E+00	 0.00000000E+00	 0.00000000E+00
					-2.65218000E-05	-1.45894000E-02	-2.47128000E-04
					 5.60553000E-04	-1.54588000E-02	 1.21766000E-02
					 0.00000000E+00	 0.00000000E+00	 0.00000000E+00
					-5.08484000E-05	-3.30738000E-03	-6.31452000E-05
					 6.08472000E-04	-1.41579000E-02	 5.68297000E-03
					 1.75511000E-03	-4.38232000E-03	 6.30529000E-03
					 0.00000000E+00	 0.00000000E+00	 0.00000000E+00
					-1.42727000E-03	-1.44794000E-02	-1.27089000E-02
					 0.00000000E+00	 0.00000000E+00	 0.00000000E+00
					-6.52159000E-04	-1.51255000E-02	-1.27306000E-02
					 0.00000000E+00	 0.00000000E+00	 0.00000000E+00
					-1.86419000E-03	-4.26019000E-03	-6.53425000E-03
					-6.97958000E-04	-1.39886000E-02	-6.20467000E-03
					 1.52819000E-05	-4.88217000E-02	-1.02430000E-03
					-1.46789000E-03	-4.97356000E-02	 1.93372000E-02
					 3.86151000E-06	-5.00109000E-02	-1.14301000E-03
					-5.20897000E-04	-5.08149000E-02	 1.95043000E-02
					 6.19971000E-05	-2.92871000E-02	-6.08760000E-04
					-6.92203000E-04	-4.91822000E-02	 9.08891000E-03
					-1.61138000E-03	-3.01458000E-02	 1.62667000E-02
					 1.09302000E-06	-4.95152000E-02	-1.12005000E-03
					-9.89542000E-04	-5.04217000E-02	 1.94530000E-02
					 1.37349000E-05	-3.02909000E-02	-6.29366000E-04
					-2.65923000E-04	-5.02969000E-02	 9.11364000E-03
					-3.86447000E-04	-3.12053000E-02	 1.63993000E-02
					 1.54843000E-03	-4.90630000E-02	-2.16492000E-02
					 7.18770000E-04	-5.00442000E-02	-2.16831000E-02
					 1.46012000E-03	-2.97486000E-02	-1.75836000E-02
					 8.47856000E-04	-4.88470000E-02	-1.12604000E-02
					 1.15078000E-03	-4.96160000E-02	-2.16514000E-02
					 3.33667000E-04	-3.06169000E-02	-1.76687000E-02
					 3.31412000E-04	-4.99314000E-02	-1.13027000E-02
					 3.63224000E-07	-5.01859000E-02	-1.07418000E-03
					 1.37449000E-04	-5.11181000E-02	 1.94332000E-02
					 1.73311000E-05	-5.01645000E-02	-1.07663000E-03
					-1.75992000E-04	-5.09606000E-02	 1.94970000E-02
					-5.91091000E-05	-2.99733000E-02	-5.43943000E-04
					 1.85022000E-04	-5.05425000E-02	 9.08742000E-03
					 7.47665000E-04	-3.10096000E-02	 1.63299000E-02
					-2.58509000E-04	-5.02050000E-02	-2.15637000E-02
					 2.13427000E-04	-5.01450000E-02	-2.16874000E-02
					-9.07242000E-04	-3.04107000E-02	-1.75659000E-02
					-1.79064000E-04	-5.00960000E-02	-1.12003000E-02
					 2.74529000E-04	-9.71018000E-02	-2.35930000E-03
					-6.29373000E-04	-9.79653000E-02	 2.30650000E-02
					 2.25118000E-04	-9.77431000E-02	-2.32993000E-03
					-5.60547000E-05	-9.88096000E-02	 2.32794000E-02
					 1.32314000E-04	-7.16675000E-02	-1.70048000E-03
					-1.29238000E-04	-9.74685000E-02	 1.01878000E-02
					-1.35388000E-03	-7.24539000E-02	 2.16057000E-02
					 2.40358000E-04	-9.74991000E-02	-2.32994000E-03
					-3.20615000E-04	-9.85521000E-02	 2.32114000E-02
					 1.44217000E-04	-7.26586000E-02	-1.66417000E-03
					 6.36415000E-05	-9.82086000E-02	 1.03360000E-02
					-5.24312000E-04	-7.35162000E-02	 2.17501000E-02
					 1.22963000E-03	-9.66362000E-02	-2.78795000E-02
					 5.32839000E-04	-9.72479000E-02	-2.78499000E-02
					 1.46475000E-03	-7.14619000E-02	-2.49744000E-02
					 6.65870000E-04	-9.67957000E-02	-1.49573000E-02
					 8.85886000E-04	-9.71385000E-02	-2.79640000E-02
					 6.42749000E-04	-7.24278000E-02	-2.50563000E-02
					 4.08369000E-04	-9.74481000E-02	-1.49518000E-02
					 1.88133000E-04	-9.78851000E-02	-2.13351000E-03
					 3.26579000E-04	-9.87977000E-02	 2.33141000E-02
					 1.95555000E-04	-9.78877000E-02	-2.26386000E-03
					 1.13555000E-04	-9.88495000E-02	 2.32716000E-02
					 8.69765000E-05	-7.28534000E-02	-1.60702000E-03
					 2.52656000E-04	-9.82761000E-02	 1.05099000E-02
					 1.74796000E-04	-7.38934000E-02	 2.17382000E-02
					-1.83933000E-04	-9.72232000E-02	-2.77939000E-02
					 1.84937000E-04	-9.74388000E-02	-2.78013000E-02
					-9.66658000E-05	-7.26301000E-02	-2.49316000E-02
					 6.35346000E-05	-9.74834000E-02	-1.48366000E-02
					 5.53709000E-04	-1.52984000E-01	-4.08214000E-03
					 1.00152000E-03	-1.53500000E-01	 2.29060000E-02