<?xml version="1.0"?>
<VTKFile type="UnstructuredGrid" version="0.1" byte_order="LittleEndian">
	<UnstructuredGrid>
		<Piece NumberOfPoints="522" NumberOfCells="64">
			<Points>
				<DataArray type="Float64" NumberOfComponents="3" format="ascii">
					 1.00000000E+00	 1.00000000E+00	-5.96046000E-08
					 1.00000000E+00	 5.00000000E-01	-5.96046000E-08
					 1.00000000E+00	 5.00000000E-01	 1.00000000E+00
					 1.00000000E+00	 1.00000000E+00	 1.00000000E+00
					 5.00000000E-01	 1.00000000E+00	-5.96046000E-08
					 5.00000000E-01	 5.00000000E-01	-5.96046000E-08
					 5.00000000E-01	 5.00000000E-01	 1.00000000E+00
					 5.00000000E-01	 1.00000000E+00	 1.00000000E+00
					 1.00000000E+00	 7.50000000E-01	-5.96046000E-08
					 1.00000000E+00	 5.00000000E-01	 5.00000000E-01
					 1.00000000E+00	 7.50000000E-01	 1.00000000E+00
					 1.00000000E+00	 1.00000000E+00	 5.00000000E-01
					 7.50000000E-01	 1.00000000E+00	-5.96046000E-08
					 7.50000000E-01	 5.00000000E-01	-5.96046000E-08
					 7.50000000E-01	 5.00000000E-01	 1.00000000E+00
					 7.50000000E-01	 1.00000000E+00	 1.00000000E+00
					 5.00000000E-01	 7.50000000E-01	-5.96046000E-08
					 5.00000000E-01	 5.00000000E-01	 5.00000000E-01
					 5.00000000E-01	 7.50000000E-01	 1.00000000E+00
					 5.00000000E-01	 1.00000000E+00	 5.00000000E-01
					 1.00000000E+00	-1.49012000E-08	-5.96046000E-08
					 1.00000000E+00	-1.49012000E-08	 1.00000000E+00
					 5.00000000E-01	-1.49012000E-08	-5.96046000E-08
					 5.00000000E-01	-1.49012000E-08	 1.00000000E+00
					 1.00000000E+00	 2.50000000E-01	-5.96046000E-08
					 1.00000000E+00	-1.49012000E-08	 5.00000000E-01
					 1.00000000E+00	 2.50000000E-01	 1.00000000E+00
					 7.50000000E-01	-1.49012000E-08	-5.96046000E-08
					 7.50000000E-01	-1.49012000E-08	 1.00000000E+00
					 5.00000000E-01	 2.50000000E-01	-5.96046000E-08
					 5.00000000E-01	-1.49012000E-08	 5.00000000E-01
					 5.00000000E-01	 2.50000000E-01	 1.00000000E+00
					-7.45058000E-09	 1.00000000E+00	-5.96046000E-08
					-7.45058000E-09	 5.00000000E-01	-5.96046000E-08
					-7.45058000E-09	 5.00000000E-01	 1.00000000E+00
					-7.45058000E-09	 1.00000000E+00	 1.00000000E+00
					 2.50000000E-01	 1.00000000E+00	-5.96046000E-08
					 2.50000000E-01	 5.00000000E-01	-5.96046000E-08
					 2.50000000E-01	 5.00000000E-01	 1.00000000E+00
					 2.50000000E-01	 1.00000000E+00	 1.00000000E+00
					-7.45058000E-09	 7.50000000E-01	-5.96046000E-08
					-7.45058000E-09	 5.00000000E-01	 5.00000000E-01
					-7.45058000E-09	 7.50000000E-01	 1.00000000E+00
					-7.45058000E-09	 1.00000000E+00	 5.00000000E-01
					-7.45058000E-09	-1.49012000E-08	-5.96046000E-08
					-7.45058000E-09	-1.49012000E-08	 1.00000000E+00
					 2.50000000E-01	-1.49012000E-08	-5.96046000E-08
					 2.50000000E-01	-1.49012000E-08	 1.00000000E+00
					-7.45058000E-09	 2.50000000E-01	-5.96046000E-08
					-7.45058000E-09	-1.49012000E-08	 5.00000000E-01
					-7.45058000E-09	 2.50000000E-01	 1.00000000E+00
					 1.00000000E+00	 5.00000000E-01	 2.00000000E+00
					 1.00000000E+00	 1.00000000E+00	 2.00000000E+00
					 5.00000000E-01	 5.00000000E-01	 2.00000000E+00
					 5.00000000E-01	 1.00000000E+00	 2.00000000E+00
					 1.00000000E+00	 5.00000000E-01	 1.50000000E+00
					 1.00000000E+00	 7.50000000E-01	 2.00000000E+00
					 1.00000000E+00	 1.00000000E+00	 1.50000000E+00
					 7.50000000E-01	 5.00000000E-01	 2.00000000E+00
					 7.50000000E-01	 1.00000000E+00	 2.00000000E+00
					 5.00000000E-01	 5.00000000E-01	 1.50000000E+00
					 5.00000000E-01	 7.50000000E-01	 2.00000000E+00
					 5.00000000E-01	 1.00000000E+00	 1.50000000E+00
					 1.00000000E+00	-1.49012000E-08	 2.00000000E+00
					 5.00000000E-01	-1.49012000E-08	 2.00000000E+00
					 1.00000000E+00	-1.49012000E-08	 1.50000000E+00
					 1.00000000E+00	 2.50000000E-01	 2.00000000E+00
					 7.50000000E-01	-1.49012000E-08	 2.00000000E+00
					 5.00000000E-01	-1.49012000E-08	 1.50000000E+00
					 5.00000000E-01	 2.50000000E-01	 2.00000000E+00
					-7.45058000E-09	 5.00000000E-01	 2.00000000E+00
					-7.45058000E-09	 1.00000000E+00	 2.00000000E+00
					 2.50000000E-01	 5.00000000E-01	 2.00000000E+00
					 2.50000000E-01	 1.00000000E+00	 2.00000000E+00
					-7.45058000E-09	 5.00000000E-01	 1.50000000E+00
					-7.45058000E-09	 7.50000000E-01	 2.00000000E+00
					-7.45058000E-09	 1.00000000E+00	 1.50000000E+00
					-7.45058000E-09	-1.49012000E-08	 2.00000000E+00
					 2.50000000E-01	-1.49012000E-08	 2.00000000E+00
					-7.45058000E-09	-1.49012000E-08	 1.50000000E+00
					-7.45058000E-09	 2.50000000E-01	 2.00000000E+00
					 1.00000000E+00	 5.00000000E-01	 3.00000000E+00
					 1.00000000E+00	 1.00000000E+00	 3.00000000E+00
					 5.00000000E-01	 5.00000000E-01	 3.00000000E+00
					 5.00000000E-01	 1.00000000E+00	 3.00000000E+00
					 1.00000000E+00	 5.00000000E-01	 2.50000000E+00
					 1.00000000E+00	 7.50000000E-01	 3.00000000E+00
					 1.00000000E+00	 1.00000000E+00	 2.50000000E+00
					 7.50000000E-01	 5.00000000E-01	 3.00000000E+00
					 7.50000000E-01	 1.00000000E+00	 3.00000000E+00
					 5.00000000E-01	 5.00000000E-01	 2.50000000E+00
					 5.00000000E-01	 7.50000000E-01	 3.00000000E+00
					 5.00000000E-01	 1.00000000E+00	 2.50000000E+00
					 1.00000000E+00	-1.49012000E-08	 3.00000000E+00
					 5.00000000E-01	-1.49012000E-08	 3.00000000E+00
					 1.00000000E+00	-1.49012000E-08	 2.50000000E+00
					 1.00000000E+00	 2.50000000E-01	 3.00000000E+00
					 7.50000000E-01	-1.49012000E-08	 3.00000000E+00
					 5.00000000E-01	-1.49012000E-08	 2.50000000E+00
					 5.00000000E-01	 2.50000000E-01	 3.00000000E+00
					-7.45058000E-09	 5.00000000E-01	 3.00000000E+00
					-7.45058000E-09	 1.00000000E+00	 3.00000000E+00
					 2.50000000E-01	 5.00000000E-01	 3.00000000E+00
					 2.50000000E-01	 1.00000000E+00	 3.00000000E+00
					-7.45058000E-09	 5.00000000E-01	 2.50000000E+00
					-7.45058000E-09	 7.50000000E-01	 3.00000000E+00
					-7.45058000E-09	 1.00000000E+00	 2.50000000E+00
					-7.45058000E-09	-1.49012000E-08	 3.00000000E+00
					 2.50000000E-01	-1.49012000E-08	 3.00000000E+00
					-7.45058000E-09	-1.49012000E-08	 2.50000000E+00
					-7.45058000E-09	 2.50000000E-01	 3.00000000E+00
					 1.00000000E+00	 5.00000000E-01	 4.00000000E+00
					 1.00000000E+00	 1.00000000E+00	 4.00000000E+00
					 5.00000000E-01	 5.00000000E-01	 4.00000000E+00
					 5.00000000E-01	 1.00000000E+00	 4.00000000E+00
					 1.00000000E+00	 5.00000000E-01	 3.50000000E+00
					 1.00000000E+00	 7.50000000E-01	 4.00000000E+00
					 1.00000000E+00	 1.00000000E+00	 3.50000000E+00
					 7.50000000E-01	 5.00000000E-01	 4.00000000E+00
					 7.50000000E-01	 1.00000000E+00	 4.00000000E+00
					 5.00000000E-01	 5.00000000E-01	 3.50000000E+00
					 5.00000000E-01	 7.50000000E-01	 4.00000000E+00
					 5.00000000E-01	 1.00000000E+00	 3.50000000E+00
					 1.00000000E+00	-1.49012000E-08	 4.00000000E+00
					 5.00000000E-01	-1.49012000E-08	 4.00000000E+00
					 1.00000000E+00	-1.49012000E-08	 3.50000000E+00
					 1.00000000E+00	 2.50000000E-01	 4.00000000E+00
					 7.50000000E-01	-1.49012000E-08	 4.00000000E+00
					 5.00000000E-01	-1.49012000E-08	 3.50000000E+00
					 5.00000000E-01	 2.50000000E-01	 4.00000000E+00
					-7.45058000E-09	 5.00000000E-01	 4.00000000E+00
					-7.45058000E-09	 1.00000000E+00	 4.00000000E+00
					 2.50000000E-01	 5.00000000E-01	 4.00000000E+00
					 2.50000000E-01	 1.00000000E+00	 4.00000000E+00
					-7.45058000E-09	 5.00000000E-01	 3.50000000E+00
					-7.45058000E-09	 7.50000000E-01	 4.00000000E+00
					-7.45058000E-09	 1.00000000E+00	 3.50000000E+00
					-7.45058000E-09	-1.49012000E-08	 4.00000000E+00
					 2.50000000E-01	-1.49012000E-08	 4.00000000E+00
					-7.45058000E-09	-1.49012000E-08	 3.50000000E+00
					-7.45058000E-09	 2.50000000E-01	 4.00000000E+00
					 1.00000000E+00	 5.00000000E-01	 5.00000000E+00
					 1.00000000E+00	 1.00000000E+00	 5.00000000E+00
					 5.00000000E-01	 5.00000000E-01	 5.00000000E+00
					 5.00000000E-01	 1.00000000E+00	 5.00000000E+00
					 1.00000000E+00	 5.00000000E-01	 4.50000000E+00
					 1.00000000E+00	 7.50000000E-01	 5.00000000E+00
					 1.00000000E+00	 1.00000000E+00	 4.50000000E+00
					 7.50000000E-01	 5.00000000E-01	 5.00000000E+00
					 7.50000000E-01	 1.00000000E+00	 5.00000000E+00
					 5.00000000E-01	 5.00000000E-01	 4.50000000E+00
					 5.00000000E-01	 7.50000000E-01	 5.00000000E+00
					 5.00000000E-01	 1.00000000E+00	 4.50000000E+00
					 1.00000000E+00	-1.49012000E-08	 5.00000000E+00
					 5.00000000E-01	-1.49012000E-08	 5.00000000E+00
					 1.00000000E+00	-1.49012000E-08	 4.50000000E+00
					 1.00000000E+00	 2.50000000E-01	 5.00000000E+00
					 7.50000000E-01	-1.49012000E-08	 5.00000000E+00
					 5.00000000E-01	-1.49012000E-08	 4.50000000E+00
					 5.00000000E-01	 2.50000000E-01	 5.00000000E+00
					-7.45058000E-09	 5.00000000E-01	 5.00000000E+00
					-7.45058000E-09	 1.00000000E+00	 5.00000000E+00
					 2.50000000E-01	 5.00000000E-01	 5.00000000E+00
					 2.50000000E-01	 1.00000000E+00	 5.00000000E+00
					-7.45058000E-09	 5.00000000E-01	 4.50000000E+00
					-7.45058000E-09	 7.50000000E-01	 5.00000000E+00
					-7.45058000E-09	 1.00000000E+00	 4.50000000E+00
					-7.45058000E-09	-1.49012000E-08	 5.00000000E+00
					 2.50000000E-01	-1.49012000E-08	 5.00000000E+00
					-7.45058000E-09	-1.49012000E-08	 4.50000000E+00
					-7.45058000E-09	 2.50000000E-01	 5.00000000E+00
					 1.00000000E+00	 5.00000000E-01	 6.00000000E+00
					 1.00000000E+00	 1.00000000E+00	 6.00000000E+00
					 5.00000000E-01	 5.00000000E-01	 6.00000000E+00
					 5.00000000E-01	 1.00000000E+00	 6.00000000E+00
					 1.00000000E+00	 5.00000000E-01	 5.50000000E+00
					 1.00000000E+00	 7.50000000E-01	 6.00000000E+00
					 1.00000000E+00	 1.00000000E+00	 5.50000000E+00
					 7.50000000E-01	 5.00000000E-01	 6.00000000E+00
					 7.50000000E-01	 1.00000000E+00	 6.00000000E+00
					 5.00000000E-01	 5.00000000E-01	 5.50000000E+00
					 5.00000000E-01	 7.50000000E-01	 6.00000000E+00
					 5.00000000E-01	 1.00000000E+00	 5.50000000E+00
					 1.00000000E+00	-1.49012000E-08	 6.00000000E+00
[...]
			<PointData>
				<DataArray type="Float32" Name="U" NumberOfComponents="3" ComponentName0="D1" ComponentName1="D2" ComponentName2="D3" format="ascii">
					 0.00000000E+00	 0.00000000E+00	 0.00000000E+00
					 0.00000000E+00	 0.00000000E+00	 0.00000000E+00
					-1.16151000E-05	-1.40869000E-03	-3.40302000E-05
					 4.84239000E-04	-1.58302000E-03	 8.89486000E-04
					 0.00000000E+00	 0.00000000E+00	 0.00000000E+00
					 0.00000000E+00	 0.00000000E+00	 0.00000000E+00
					-3.67456000E-05	-8.62397000E-04	 5.32167000E-05
					 6.21399000E-04	-9.05377000E-04	 9.11963000E-04
					 0.00000000E+00	 0.00000000E+00	 0.00000000E+00
					-2.30290000E-05	-4.95659000E-04	 4.64225000E-06
					 1.96593000E-04	-1.46129000E-03	 4.40317000E-04
					 2.02712000E-04	-6.00914000E-04	 4.33701000E-04
					 0.00000000E+00	 0.00000000E+00	 0.00000000E+00
					 0.00000000E+00	 0.00000000E+00	 0.00000000E+00
					-2.96534000E-05	-1.15783000E-03	 1.06071000E-05
					 5.43628000E-04	-1.21272000E-03	 9.14511000E-04
					 0.00000000E+00	 0.00000000E+00	 0.00000000E+00
					-4.01591000E-06	-2.38772000E-04	 2.90371000E-05
					 2.78254000E-04	-8.53849000E-04	 5.14990000E-04
					 3.13805000E-04	-3.37209000E-04	 4.12469000E-04
					 0.00000000E+00	 0.00000000E+00	 0.00000000E+00
					-5.76117000E-04	-1.54652000E-03	-7.98828000E-04
					 0.00000000E+00	 0.00000000E+00	 0.00000000E+00
					-6.30151000E-04	-8.87805000E-04	-8.01536000E-04
					 0.00000000E+00	 0.00000000E+00	 0.00000000E+00
					-2.89864000E-04	-6.34086000E-04	-3.79360000E-04
					-2.71528000E-04	-1.41601000E-03	-4.21913000E-04
					 0.00000000E+00	 0.00000000E+00	 0.00000000E+00
					-5.74728000E-04	-1.21746000E-03	-8.32753000E-04
					 0.00000000E+00	 0.00000000E+00	 0.00000000E+00
					-3.70363000E-04	-3.10254000E-04	-3.78444000E-04
					-3.36793000E-04	-8.55306000E-04	-3.94489000E-04
					 0.00000000E+00	 0.00000000E+00	 0.00000000E+00
					 0.00000000E+00	 0.00000000E+00	 0.00000000E+00
					-7.37541000E-06	-1.67498000E-04	 1.28645000E-04
					 8.00278000E-04	-2.36974000E-04	 8.98850000E-04
					 0.00000000E+00	 0.00000000E+00	 0.00000000E+00
					 0.00000000E+00	 0.00000000E+00	 0.00000000E+00
					-1.43816000E-05	-5.22597000E-04	 6.87539000E-05
					 6.94026000E-04	-5.69122000E-04	 8.80757000E-04
					 0.00000000E+00	 0.00000000E+00	 0.00000000E+00
					-5.81418000E-06	 1.46225000E-04	 4.95747000E-05
					 3.98373000E-04	-1.91450000E-04	 5.55819000E-04
					 4.41337000E-04	 3.96243000E-05	 4.39672000E-04
					 0.00000000E+00	 0.00000000E+00	 0.00000000E+00
					-7.67428000E-04	-2.28725000E-04	-7.95782000E-04
					 0.00000000E+00	 0.00000000E+00	 0.00000000E+00
					-6.99694000E-04	-5.80018000E-04	-7.33582000E-04
					 0.00000000E+00	 0.00000000E+00	 0.00000000E+00
					-4.68537000E-04	 1.06286000E-04	-3.99621000E-04
					-3.91925000E-04	-1.63398000E-04	-4.19490000E-04
					 4.29716000E-06	-3.88278000E-03	 1.13115000E-04
					 1.58829000E-04	-4.06171000E-03	 2.56647000E-03
					-2.13230000E-05	-3.64554000E-03	 5.57224000E-05
					 3.78082000E-04	-3.76085000E-03	 2.45938000E-03
					 3.16425000E-05	-2.30594000E-03	 2.29929000E-05
					 7.78485000E-05	-3.94505000E-03	 1.38515000E-03
					 4.46826000E-04	-2.48559000E-03	 1.64138000E-03
					-9.25604000E-06	-3.80307000E-03	 7.63065000E-05
					 2.74716000E-04	-3.97084000E-03	 2.46656000E-03
					 1.90564000E-05	-1.81197000E-03	 5.74423000E-05
					 1.99105000E-04	-3.66552000E-03	 1.26401000E-03
					 6.49032000E-04	-1.95442000E-03	 1.57952000E-03
					-3.57086000E-05	-3.93089000E-03	-2.43649000E-03
					-3.88487000E-04	-3.82363000E-03	-2.43039000E-03
					-3.33269000E-04	-2.40272000E-03	-1.52247000E-03
					-2.17801000E-05	-3.88816000E-03	-1.22020000E-03
					-2.27470000E-04	-3.91007000E-03	-2.35694000E-03
					-5.33234000E-04	-1.94508000E-03	-1.50211000E-03
					-2.02552000E-04	-3.69208000E-03	-1.20761000E-03
					-1.67946000E-05	-3.03756000E-03	-6.49954000E-05
					 7.05229000E-04	-3.23260000E-03	 2.49666000E-03
					-1.99129000E-05	-3.40622000E-03	 7.62828000E-06
					 5.31686000E-04	-3.58348000E-03	 2.52992000E-03
					 1.13197000E-05	-1.11957000E-03	 5.30762000E-05
					 3.34468000E-04	-3.09561000E-03	 1.19637000E-03
					 9.07876000E-04	-1.16351000E-03	 1.58075000E-03
					-7.93056000E-04	-3.15255000E-03	-2.48761000E-03
					-5.84713000E-04	-3.53069000E-03	-2.50685000E-03
					-7.92904000E-04	-1.26789000E-03	-1.53236000E-03
					-3.86609000E-04	-3.08313000E-03	-1.22104000E-03
					-1.88678000E-05	-1.04836000E-02	-4.77443000E-07
					-2.74483000E-04	-1.07144000E-02	 4.40386000E-03
					 3.72781000E-05	-1.06948000E-02	-9.28267000E-06
					 2.06289000E-05	-1.07941000E-02	 4.40058000E-03
					-1.78839000E-06	-6.65957000E-03	 4.45834000E-05
					-1.33492000E-04	-1.05620000E-02	 2.17844000E-03
					-1.77753000E-04	-6.76203000E-03	 3.50499000E-03
					 9.97399000E-06	-1.06302000E-02	 9.63633000E-06
					-1.43517000E-04	-1.07983000E-02	 4.39070000E-03
					-2.00695000E-05	-6.64275000E-03	 7.86939000E-06
					 1.29781000E-05	-1.07230000E-02	 2.16962000E-03
					 1.38284000E-04	-6.78925000E-03	 3.48235000E-03
					 3.40245000E-04	-1.05562000E-02	-4.27748000E-03
					 7.30216000E-05	-1.07234000E-02	-4.39416000E-03
					 1.74668000E-04	-6.72619000E-03	-3.42049000E-03
					 1.45661000E-04	-1.04925000E-02	-2.12240000E-03
					 1.98184000E-04	-1.07215000E-02	-4.34363000E-03
					-1.66757000E-04	-6.76996000E-03	-3.46962000E-03
					 5.40983000E-05	-1.06807000E-02	-2.15118000E-03
					 5.34212000E-05	-1.06275000E-02	 5.00293000E-05
					 2.60704000E-04	-1.07453000E-02	 4.37322000E-03
					 4.68958000E-05	-1.06925000E-02	 2.06398000E-05
					 1.54182000E-04	-1.07762000E-02	 4.39104000E-03
					-2.71098000E-05	-6.35595000E-03	 4.82714000E-06
					 1.82959000E-04	-1.06538000E-02	 2.19051000E-03
					 4.18852000E-04	-6.53803000E-03	 3.49605000E-03
					-1.00697000E-04	-1.07095000E-02	-4.31057000E-03
					-2.28203000E-05	-1.07596000E-02	-4.35271000E-03
					-4.45457000E-04	-6.46168000E-03	-3.46010000E-03
					-4.15806000E-05	-1.06198000E-02	-2.09196000E-03
					 5.18936000E-05	-2.07733000E-02	 3.32613000E-05
					-2.16622000E-04	-2.09306000E-02	 5.41617000E-03
					 3.47072000E-05	-2.11043000E-02	 4.04451000E-05
					-2.79745000E-04	-2.11266000E-02	 5.53392000E-03
					 2.92916000E-05	-1.54234000E-02	 2.37556000E-05
					-1.45691000E-04	-2.08340000E-02	 2.71371000E-03
					-2.27307000E-04	-1.55671000E-02	 5.06509000E-03
					 3.06934000E-05	-2.09455000E-02	 7.64359000E-06
					-2.35583000E-04	-2.10059000E-02	 5.43308000E-03
					 2.43432000E-05	-1.55927000E-02	 5.40133000E-05
					-1.15228000E-04	-2.10979000E-02	 2.74254000E-03
					-1.03471000E-04	-1.57087000E-02	 5.11990000E-03
					 3.22912000E-04	-2.09026000E-02	-5.56399000E-03
					 2.78886000E-04	-2.11417000E-02	-5.40613000E-03
					 2.43377000E-04	-1.54521000E-02	-5.02099000E-03
					 2.06302000E-04	-2.08123000E-02	-2.73263000E-03
					 3.20757000E-04	-2.09804000E-02	-5.44111000E-03
					 1.23453000E-04	-1.56647000E-02	-5.00760000E-03
					 1.55598000E-04	-2.11140000E-02	-2.67354000E-03
					 1.71732000E-05	-2.13108000E-02	 1.07946000E-04
					-1.23480000E-04	-2.13329000E-02	 5.53540000E-03
					 3.23725000E-05	-2.12004000E-02	 5.83860000E-05
					-2.20332000E-04	-2.12509000E-02	 5.54719000E-03
					 1.90901000E-05	-1.56482000E-02	 7.60753000E-05
					-6.95305000E-05	-2.13185000E-02	 2.72568000E-03
					 6.00598000E-05	-1.57895000E-02	 5.02750000E-03
					 6.39342000E-05	-2.12753000E-02	-5.40817000E-03
					 1.77402000E-04	-2.12210000E-02	-5.46256000E-03
					 3.01440000E-06	-1.56710000E-02	-4.95310000E-03
					 7.58400000E-05	-2.12940000E-02	-2.61269000E-03
					 5.02117000E-05	-3.18249000E-02	-1.84207000E-04
					-8.33477000E-04	-3.17796000E-02	 5.49904000E-03
					 5.06961000E-05	-3.26259000E-02	-1.81608000E-04
					-7.80030000E-04	-3.26408000E-02	 5.47781000E-03
					 8.17696000E-05	-2.62906000E-02	-8.20654000E-05
					-3.86138000E-04	-3.17961000E-02	 2.68503000E-03
					-4.53892000E-04	-2.63416000E-02	 5.57986000E-03
					 6.86856000E-05	-3.22142000E-02	-1.46509000E-04
					-8.26009000E-04	-3.22182000E-02	 5.46328000E-03
					 4.73561000E-05	-2.68177000E-02	-8.48498000E-05
					-3.73238000E-04	-3.26531000E-02	 2.63924000E-03
					-4.69365000E-04	-2.68381000E-02	 5.55162000E-03
					 8.66593000E-04	-3.17523000E-02	-5.74732000E-03
					 8.49821000E-04	-3.25597000E-02	-5.84951000E-03
					 5.93082000E-04	-2.63179000E-02	-5.76416000E-03
					 4.46954000E-04	-3.18091000E-02	-2.98682000E-03
					 8.45761000E-04	-3.21676000E-02	-5.76348000E-03
					 5.80552000E-04	-2.68369000E-02	-5.71235000E-03
					 4.59242000E-04	-3.25798000E-02	-2.98071000E-03
					 9.01869000E-06	-3.34031000E-02	-2.31791000E-04
					-8.16706000E-04	-3.35397000E-02	 5.43005000E-03
					 2.42343000E-05	-3.30250000E-02	-1.82297000E-04
					-7.70705000E-04	-3.30651000E-02	 5.54019000E-03
					 1.93331000E-05	-2.73341000E-02	-5.22809000E-05
					-3.63930000E-04	-3.34540000E-02	 2.53696000E-03
					-4.94502000E-04	-2.73671000E-02	 5.60446000E-03
					 9.19623000E-04	-3.34603000E-02	-5.83270000E-03
					 8.81984000E-04	-3.29744000E-02	-5.87096000E-03
					 5.59335000E-04	-2.73445000E-02	-5.70640000E-03
					 4.34155000E-04	-3.34406000E-02	-2.93758000E-03
					 7.43841000E-05	-4.24338000E-02	-6.04302000E-05
					-1.37694000E-03	-4.23400000E-02	 5.26157000E-03
					 5.90867000E-05	-4.38477000E-02	-9.32108000E-05
					-1.41616000E-03	-4.38766000E-02	 5.21377000E-03
					 8.81202000E-06	-3.72221000E-02	-1.13561000E-04
					-6.14132000E-04	-4.24002000E-02	 2.62778000E-03
					-1.06207000E-03	-3.71944000E-02	 5.39785000E-03
					 7.13792000E-05	-4.31047000E-02	-8.94120000E-05
					-1.38418000E-03	-4.31292000E-02	 5.17714000E-03
					 2.84788000E-05	-3.83328000E-02	-1.65259000E-04
					-6.57538000E-04	-4.38551000E-02	 2.57164000E-03
					-1.08784000E-03	-3.83710000E-02	 5.40803000E-03
					 1.33824000E-03	-4.23755000E-02	-5.41002000E-03
					 1.48855000E-03	-4.37492000E-02	-5.49580000E-03
					 1.10963000E-03	-3.71313000E-02	-5.61886000E-03
					 7.07086000E-04	-4.24164000E-02	-2.84286000E-03
					 1.40572000E-03	-4.30460000E-02	-5.39617000E-03
					 1.17370000E-03	-3.82695000E-02	-5.73674000E-03
					 7.68933000E-04	-4.38012000E-02	-2.79479000E-03
					 8.24539000E-05	-4.52753000E-02	-1.72039000E-04
					-1.40697000E-03	-4.53251000E-02	 5.16929000E-03
					 7.12056000E-05	-4.45471000E-02	-1.38525000E-04
					-1.41614000E-03	-4.45890000E-02	 5.18341000E-03
					 4.61268000E-05	-3.94742000E-02	-2.15866000E-04
					-6.71906000E-04	-4.53155000E-02	 2.49766000E-03
					-1.15439000E-03	-3.95298000E-02	 5.33301000E-03
					 1.60976000E-03	-4.52788000E-02	-5.50867000E-03
					 1.54888000E-03	-4.44874000E-02	-5.54894000E-03
					 1.28819000E-03	-3.94578000E-02	-5.69577000E-03
					 8.14726000E-04	-4.52765000E-02	-2.84469000E-03
					 1.33525000E-04	-5.26450000E-02	-1.70886000E-04
					-1.53323000E-03	-5.28072000E-02	 5.17893000E-03
					 1.10551000E-04	-5.43581000E-02	-2.00916000E-04
					-1.58902000E-03	-5.43639000E-02	 5.21773000E-03
					 5.53329000E-05	-4.75118000E-02	-1.21215000E-04
					-6.84601000E-04	-5.27354000E-02	 2.50557000E-03
					-1.56027000E-03	-4.74109000E-02	 5.21168000E-03
					 1.19176000E-04	-5.35021000E-02	-1.76653000E-04
					-1.55144000E-03	-5.36252000E-02	 5.20801000E-03
					 9.26276000E-05	-4.91002000E-02	-1.50827000E-04
					-7.47878000E-04	-5.43489000E-02	 2.49196000E-03
					-1.50029000E-03	-4.91260000E-02	 5.17943000E-03
					 1.67550000E-03	-5.25400000E-02	-5.44707000E-03
					 1.76764000E-03	-5.43096000E-02	-5.50598000E-03
					 1.71880000E-03	-4.74018000E-02	-5.39247000E-03
					 8.45851000E-04	-5.25901000E-02	-2.78725000E-03
					 1.72383000E-03	-5.35245000E-02	-5.48997000E-03
					 1.62427000E-03	-4.90545000E-02	-5.46847000E-03
					 9.32781000E-04	-5.43285000E-02	-2.85202000E-03
					 7.91482000E-05	-5.59601000E-02	-2.72590000E-04
					-1.47474000E-03	-5.60583000E-02	 5.13435000E-03
					 9.49978000E-05	-5.51678000E-02	-2.11918000E-04
					-1.53973000E-03	-5.51972000E-02	 5.20281000E-03
					 9.66552000E-05	-5.06232000E-02	-1.99566000E-04
					-6.87306000E-04	-5.60148000E-02	 2.45725000E-03
					-1.45591000E-03	-5.06571000E-02	 5.11438000E-03
					 1.79077000E-03	-5.58991000E-02	-5.52279000E-03
					 1.76519000E-03	-5.51019000E-02	-5.49204000E-03
					 1.66981000E-03	-5.06382000E-02	-5.46956000E-03
					 9.15943000E-04	-5.59156000E-02	-2.91907000E-03
					 6.94256000E-05	-6.37109000E-02	-2.16215000E-04
					-1.36446000E-03	-6.39229000E-02	 5.30670000E-03
					 1.85025000E-04	-6.52352000E-02	-1.17029000E-04
					-1.14576000E-03	-6.50820000E-02	 5.05094000E-03
					 3.61914000E-05	-5.82588000E-02	-1.60593000E-04
					-6.38737000E-04	-6.38184000E-02	 2.46251000E-03
					-1.37158000E-03	-5.82283000E-02	 5.21453000E-03
					 1.20901000E-04	-6.44587000E-02	-1.90068000E-04
					-1.27845000E-03	-6.44378000E-02	 5.14412000E-03
					 5.27564000E-05	-5.97320000E-02	-1.88115000E-04
					-4.43839000E-04	-6.51685000E-02	 2.52069000E-03
					-1.40335000E-03	-5.98299000E-02	 5.17728000E-03
					 6.85795000E-04	-6.38888000E-02	-5.21192000E-03
					 1.11370000E-03	-6.53175000E-02	-5.89128000E-03
					 1.55237000E-03	-5.82227000E-02	-5.48546000E-03
					 4.50973000E-04	-6.38116000E-02	-2.65438000E-03
					 9.43589000E-04	-6.45029000E-02	-5.59163000E-03
					 1.49298000E-03	-5.96292000E-02	-5.68348000E-03
					 6.55092000E-04	-6.52751000E-02	-2.97347000E-03
					 3.72507000E-04	-6.64401000E-02	 1.58553000E-04
					-7.63485000E-04	-6.66670000E-02	 5.74325000E-03
					 2.70815000E-04	-6.58481000E-02	-5.63900000E-05
					-9.52364000E-04	-6.58671000E-02	 5.24023000E-03
					 8.39003000E-05	-6.11385000E-02	-1.05465000E-04
					-1.85970000E-04	-6.65648000E-02	 2.89344000E-03
					-1.46687000E-03	-6.12691000E-02	 5.43207000E-03
					 1.23401000E-03	-6.62184000E-02	-5.76672000E-03
					 1.19784000E-03	-6.58480000E-02	-5.75186000E-03
					 1.37621000E-03	-6.10635000E-02	-5.69362000E-03
					 8.46800000E-04	-6.63152000E-02	-2.85144000E-03
					 0.00000000E+00	 0.00000000E+00	 0.00000000E+00
					 0.00000000E+00	 0.00000000E+00	 0.00000000E+00
					 1.08111000E-04	-2.67396000E-03	-4.28570000E-05
					-2.10807000E-03	-2.77655000E-03	 4.12355000E-03
					 0.00000000E+00	 0.00000000E+00	 0.00000000E+00
					 0.00000000E+00	 0.00000000E+00	 0.00000000E+00
					 7.69940000E-05	-4.48622000E-03	 1.70665000E-04
					-1.51755000E-03	-4.86069000E-03	 4.34327000E-03
					 0.00000000E+00	 0.00000000E+00	 0.00000000E+00
					 1.91730000E-05	-5.07246000E-05	 2.56159000E-05
					-9.69514000E-04	-2.67665000E-03	 2.09173000E-03
					-1.50146000E-03	-3.36041000E-04	 2.05913000E-03
					 0.00000000E+00	 0.00000000E+00	 0.00000000E+00
					 0.00000000E+00	 0.00000000E+00	 0.00000000E+00
					 9.07608000E-05	-3.67449000E-03	 5.76511000E-05
					-1.76851000E-03	-3.95085000E-03	 4.14016000E-03
					 0.00000000E+00	 0.00000000E+00	 0.00000000E+00
					 2.12183000E-05	-1.10354000E-03	 7.67297000E-05
					-7.27634000E-04	-4.56958000E-03	 2.16553000E-03
					-8.10693000E-04	-1.51814000E-03	 2.11254000E-03
					 0.00000000E+00	 0.00000000E+00	 0.00000000E+00
					 2.24083000E-03	-2.76233000E-03	-4.13225000E-03
					 0.00000000E+00	 0.00000000E+00	 0.00000000E+00
					 1.61016000E-03	-4.75282000E-03	-4.13136000E-03
					 0.00000000E+00	 0.00000000E+00	 0.00000000E+00
					 1.49549000E-03	-3.14906000E-04	-2.07879000E-03
					 1.06328000E-03	-2.65652000E-03	-2.10974000E-03
					 0.00000000E+00	 0.00000000E+00	 0.00000000E+00
					 1.90365000E-03	-3.95314000E-03	-3.99978000E-03
					 0.00000000E+00	 0.00000000E+00	 0.00000000E+00
					 7.96184000E-04	-1.40784000E-03	-1.98407000E-03
					 8.49793000E-04	-4.53326000E-03	-1.89529000E-03
					 0.00000000E+00	 0.00000000E+00	 0.00000000E+00
					 0.00000000E+00	 0.00000000E+00	 0.00000000E+00
					 1.43244000E-05	-5.80886000E-03	 1.80205000E-04
					-9.97376000E-04	-6.16129000E-03	 4.34198000E-03
					 0.00000000E+00	 0.00000000E+00	 0.00000000E+00
					 0.00000000E+00	 0.00000000E+00	 0.00000000E+00
					 5.68268000E-05	-5.27846000E-03	 1.38921000E-04
					-1.26737000E-03	-5.59363000E-03	 4.50955000E-03
					 0.00000000E+00	 0.00000000E+00	 0.00000000E+00
					 3.33096000E-05	-1.61010000E-03	 9.66088000E-05
					-4.88966000E-04	-5.91149000E-03	 2.05036000E-03
					-1.10274000E-04	-1.99809000E-03	 2.13597000E-03
					 0.00000000E+00	 0.00000000E+00	 0.00000000E+00
					 1.05992000E-03	-5.86499000E-03	-3.99067000E-03
					 0.00000000E+00	 0.00000000E+00	 0.00000000E+00
					 1.31569000E-03	-5.44167000E-03	-4.17020000E-03
					 0.00000000E+00	 0.00000000E+00	 0.00000000E+00
					 1.25089000E-04	-1.86040000E-03	-2.02560000E-03
					 5.72374000E-04	-5.72765000E-03	-1.68562000E-03
					 2.70979000E-04	-1.44667000E-02	 2.17958000E-04
					-2.04123000E-03	-1.46462000E-02	 6.73302000E-03
					 2.66021000E-04	-1.66988000E-02	 2.02412000E-04
					-2.03157000E-03	-1.68690000E-02	 6.68796000E-03
					 1.79339000E-04	-7.87550000E-03	 8.80703000E-05
					-9.11875000E-04	-1.45032000E-02	 3.39506000E-03
					-2.15348000E-03	-8.17748000E-03	 5.72632000E-03
					 2.71819000E-04	-1.55846000E-02	 2.10912000E-04
					-2.04752000E-03	-1.57378000E-02	 6.72294000E-03
					 1.75335000E-04	-1.00470000E-02	 1.67495000E-04
					-8.77446000E-04	-1.67797000E-02	 3.38028000E-03
					-1.74288000E-03	-1.02817000E-02	 5.84266000E-03
					 2.59166000E-03	-1.44659000E-02	-6.24403000E-03
					 2.34481000E-03	-1.67484000E-02	-6.45475000E-03
					 2.67315000E-03	-7.82143000E-03	-5.46394000E-03
					 1.41310000E-03	-1.44444000E-02	-2.94362000E-03
					 2.47483000E-03	-1.56361000E-02	-6.41330000E-03
					 2.16885000E-03	-1.01291000E-02	-5.54093000E-03
					 1.32595000E-03	-1.67031000E-02	-3.06920000E-03
					 1.87850000E-04	-1.89358000E-02	 1.14902000E-04
					-1.95400000E-03	-1.90564000E-02	 6.72196000E-03
					 2.16730000E-04	-1.77849000E-02	 1.73972000E-04
					-1.98811000E-03	-1.80148000E-02	 6.70042000E-03
					 1.57529000E-04	-1.18007000E-02	 2.11744000E-04
					-8.56984000E-04	-1.89479000E-02	 3.37057000E-03
					-1.41937000E-03	-1.20401000E-02	 5.80410000E-03
					 2.14377000E-03	-1.88962000E-02	-6.33557000E-03
					 2.24640000E-03	-1.77901000E-02	-6.40072000E-03
					 1.84904000E-03	-1.19965000E-02	-5.48161000E-03
					 1.17327000E-03	-1.89035000E-02	-3.04371000E-03
					 3.33134000E-04	-2.85690000E-02	 9.88263000E-05
					-2.25667000E-03	-2.84643000E-02	 7.21883000E-03
					 3.99501000E-04	-3.10349000E-02	 1.68760000E-04
					-2.16227000E-03	-3.11958000E-02	 7.12849000E-03
					 2.71662000E-04	-2.14513000E-02	 1.63491000E-04
					-9.63558000E-04	-2.85234000E-02	 3.64990000E-03
					-2.08797000E-03	-2.16089000E-02	 7.09509000E-03
					 3.68026000E-04	-2.98105000E-02	 1.36155000E-04
					-2.22077000E-03	-2.98402000E-02	 7.10997000E-03
					 2.73620000E-04	-2.37962000E-02	 1.39576000E-04
					-9.00933000E-04	-3.11146000E-02	 3.62452000E-03
					-2.05003000E-03	-2.38939000E-02	 7.04780000E-03
					 2.89307000E-03	-2.83545000E-02	-6.77800000E-03
					 2.97068000E-03	-3.10642000E-02	-6.85871000E-03
					 2.57779000E-03	-2.14975000E-02	-6.75323000E-03
					 1.61776000E-03	-2.84717000E-02	-3.35820000E-03
					 2.91759000E-03	-2.96699000E-02	-6.75330000E-03
					 2.58479000E-03	-2.37642000E-02	-6.76885000E-03
					 1.65047000E-03	-3.10651000E-02	-3.29130000E-03
					 5.34424000E-04	-3.35687000E-02	 1.96170000E-04
					-2.19933000E-03	-3.39523000E-02	 7.24809000E-03
					 4.73191000E-04	-3.23326000E-02	 1.83994000E-04
					-2.18401000E-03	-3.24125000E-02	 7.29163000E-03
					 2.89665000E-04	-2.61105000E-02	 1.69843000E-04
					-7.97478000E-04	-3.37925000E-02	 3.54520000E-03
					-2.01801000E-03	-2.62614000E-02	 7.11588000E-03
					 2.87569000E-03	-3.36071000E-02	-6.80635000E-03
					 2.94007000E-03	-3.24205000E-02	-6.95523000E-03
					 2.46957000E-03	-2.59618000E-02	-6.69762000E-03
					 1.75916000E-03	-3.36080000E-02	-3.14852000E-03
					 5.10257000E-04	-4.19987000E-02	 1.40460000E-04
					-2.38805000E-03	-4.17154000E-02	 6.16907000E-03