<?xml version="1.0"?>
<VTKFile type="UnstructuredGrid" version="0.1" byte_order="LittleEndian">
	<UnstructuredGrid>
		<Piece NumberOfPoints="522" NumberOfCells="64">
			<Points>
				<DataArray type="Float64" NumberOfComponents="3" format="ascii">
					 1.00000000E+00	 1.00000000E+00	-5.96046000E-08
					 1.00000000E+00	 5.00000000E-01	-5.96046000E-08
					 1.00000000E+00	 5.00000000E-01	 1.00000000E+00
					 1.00000000E+00	 1.00000000E+00	 1.00000000E+00
					 5.00000000E-01	 1.00000000E+00	-5.96046000E-08
					 5.00000000E-01	 5.00000000E-01	-5.96046000E-08
					 5.00000000E-01	 5.00000000E-01	 1.00000000E+00
					 5.00000000E-01	 1.00000000E+00	 1.00000000E+00
					 1.00000000E+00	 7.50000000E-01	-5.96046000E-08
					 1.00000000E+00	 5.00000000E-01	 5.00000000E-01
					 1.00000000E+00	 7.50000000E-01	 1.00000000E+00
					 1.00000000E+00	 1.00000000E+00	 5.00000000E-01
					 7.50000000E-01	 1.00000000E+00	-5.96046000E-08
					 7.50000000E-01	 5.00000000E-01	-5.96046000E-08
					 7.50000000E-01	 5.00000000E-01	 1.00000000E+00
					 7.50000000E-01	 1.00000000E+00	 1.00000000E+00
					 5.00000000E-01	 7.50000000E-01	-5.96046000E-08
					 5.00000000E-01	 5.00000000E-01	 5.00000000E-01
					 5.00000000E-01	 7.50000000E-01	 1.00000000E+00
					 5.00000000E-01	 1.00000000E+00	 5.00000000E-01
					 1.00000000E+00	-1.49012000E-08	-5.96046000E-08
					 1.00000000E+00	-1.49012000E-08	 1.00000000E+00
					 5.00000000E-01	-1.49012000E-08	-5.96046000E-08
					 5.00000000E-01	-1.49012000E-08	 1.00000000E+00
					 1.00000000E+00	 2.50000000E-01	-5.96046000E-08
					 1.00000000E+00	-1.49012000E-08	 5.00000000E-01
					 1.00000000E+00	 2.50000000E-01	 1.00000000E+00
					 7.50000000E-01	-1.49012000E-08	-5.96046000E-08
					 7.50000000E-01	-1.49012000E-08	 1.00000000E+00
					 5.00000000E-01	 2.50000000E-01	-5.96046000E-08
					 5.00000000E-01	-1.49012000E-08	 5.00000000E-01
					 5.00000000E-01	 2.50000000E-01	 1.00000000E+00
					-7.45058000E-09	 1.00000000E+00	-5.96046000E-08
					-7.45058000E-09	 5.00000000E-01	-5.96046000E-08
					-7.45058000E-09	 5.00000000E-01	 1.00000000E+00
					-7.45058000E-09	 1.00000000E+00	 1.00000000E+00
					 2.50000000E-01	 1.00000000E+00	-5.96046000E-08
					 2.50000000E-01	 5.00000000E-01	-5.96046000E-08
					 2.50000000E-01	 5.00000000E-01	 1.00000000E+00
					 2.50000000E-01	 1.00000000E+00	 1.00000000E+00
					-7.45058000E-09	 7.50000000E-01	-5.96046000E-08
					-7.45058000E-09	 5.00000000E-01	 5.00000000E-01
					-7.45058000E-09	 7.50000000E-01	 1.00000000E+00
					-7.45058000E-09	 1.00000000E+00	 5.00000000E-01
					-7.45058000E-09	-1.49012000E-08	-5.96046000E-08
					-7.45058000E-09	-1.49012000E-08	 1.00000000E+00
					 2.50000000E-01	-1.49012000E-08	-5.96046000E-08
					 2.50000000E-01	-1.49012000E-08	 1.00000000E+00
					-7.45058000E-09	 2.50000000E-01	-5.96046000E-08
					-7.45058000E-09	-1.49012000E-08	 5.00000000E-01
					-7.45058000E-09	 2.50000000E-01	 1.00000000E+00
					 1.00000000E+00	 5.00000000E-01	 2.00000000E+00
					 1.00000000E+00	 1.00000000E+00	 2.00000000E+00
					 5.00000000E-01	 5.00000000E-01	 2.00000000E+00
					 5.00000000E-01	 1.00000000E+00	 2.00000000E+00
					 1.00000000E+00	 5.00000000E-01	 1.50000000E+00
					 1.00000000E+00	 7.50000000E-01	 2.00000000E+00
					 1.00000000E+00	 1.00000000E+00	 1.50000000E+00
					 7.50000000E-01	 5.00000000E-01	 2.00000000E+00
					 7.50000000E-01	 1.00000000E+00	 2.00000000E+00
					 5.00000000E-01	 5.00000000E-01	 1.50000000E+00
					 5.00000000E-01	 7.50000000E-01	 2.00000000E+00
					 5.00000000E-01	 1.00000000E+00	 1.50000000E+00
					 1.00000000E+00	-1.49012000E-08	 2.00000000E+00
					 5.00000000E-01	-1.49012000E-08	 2.00000000E+00
					 1.00000000E+00	-1.49012000E-08	 1.50000000E+00
					 1.00000000E+00	 2.50000000E-01	 2.00000000E+00
					 7.50000000E-01	-1.49012000E-08	 2.00000000E+00
					 5.00000000E-01	-1.49012000E-08	 1.50000000E+00
					 5.00000000E-01	 2.50000000E-01	 2.00000000E+00
					-7.45058000E-09	 5.00000000E-01	 2.00000000E+00
					-7.45058000E-09	 1.00000000E+00	 2.00000000E+00
					 2.50000000E-01	 5.00000000E-01	 2.00000000E+00
					 2.50000000E-01	 1.00000000E+00	 2.00000000E+00
					-7.45058000E-09	 5.00000000E-01	 1.50000000E+00
					-7.45058000E-09	 7.50000000E-01	 2.00000000E+00
					-7.45058000E-09	 1.00000000E+00	 1.50000000E+00
					-7.45058000E-09	-1.49012000E-08	 2.00000000E+00
					 2.50000000E-01	-1.49012000E-08	 2.00000000E+00
					-7.45058000E-09	-1.49012000E-08	 1.50000000E+00
					-7.45058000E-09	 2.50000000E-01	 2.00000000E+00
					 1.00000000E+00	 5.00000000E-01	 3.00000000E+00
					 1.00000000E+00	 1.00000000E+00	 3.00000000E+00
					 5.00000000E-01	 5.00000000E-01	 3.00000000E+00
					 5.00000000E-01	 1.00000000E+00	 3.00000000E+00
					 1.00000000E+00	 5.00000000E-01	 2.50000000E+00
					 1.00000000E+00	 7.50000000E-01	 3.00000000E+00
					 1.00000000E+00	 1.00000000E+00	 2.50000000E+00
					 7.50000000E-01	 5.00000000E-01	 3.00000000E+00
					 7.50000000E-01	 1.00000000E+00	 3.00000000E+00
					 5.00000000E-01	 5.00000000E-01	 2.50000000E+00
					 5.00000000E-01	 7.50000000E-01	 3.00000000E+00
					 5.00000000E-01	 1.00000000E+00	 2.50000000E+00
					 1.00000000E+00	-1.49012000E-08	 3.00000000E+00
					 5.00000000E-01	-1.49012000E-08	 3.00000000E+00
					 1.00000000E+00	-1.49012000E-08	 2.50000000E+00
					 1.00000000E+00	 2.50000000E-01	 3.00000000E+00
					 7.50000000E-01	-1.49012000E-08	 3.00000000E+00
					 5.00000000E-01	-1.49012000E-08	 2.50000000E+00
					 5.00000000E-01	 2.50000000E-01	 3.00000000E+00
					-7.45058000E-09	 5.00000000E-01	 3.00000000E+00
					-7.45058000E-09	 1.00000000E+00	 3.00000000E+00
					 2.50000000E-01	 5.00000000E-01	 3.00000000E+00
					 2.50000000E-01	 1.00000000E+00	 3.00000000E+00
					-7.45058000E-09	 5.00000000E-01	 2.50000000E+00
					-7.45058000E-09	 7.50000000E-01	 3.00000000E+00
					-7.45058000E-09	 1.00000000E+00	 2.50000000E+00
					-7.45058000E-09	-1.49012000E-08	 3.00000000E+00
					 2.50000000E-01	-1.49012000E-08	 3.00000000E+00
					-7.45058000E-09	-1.49012000E-08	 2.50000000E+00
					-7.45058000E-09	 2.50000000E-01	 3.00000000E+00
					 1.00000000E+00	 5.00000000E-01	 4.00000000E+00
					 1.00000000E+00	 1.00000000E+00	 4.00000000E+00
					 5.00000000E-01	 5.00000000E-01	 4.00000000E+00
					 5.00000000E-01	 1.00000000E+00	 4.00000000E+00
					 1.00000000E+00	 5.00000000E-01	 3.50000000E+00
					 1.00000000E+00	 7.50000000E-01	 4.00000000E+00
					 1.00000000E+00	 1.00000000E+00	 3.50000000E+00
					 7.50000000E-01	 5.00000000E-01	 4.00000000E+00
					 7.50000000E-01	 1.00000000E+00	 4.00000000E+00
					 5.00000000E-01	 5.00000000E-01	 3.50000000E+00
					 5.00000000E-01	 7.50000000E-01	 4.00000000E+00
					 5.00000000E-01	 1.00000000E+00	 3.50000000E+00
					 1.00000000E+00	-1.49012000E-08	 4.00000000E+00
					 5.00000000E-01	-1.49012000E-08	 4.00000000E+00
					 1.00000000E+00	-1.49012000E-08	 3.50000000E+00
					 1.00000000E+00	 2.50000000E-01	 4.00000000E+00
					 7.50000000E-01	-1.49012000E-08	 4.00000000E+00
					 5.00000000E-01	-1.49012000E-08	 3.50000000E+00
					 5.00000000E-01	 2.50000000E-01	 4.00000000E+00
					-7.45058000E-09	 5.00000000E-01	 4.00000000E+00
					-7.45058000E-09	 1.00000000E+00	 4.00000000E+00
					 2.50000000E-01	 5.00000000E-01	 4.00000000E+00
					 2.50000000E-01	 1.00000000E+00	 4.00000000E+00
					-7.45058000E-09	 5.00000000E-01	 3.50000000E+00
					-7.45058000E-09	 7.50000000E-01	 4.00000000E+00
					-7.45058000E-09	 1.00000000E+00	 3.50000000E+00
					-7.45058000E-09	-1.49012000E-08	 4.00000000E+00
					 2.50000000E-01	-1.49012000E-08	 4.00000000E+00
					-7.45058000E-09	-1.49012000E-08	 3.50000000E+00
					-7.45058000E-09	 2.50000000E-01	 4.00000000E+00
					 1.00000000E+00	 5.00000000E-01	 5.00000000E+00
					 1.00000000E+00	 1.00000000E+00	 5.00000000E+00
					 5.00000000E-01	 5.00000000E-01	 5.00000000E+00
					 5.00000000E-01	 1.00000000E+00	 5.00000000E+00
					 1.00000000E+00	 5.00000000E-01	 4.50000000E+00
					 1.00000000E+00	 7.50000000E-01	 5.00000000E+00
					 1.00000000E+00	 1.00000000E+00	 4.50000000E+00
					 7.50000000E-01	 5.00000000E-01	 5.00000000E+00
					 7.50000000E-01	 1.00000000E+00	 5.00000000E+00
					 5.00000000E-01	 5.00000000E-01	 4.50000000E+00
					 5.00000000E-01	 7.50000000E-01	 5.00000000E+00
					 5.00000000E-01	 1.00000000E+00	 4.50000000E+00
					 1.00000000E+00	-1.49012000E-08	 5.00000000E+00
					 5.00000000E-01	-1.49012000E-08	 5.00000000E+00
					 1.00000000E+00	-1.49012000E-08	 4.50000000E+00
					 1.00000000E+00	 2.50000000E-01	 5.00000000E+00
					 7.50000000E-01	-1.49012000E-08	 5.00000000E+00
					 5.00000000E-01	-1.49012000E-08	 4.50000000E+00
					 5.00000000E-01	 2.50000000E-01	 5.00000000E+00
					-7.45058000E-09	 5.00000000E-01	 5.00000000E+00
					-7.45058000E-09	 1.00000000E+00	 5.00000000E+00
					 2.50000000E-01	 5.00000000E-01	 5.00000000E+00
					 2.50000000E-01	 1.00000000E+00	 5.00000000E+00
					-7.45058000E-09	 5.00000000E-01	 4.50000000E+00
					-7.45058000E-09	 7.50000000E-01	 5.00000000E+00
					-7.45058000E-09	 1.00000000E+00	 4.50000000E+00
					-7.45058000E-09	-1.49012000E-08	 5.00000000E+00
					 2.50000000E-01	-1.49012000E-08	 5.00000000E+00
					-7.45058000E-09	-1.49012000E-08	 4.50000000E+00
					-7.45058000E-09	 2.50000000E-01	 5.00000000E+00
					 1.00000000E+00	 5.00000000E-01	 6.00000000E+00
					 1.00000000E+00	 1.00000000E+00	 6.00000000E+00
					 5.00000000E-01	 5.00000000E-01	 6.00000000E+00
					 5.00000000E-01	 1.00000000E+00	 6.00000000E+00
					 1.00000000E+00	 5.00000000E-01	 5.50000000E+00
					 1.00000000E+00	 7.50000000E-01	 6.00000000E+00
					 1.00000000E+00	 1.00000000E+00	 5.50000000E+00
					 7.50000000E-01	 5.00000000E-01	 6.00000000E+00
					 7.50000000E-01	 1.00000000E+00	 6.00000000E+00
					 5.00000000E-01	 5.00000000E-01	 5.50000000E+00
					 5.00000000E-01	 7.50000000E-01	 6.00000000E+00
					 5.00000000E-01	 1.00000000E+00	 5.50000000E+00
					 1.00000000E+00	-1.49012000E-08	 6.00000000E+00
[...]
			<PointData>
				<DataArray type="Float32" Name="U" NumberOfComponents="3" ComponentName0="D1" ComponentName1="D2" ComponentName2="D3" format="ascii">
					 0.00000000E+00	 0.00000000E+00	 0.00000000E+00
					 0.00000000E+00	 0.00000000E+00	 0.00000000E+00
					-5.77497000E-06	-2.04245000E-03	 2.53008000E-05
					-1.30997000E-04	-2.08877000E-03	 1.68256000E-03
					 0.00000000E+00	 0.00000000E+00	 0.00000000E+00
					 0.00000000E+00	 0.00000000E+00	 0.00000000E+00
					 1.43946000E-05	-2.08020000E-03	 1.03270000E-05
					 2.25275000E-05	-2.21275000E-03	 1.70390000E-03
					 0.00000000E+00	 0.00000000E+00	 0.00000000E+00
					 3.04347000E-05	-5.21616000E-04	 7.56889000E-06
					-6.45302000E-05	-2.02761000E-03	 8.17547000E-04
					-2.03941000E-04	-6.63613000E-04	 8.90809000E-04
					 0.00000000E+00	 0.00000000E+00	 0.00000000E+00
					 0.00000000E+00	 0.00000000E+00	 0.00000000E+00
					 1.41158000E-05	-2.10117000E-03	 4.33298000E-06
					-5.88795000E-05	-2.18319000E-03	 1.69717000E-03
					 0.00000000E+00	 0.00000000E+00	 0.00000000E+00
					 1.57151000E-05	-5.96754000E-04	 9.82745000E-06
					 2.62183000E-05	-2.11135000E-03	 8.39682000E-04
					 2.90720000E-05	-7.66154000E-04	 8.84624000E-04
					 0.00000000E+00	 0.00000000E+00	 0.00000000E+00
					 1.84968000E-04	-2.11432000E-03	-1.67883000E-03
					 0.00000000E+00	 0.00000000E+00	 0.00000000E+00
					-1.12149000E-06	-2.19443000E-03	-1.67012000E-03
					 0.00000000E+00	 0.00000000E+00	 0.00000000E+00
					 2.88791000E-04	-6.42826000E-04	-8.75540000E-04
					 9.71599000E-05	-2.04224000E-03	-8.01851000E-04
					 0.00000000E+00	 0.00000000E+00	 0.00000000E+00
					 6.51086000E-05	-2.17492000E-03	-1.66405000E-03
					 0.00000000E+00	 0.00000000E+00	 0.00000000E+00
					-7.28342000E-06	-7.39928000E-04	-8.56687000E-04
					 6.63227000E-06	-2.09244000E-03	-7.97205000E-04
					 0.00000000E+00	 0.00000000E+00	 0.00000000E+00
					 0.00000000E+00	 0.00000000E+00	 0.00000000E+00
					 2.47907000E-05	-1.98009000E-03	 2.35572000E-05
					 2.69203000E-04	-2.05860000E-03	 1.68840000E-03
					 0.00000000E+00	 0.00000000E+00	 0.00000000E+00
					 0.00000000E+00	 0.00000000E+00	 0.00000000E+00
					 1.30553000E-05	-2.05622000E-03	 2.08978000E-05
					 1.33253000E-04	-2.16557000E-03	 1.73106000E-03
					 0.00000000E+00	 0.00000000E+00	 0.00000000E+00
					-1.59032000E-06	-4.72931000E-04	 1.53322000E-05
					 1.48519000E-04	-1.98132000E-03	 8.12551000E-04
					 2.88189000E-04	-6.38689000E-04	 8.77140000E-04
					 0.00000000E+00	 0.00000000E+00	 0.00000000E+00
					-2.44960000E-04	-2.03073000E-03	-1.66169000E-03
					 0.00000000E+00	 0.00000000E+00	 0.00000000E+00
					-1.02928000E-04	-2.17521000E-03	-1.67753000E-03
					 0.00000000E+00	 0.00000000E+00	 0.00000000E+00
					-2.31090000E-04	-6.02610000E-04	-8.74884000E-04
					-1.11566000E-04	-1.97292000E-03	-7.76581000E-04
					-3.69124000E-06	-7.02306000E-03	-7.64927000E-05
					-1.12303000E-04	-7.08909000E-03	 2.65610000E-03
					 5.80151000E-06	-7.07292000E-03	-8.58095000E-06
					-1.79364000E-06	-7.15113000E-03	 2.75368000E-03
					 2.14879000E-05	-4.23407000E-03	-1.98105000E-05
					-3.75048000E-05	-7.05113000E-03	 1.25923000E-03
					-2.07575000E-04	-4.30604000E-03	 2.30559000E-03
					 3.22996000E-06	-7.06445000E-03	-2.47573000E-05
					-5.68118000E-05	-7.12540000E-03	 2.68307000E-03
					-1.56673000E-05	-4.31778000E-03	 3.48588000E-06
					 6.31433000E-07	-7.11159000E-03	 1.32908000E-03
					-3.52948000E-05	-4.41581000E-03	 2.33111000E-03
					 1.35706000E-04	-7.02981000E-03	-2.79927000E-03
					 1.93203000E-05	-7.13693000E-03	-2.72642000E-03
					 1.63967000E-04	-4.30603000E-03	-2.32835000E-03
					 6.71613000E-05	-7.03594000E-03	-1.36718000E-03
					 6.75323000E-05	-7.09943000E-03	-2.75434000E-03
					-1.64356000E-05	-4.39728000E-03	-2.31219000E-03
					 2.25902000E-05	-7.09173000E-03	-1.34313000E-03
					 1.39818000E-05	-7.03741000E-03	 6.75927000E-05
					 8.78821000E-05	-7.11352000E-03	 2.78241000E-03
					 3.08598000E-06	-7.08104000E-03	 3.50255000E-05
					 5.95855000E-05	-7.13696000E-03	 2.75092000E-03
					-1.64747000E-05	-4.25688000E-03	 3.06540000E-05
					 5.04851000E-05	-7.05634000E-03	 1.40357000E-03
					 1.02270000E-04	-4.34344000E-03	 2.35784000E-03
					-7.72256000E-05	-7.08897000E-03	-2.63800000E-03
					-3.78270000E-05	-7.12326000E-03	-2.69946000E-03
					-1.32361000E-04	-4.35231000E-03	-2.27271000E-03
					-1.95392000E-05	-7.05438000E-03	-1.25710000E-03
					 1.41487000E-05	-1.33538000E-02	 1.23086000E-05
					 2.04651000E-04	-1.33258000E-02	 2.80959000E-03
					 8.85048000E-06	-1.31787000E-02	 6.54306000E-05
					 1.22022000E-04	-1.31870000E-02	 2.79104000E-03
					-2.27800000E-05	-1.01760000E-02	-2.18479000E-05
					 8.75703000E-05	-1.33490000E-02	 1.35392000E-03
					 8.50998000E-05	-1.02422000E-02	 2.85903000E-03
					 1.24074000E-05	-1.32455000E-02	 1.76577000E-05
					 1.60364000E-04	-1.32057000E-02	 2.81531000E-03
					 2.54845000E-05	-1.01210000E-02	 1.65976000E-05
					 6.45823000E-05	-1.31782000E-02	 1.42104000E-03
					 1.05783000E-04	-1.01460000E-02	 2.91196000E-03
					-2.26950000E-04	-1.33403000E-02	-2.71863000E-03
					-1.12188000E-04	-1.31528000E-02	-2.77155000E-03
					-7.46446000E-05	-1.01971000E-02	-2.89260000E-03
					-1.03114000E-04	-1.33405000E-02	-1.32277000E-03
					-1.53546000E-04	-1.32102000E-02	-2.77592000E-03
					-2.79708000E-05	-1.01420000E-02	-2.87823000E-03
					-6.42030000E-05	-1.31769000E-02	-1.32679000E-03
					 9.44958000E-06	-1.30952000E-02	 3.77302000E-05
					 6.45805000E-05	-1.31128000E-02	 2.83695000E-03
					 1.73299000E-05	-1.31044000E-02	 4.06007000E-05
					 7.89324000E-05	-1.31192000E-02	 2.79394000E-03
					 5.84190000E-05	-1.00770000E-02	 5.05407000E-05
					 2.12036000E-05	-1.31126000E-02	 1.43076000E-03
					 9.58957000E-05	-1.00981000E-02	 2.88715000E-03
					-4.58900000E-05	-1.31103000E-02	-2.71726000E-03
					-6.92016000E-05	-1.30893000E-02	-2.72493000E-03
					-2.10181000E-05	-1.00513000E-02	-2.81389000E-03
					-3.11984000E-05	-1.31086000E-02	-1.32531000E-03
					 3.37501000E-05	-1.84520000E-02	 4.52273000E-05
					 2.83293000E-04	-1.84038000E-02	 2.40770000E-03
					 1.46243000E-05	-1.81566000E-02	 3.46015000E-06
					 3.11347000E-04	-1.81492000E-02	 2.32926000E-03
					 2.62267000E-05	-1.60601000E-02	 4.73457000E-05
					 1.86488000E-04	-1.84558000E-02	 1.21156000E-03
					 2.79201000E-04	-1.60313000E-02	 2.55442000E-03
					 4.92684000E-06	-1.83164000E-02	 4.16448000E-05
					 3.31337000E-04	-1.82962000E-02	 2.38737000E-03
					 1.99430000E-05	-1.58148000E-02	 3.74504000E-05
					 1.76167000E-04	-1.81370000E-02	 1.18747000E-03
					 2.10060000E-04	-1.58282000E-02	 2.54565000E-03
					-2.91214000E-04	-1.84387000E-02	-2.30849000E-03
					-2.86617000E-04	-1.81170000E-02	-2.29193000E-03
					-2.15907000E-04	-1.60301000E-02	-2.48459000E-03
					-1.23279000E-04	-1.84262000E-02	-1.15452000E-03
					-2.78012000E-04	-1.82903000E-02	-2.31914000E-03
					-1.54053000E-04	-1.57716000E-02	-2.51659000E-03
					-1.19576000E-04	-1.81538000E-02	-1.16691000E-03
					 4.31858000E-06	-1.78699000E-02	-1.66884000E-05
					 2.40139000E-04	-1.78820000E-02	 2.30016000E-03
					 2.89507000E-05	-1.80199000E-02	-2.08317000E-05
					 2.69703000E-04	-1.80007000E-02	 2.32397000E-03
					 2.00698000E-05	-1.56509000E-02	 2.10235000E-05
					 1.47957000E-04	-1.78937000E-02	 1.20420000E-03
					 9.64975000E-05	-1.56667000E-02	 2.57083000E-03
					-1.68665000E-04	-1.79169000E-02	-2.34302000E-03
					-2.57127000E-04	-1.79870000E-02	-2.30811000E-03
					-8.67314000E-05	-1.56591000E-02	-2.50161000E-03
					-1.17018000E-04	-1.78832000E-02	-1.24621000E-03
					 6.47952000E-05	-2.32795000E-02	-5.72283000E-05
					 5.92470000E-04	-2.32982000E-02	 2.55428000E-03
					 5.97577000E-05	-2.26506000E-02	-8.42123000E-05
					 7.48274000E-04	-2.26806000E-02	 2.56361000E-03
					 3.90076000E-05	-2.07488000E-02	-1.54627000E-05
					 3.33799000E-04	-2.32646000E-02	 1.26793000E-03
					 4.21852000E-04	-2.07193000E-02	 2.36169000E-03
					 7.30776000E-05	-2.29550000E-02	-4.21090000E-05
					 6.55517000E-04	-2.30350000E-02	 2.57932000E-03
					 4.74073000E-05	-2.03328000E-02	-1.94269000E-05
					 3.76015000E-04	-2.26669000E-02	 1.25206000E-03
					 4.87629000E-04	-2.03348000E-02	 2.36033000E-03
					-4.92310000E-04	-2.32569000E-02	-2.68439000E-03
					-6.53752000E-04	-2.26875000E-02	-2.66749000E-03
					-3.41075000E-04	-2.07866000E-02	-2.38198000E-03
					-2.31449000E-04	-2.32835000E-02	-1.34956000E-03
					-5.86338000E-04	-2.29922000E-02	-2.70768000E-03
					-4.44198000E-04	-2.03187000E-02	-2.39288000E-03
					-2.93703000E-04	-2.26523000E-02	-1.39655000E-03
					 6.06069000E-05	-2.19357000E-02	-5.66644000E-05
					 7.39177000E-04	-2.19921000E-02	 2.52850000E-03
					 4.64947000E-05	-2.22937000E-02	-6.15753000E-05
					 7.55358000E-04	-2.23637000E-02	 2.49088000E-03
					 7.53599000E-06	-1.98508000E-02	-6.53664000E-05
					 4.19149000E-04	-2.19429000E-02	 1.30848000E-03
					 4.79413000E-04	-1.98701000E-02	 2.34160000E-03
					-7.47187000E-04	-2.19135000E-02	-2.70379000E-03
					-6.93261000E-04	-2.23329000E-02	-2.63347000E-03
					-4.51301000E-04	-1.98413000E-02	-2.44953000E-03
					-3.39757000E-04	-2.19038000E-02	-1.41596000E-03
					 3.53705000E-05	-2.94742000E-02	-1.16964000E-04
					 9.65475000E-04	-2.96088000E-02	 3.32823000E-03
					 4.37596000E-05	-2.85580000E-02	-5.43316000E-05
					 9.82376000E-04	-2.86220000E-02	 3.35380000E-03
					 4.02330000E-05	-2.62044000E-02	-7.25977000E-05
					 4.19738000E-04	-2.95145000E-02	 1.60486000E-03
					 7.85164000E-04	-2.63042000E-02	 2.91210000E-03
					 4.27112000E-05	-2.90429000E-02	-9.53046000E-05
					 9.66283000E-04	-2.90581000E-02	 3.28485000E-03
					 1.57575000E-05	-2.53945000E-02	-8.52528000E-05
					 5.37054000E-04	-2.85772000E-02	 1.66979000E-03
					 8.74443000E-04	-2.54127000E-02	 2.93285000E-03
					-9.25415000E-04	-2.95873000E-02	-3.48090000E-03
					-9.32608000E-04	-2.86014000E-02	-3.40488000E-03
					-7.56032000E-04	-2.63109000E-02	-3.06544000E-03
					-4.07545000E-04	-2.94982000E-02	-1.82037000E-03
					-9.16826000E-04	-2.90475000E-02	-3.43364000E-03
					-8.19497000E-04	-2.54538000E-02	-3.03012000E-03
					-4.62400000E-04	-2.85484000E-02	-1.73614000E-03
					 9.07286000E-05	-2.75035000E-02	-3.30717000E-05
					 1.25664000E-03	-2.75172000E-02	 3.37536000E-03
					 6.54608000E-05	-2.80388000E-02	-2.64302000E-05
					 1.11143000E-03	-2.81121000E-02	 3.36576000E-03
					 4.10107000E-05	-2.44804000E-02	-4.31383000E-05
					 6.16247000E-04	-2.75065000E-02	 1.61731000E-03
					 1.03891000E-03	-2.44873000E-02	 2.97809000E-03
					-1.10435000E-03	-2.74815000E-02	-3.37696000E-03
					-9.93449000E-04	-2.81245000E-02	-3.41616000E-03
					-9.40099000E-04	-2.44646000E-02	-3.03131000E-03
					-4.77055000E-04	-2.74971000E-02	-1.67470000E-03
					 3.02827000E-05	-3.60737000E-02	 6.48992000E-05
					-2.02812000E-04	-3.60258000E-02	 4.13272000E-03
					 4.54075000E-05	-3.60143000E-02	-6.82110000E-05
					 1.37802000E-04	-3.60550000E-02	 4.00499000E-03
					 4.28974000E-05	-3.26522000E-02	-1.61764000E-05
					-2.90458000E-05	-3.60235000E-02	 2.13034000E-03
					 5.69386000E-04	-3.27666000E-02	 3.72714000E-03
					 2.87996000E-05	-3.60543000E-02	-3.62711000E-05
					-3.23860000E-05	-3.60971000E-02	 4.04420000E-03
					 7.91354000E-05	-3.21003000E-02	-3.30246000E-05
					 5.25611000E-05	-3.60330000E-02	 1.97450000E-03
					 6.74786000E-04	-3.21777000E-02	 3.63612000E-03
					 6.88765000E-05	-3.60424000E-02	-4.27136000E-03
					-5.99055000E-05	-3.61478000E-02	-4.28436000E-03
					-4.95607000E-04	-3.27333000E-02	-3.80896000E-03
					 1.06201000E-04	-3.60595000E-02	-2.19376000E-03
					 1.57064000E-05	-3.60792000E-02	-4.19062000E-03
					-5.69865000E-04	-3.21291000E-02	-3.81927000E-03
					-9.72085000E-06	-3.60899000E-02	-2.15210000E-03
					-1.68630000E-05	-3.58908000E-02	-1.39545000E-05
					 2.18285000E-04	-3.59901000E-02	 4.05370000E-03
					 1.67919000E-05	-3.59802000E-02	-6.80760000E-05
					 1.80674000E-04	-3.60217000E-02	 4.11234000E-03
					 4.34094000E-05	-3.14307000E-02	-4.69764000E-05
					 1.84770000E-04	-3.59327000E-02	 1.96900000E-03
					 7.52808000E-04	-3.15353000E-02	 3.71922000E-03
					-2.44365000E-04	-3.58823000E-02	-4.22461000E-03
					-1.52049000E-04	-3.60156000E-02	-4.36493000E-03
					-7.23200000E-04	-3.14139000E-02	-3.85930000E-03
					-1.23013000E-04	-3.58786000E-02	-1.99737000E-03
					 1.95237000E-04	-4.48927000E-02	-2.24359000E-04
					-6.06405000E-04	-4.58451000E-02	 5.82592000E-03
					-1.35330000E-05	-4.52729000E-02	-1.38559000E-04
					-1.00087000E-03	-4.64226000E-02	 4.76855000E-03
					 1.08910000E-04	-4.01051000E-02	-1.75885000E-04
					-3.01672000E-04	-4.53235000E-02	 2.66065000E-03
					-4.98830000E-04	-4.03322000E-02	 4.83728000E-03
					 8.44476000E-05	-4.51311000E-02	-1.17091000E-04
					-7.53908000E-04	-4.61996000E-02	 5.20378000E-03
					 4.62750000E-05	-4.07144000E-02	-2.24375000E-04
					-4.66174000E-04	-4.58173000E-02	 2.17568000E-03
					-3.43983000E-04	-4.06830000E-02	 4.56990000E-03
					 1.91022000E-03	-4.37359000E-02	-4.93837000E-03
					 1.23353000E-03	-4.49492000E-02	-4.58732000E-03
					 7.74551000E-04	-4.00288000E-02	-4.69371000E-03
					 8.30048000E-04	-4.43088000E-02	-2.72577000E-03
					 1.49716000E-03	-4.45801000E-02	-4.62867000E-03
					 5.55548000E-04	-4.06380000E-02	-4.52238000E-03
					 6.19024000E-04	-4.50680000E-02	-2.34738000E-03
					-1.88265000E-04	-4.63019000E-02	-3.67497000E-04
					-1.35412000E-03	-4.77380000E-02	 4.83896000E-03
					-7.91405000E-05	-4.57377000E-02	-2.13583000E-04
					-1.14596000E-03	-4.71637000E-02	 4.93248000E-03
					-2.98196000E-05	-4.11678000E-02	-2.05663000E-04
					-7.90983000E-04	-4.69107000E-02	 1.86340000E-03
					-3.96236000E-04	-4.12516000E-02	 4.36276000E-03
					 1.20186000E-03	-4.57659000E-02	-4.15547000E-03
					 1.17144000E-03	-4.53383000E-02	-4.44473000E-03
					 5.57473000E-04	-4.11595000E-02	-4.44545000E-03
					 5.31046000E-04	-4.60470000E-02	-2.22288000E-03
					 0.00000000E+00	 0.00000000E+00	 0.00000000E+00
					 0.00000000E+00	 0.00000000E+00	 0.00000000E+00
					 7.38520000E-06	-1.61563000E-02	-3.83374000E-04
					-3.32734000E-03	-1.75165000E-02	 1.61539000E-02
					 0.00000000E+00	 0.00000000E+00	 0.00000000E+00
					 0.00000000E+00	 0.00000000E+00	 0.00000000E+00
					-2.75320000E-05	-1.84813000E-02	-5.21120000E-04
					-1.12895000E-03	-1.98392000E-02	 1.63112000E-02
					 0.00000000E+00	 0.00000000E+00	 0.00000000E+00
					 4.37354000E-05	-3.19144000E-03	-1.49056000E-04
					-1.66064000E-03	-1.64504000E-02	 7.78427000E-03
					-2.95822000E-03	-4.71476000E-03	 8.23192000E-03
					 0.00000000E+00	 0.00000000E+00	 0.00000000E+00
					 0.00000000E+00	 0.00000000E+00	 0.00000000E+00
					 8.72091000E-06	-1.76973000E-02	-4.70979000E-04
					-2.24209000E-03	-1.90381000E-02	 1.61339000E-02
					 0.00000000E+00	 0.00000000E+00	 0.00000000E+00
					-3.70681000E-06	-4.90116000E-03	-1.79150000E-04
					-5.75594000E-04	-1.87680000E-02	 7.69631000E-03
					-6.00521000E-04	-6.37770000E-03	 7.97674000E-03
					 0.00000000E+00	 0.00000000E+00	 0.00000000E+00
					 3.46887000E-03	-1.68204000E-02	-1.70411000E-02
					 0.00000000E+00	 0.00000000E+00	 0.00000000E+00
					 1.20024000E-03	-1.91474000E-02	-1.73402000E-02
					 0.00000000E+00	 0.00000000E+00	 0.00000000E+00
					 3.15009000E-03	-4.55732000E-03	-8.55727000E-03
					 1.76027000E-03	-1.60922000E-02	-8.63656000E-03
					 0.00000000E+00	 0.00000000E+00	 0.00000000E+00
					 2.32306000E-03	-1.83477000E-02	-1.70912000E-02
					 0.00000000E+00	 0.00000000E+00	 0.00000000E+00
					 6.05777000E-04	-6.20308000E-03	-8.32397000E-03
					 5.86474000E-04	-1.84299000E-02	-8.70434000E-03
					 0.00000000E+00	 0.00000000E+00	 0.00000000E+00
					 0.00000000E+00	 0.00000000E+00	 0.00000000E+00
					-1.41588000E-06	-1.86304000E-02	-4.87573000E-04
					 8.98623000E-04	-1.99055000E-02	 1.60244000E-02
					 0.00000000E+00	 0.00000000E+00	 0.00000000E+00
					 0.00000000E+00	 0.00000000E+00	 0.00000000E+00
					-1.75695000E-05	-1.89008000E-02	-5.11040000E-04
					-1.06225000E-04	-2.01736000E-02	 1.62202000E-02
					 0.00000000E+00	 0.00000000E+00	 0.00000000E+00
					-6.78371000E-05	-4.40745000E-03	-1.87993000E-04
					 4.36241000E-04	-1.88767000E-02	 7.53491000E-03
					 1.90505000E-03	-5.89196000E-03	 8.22107000E-03
					 0.00000000E+00	 0.00000000E+00	 0.00000000E+00
					-9.80728000E-04	-1.92391000E-02	-1.71667000E-02
					 0.00000000E+00	 0.00000000E+00	 0.00000000E+00
					 1.02245000E-04	-1.96029000E-02	-1.73375000E-02
					 0.00000000E+00	 0.00000000E+00	 0.00000000E+00
					-1.98458000E-03	-5.67891000E-03	-8.61410000E-03
					-4.77262000E-04	-1.85490000E-02	-8.55084000E-03
					 4.08994000E-05	-6.43274000E-02	-1.81599000E-03
					-3.66856000E-03	-6.60177000E-02	 2.76112000E-02
					-7.37354000E-05	-6.71966000E-02	-1.95187000E-03
					-2.08974000E-03	-6.89160000E-02	 2.76169000E-02
					 2.19340000E-06	-3.69514000E-02	-9.54859000E-04
					-1.81543000E-03	-6.49756000E-02	 1.28240000E-02
					-3.53458000E-03	-3.85674000E-02	 2.26122000E-02
					-3.48191000E-06	-6.59270000E-02	-1.87619000E-03
					-2.90234000E-03	-6.76280000E-02	 2.76258000E-02
					-3.38010000E-05	-3.95748000E-02	-1.06414000E-03
					-1.06124000E-03	-6.78952000E-02	 1.27233000E-02
					-1.71518000E-03	-4.11331000E-02	 2.25682000E-02
					 3.71918000E-03	-6.41149000E-02	-3.14556000E-02
					 2.11195000E-03	-6.69858000E-02	-3.16399000E-02
					 3.52773000E-03	-3.74041000E-02	-2.46038000E-02
					 1.89755000E-03	-6.40510000E-02	-1.64880000E-02
					 2.91648000E-03	-6.57253000E-02	-3.15661000E-02
					 1.57386000E-03	-3.99800000E-02	-2.48462000E-02
					 9.92090000E-04	-6.69095000E-02	-1.66446000E-02
					-1.74716000E-04	-6.84713000E-02	-1.90556000E-03
					-5.03910000E-04	-7.02197000E-02	 2.75864000E-02
					-1.37214000E-04	-6.80190000E-02	-1.94027000E-03
					-1.29946000E-03	-6.97756000E-02	 2.76619000E-02
					-8.44582000E-05	-4.02514000E-02	-1.08735000E-03
					-3.04324000E-04	-6.91448000E-02	 1.26063000E-02
					 1.86045000E-04	-4.18243000E-02	 2.24746000E-02
					 4.53494000E-04	-6.83865000E-02	-3.15458000E-02
					 1.30685000E-03	-6.78774000E-02	-3.17065000E-02
					-4.62257000E-04	-4.06308000E-02	-2.46922000E-02
					 1.30702000E-04	-6.82815000E-02	-1.64669000E-02
					 5.70684000E-05	-1.34036000E-01	-4.36170000E-03
					-3.97211000E-03	-1.35933000E-01	 3.37254000E-02
					-3.99933000E-06	-1.37494000E-01	-4.45347000E-03
					-2.91607000E-03	-1.39521000E-01	 3.35541000E-02
					-2.22607000E-05	-9.70377000E-02	-2.92627000E-03
					-1.95617000E-03	-1.34862000E-01	 1.45723000E-02
					-3.82476000E-03	-9.88427000E-02	 3.13060000E-02
					 2.15795000E-05	-1.35927000E-01	-4.43485000E-03
					-3.42299000E-03	-1.37895000E-01	 3.35567000E-02
					 7.22044000E-06	-1.00229000E-01	-3.07825000E-03
					-1.47503000E-03	-1.38365000E-01	 1.43776000E-02
					-2.52963000E-03	-1.02010000E-01	 3.12265000E-02
					 3.89266000E-03	-1.33037000E-01	-4.23560000E-02
					 2.86864000E-03	-1.36468000E-01	-4.26866000E-02
					 3.86840000E-03	-9.64316000E-02	-3.72694000E-02
					 1.93709000E-03	-1.33425000E-01	-2.32297000E-02
					 3.37517000E-03	-1.34931000E-01	-4.25181000E-02
					 2.59093000E-03	-9.96876000E-02	-3.75085000E-02
					 1.44508000E-03	-1.36885000E-01	-2.33873000E-02
					-1.14565000E-05	-1.39937000E-01	-4.64114000E-03
					-1.97870000E-03	-1.42005000E-01	 3.34143000E-02
					 5.31694000E-06	-1.38846000E-01	-4.55814000E-03
					-2.44369000E-03	-1.40852000E-01	 3.36176000E-02
					 3.69815000E-05	-1.02116000E-01	-3.13037000E-03
					-1.01532000E-03	-1.40843000E-01	 1.41178000E-02
					-1.24219000E-03	-1.03910000E-01	 3.11385000E-02
					 2.01933000E-03	-1.38990000E-01	-4.26957000E-02
					 2.41467000E-03	-1.37857000E-01	-4.28415000E-02
					 1.27562000E-03	-1.01549000E-01	-3.75421000E-02
					 9.69849000E-04	-1.39368000E-01	-2.33761000E-02
					 3.92810000E-04	-2.16819000E-01	-7.92657000E-03
					-3.30401000E-03	-2.18636000E-01	 3.38395000E-02