<?xml version="1.0"?>
<VTKFile type="UnstructuredGrid" version="0.1" byte_order="LittleEndian">
	<UnstructuredGrid>
		<Piece NumberOfPoints="522" NumberOfCells="64">
			<Points>
				<DataArray type="Float64" NumberOfComponents="3" format="ascii">
					 1.00000000E+00	 1.00000000E+00	-5.96046000E-08
					 1.00000000E+00	 5.00000000E-01	-5.96046000E-08
					 1.00000000E+00	 5.00000000E-01	 1.00000000E+00
					 1.00000000E+00	 1.00000000E+00	 1.00000000E+00
					 5.00000000E-01	 1.00000000E+00	-5.96046000E-08
					 5.00000000E-01	 5.00000000E-01	-5.96046000E-08
					 5.00000000E-01	 5.00000000E-01	 1.00000000E+00
					 5.00000000E-01	 1.00000000E+00	 1.00000000E+00
					 1.00000000E+00	 7.50000000E-01	-5.96046000E-08
					 1.00000000E+00	 5.00000000E-01	 5.00000000E-01
					 1.00000000E+00	 7.50000000E-01	 1.00000000E+00
					 1.00000000E+00	 1.00000000E+00	 5.00000000E-01
					 7.50000000E-01	 1.00000000E+00	-5.96046000E-08
					 7.50000000E-01	 5.00000000E-01	-5.96046000E-08
					 7.50000000E-01	 5.00000000E-01	 1.00000000E+00
					 7.50000000E-01	 1.00000000E+00	 1.00000000E+00
					 5.00000000E-01	 7.50000000E-01	-5.96046000E-08
					 5.00000000E-01	 5.00000000E-01	 5.00000000E-01
					 5.00000000E-01	 7.50000000E-01	 1.00000000E+00
					 5.00000000E-01	 1.00000000E+00	 5.00000000E-01
					 1.00000000E+00	-1.49012000E-08	-5.96046000E-08
					 1.00000000E+00	-1.49012000E-08	 1.00000000E+00
					 5.00000000E-01	-1.49012000E-08	-5.96046000E-08
					 5.00000000E-01	-1.49012000E-08	 1.00000000E+00
					 1.00000000E+00	 2.50000000E-01	-5.96046000E-08
					 1.00000000E+00	-1.49012000E-08	 5.00000000E-01
					 1.00000000E+00	 2.50000000E-01	 1.00000000E+00
					 7.50000000E-01	-1.49012000E-08	-5.96046000E-08
					 7.50000000E-01	-1.49012000E-08	 1.00000000E+00
					 5.00000000E-01	 2.50000000E-01	-5.96046000E-08
					 5.00000000E-01	-1.49012000E-08	 5.00000000E-01
					 5.00000000E-01	 2.50000000E-01	 1.00000000E+00
					-7.45058000E-09	 1.00000000E+00	-5.96046000E-08
					-7.45058000E-09	 5.00000000E-01	-5.96046000E-08
					-7.45058000E-09	 5.00000000E-01	 1.00000000E+00
					-7.45058000E-09	 1.00000000E+00	 1.00000000E+00
					 2.50000000E-01	 1.00000000E+00	-5.96046000E-08
					 2.50000000E-01	 5.00000000E-01	-5.96046000E-08
					 2.50000000E-01	 5.00000000E-01	 1.00000000E+00
					 2.50000000E-01	 1.00000000E+00	 1.00000000E+00
					-7.45058000E-09	 7.50000000E-01	-5.96046000E-08
					-7.45058000E-09	 5.00000000E-01	 5.00000000E-01
					-7.45058000E-09	 7.50000000E-01	 1.00000000E+00
					-7.45058000E-09	 1.00000000E+00	 5.00000000E-01
					-7.45058000E-09	-1.49012000E-08	-5.96046000E-08
					-7.45058000E-09	-1.49012000E-08	 1.00000000E+00
					 2.50000000E-01	-1.49012000E-08	-5.96046000E-08
					 2.50000000E-01	-1.49012000E-08	 1.00000000E+00
					-7.45058000E-09	 2.50000000E-01	-5.96046000E-08
					-7.45058000E-09	-1.49012000E-08	 5.00000000E-01
					-7.45058000E-09	 2.50000000E-01	 1.00000000E+00
					 1.00000000E+00	 5.00000000E-01	 2.00000000E+00
					 1.00000000E+00	 1.00000000E+00	 2.00000000E+00
					 5.00000000E-01	 5.00000000E-01	 2.00000000E+00
					 5.00000000E-01	 1.00000000E+00	 2.00000000E+00
					 1.00000000E+00	 5.00000000E-01	 1.50000000E+00
					 1.00000000E+00	 7.50000000E-01	 2.00000000E+00
					 1.00000000E+00	 1.00000000E+00	 1.50000000E+00
					 7.50000000E-01	 5.00000000E-01	 2.00000000E+00
					 7.50000000E-01	 1.00000000E+00	 2.00000000E+00
					 5.00000000E-01	 5.00000000E-01	 1.50000000E+00
					 5.00000000E-01	 7.50000000E-01	 2.00000000E+00
					 5.00000000E-01	 1.00000000E+00	 1.50000000E+00
					 1.00000000E+00	-1.49012000E-08	 2.00000000E+00
					 5.00000000E-01	-1.49012000E-08	 2.00000000E+00
					 1.00000000E+00	-1.49012000E-08	 1.50000000E+00
					 1.00000000E+00	 2.50000000E-01	 2.00000000E+00
					 7.50000000E-01	-1.49012000E-08	 2.00000000E+00
					 5.00000000E-01	-1.49012000E-08	 1.50000000E+00
					 5.00000000E-01	 2.50000000E-01	 2.00000000E+00
					-7.45058000E-09	 5.00000000E-01	 2.00000000E+00
					-7.45058000E-09	 1.00000000E+00	 2.00000000E+00
					 2.50000000E-01	 5.00000000E-01	 2.00000000E+00
					 2.50000000E-01	 1.00000000E+00	 2.00000000E+00
					-7.45058000E-09	 5.00000000E-01	 1.50000000E+00
					-7.45058000E-09	 7.50000000E-01	 2.00000000E+00
					-7.45058000E-09	 1.00000000E+00	 1.50000000E+00
					-7.45058000E-09	-1.49012000E-08	 2.00000000E+00
					 2.50000000E-01	-1.49012000E-08	 2.00000000E+00
					-7.45058000E-09	-1.49012000E-08	 1.50000000E+00
					-7.45058000E-09	 2.50000000E-01	 2.00000000E+00
					 1.00000000E+00	 5.00000000E-01	 3.00000000E+00
					 1.00000000E+00	 1.00000000E+00	 3.00000000E+00
					 5.00000000E-01	 5.00000000E-01	 3.00000000E+00
					 5.00000000E-01	 1.00000000E+00	 3.00000000E+00
					 1.00000000E+00	 5.00000000E-01	 2.50000000E+00
					 1.00000000E+00	 7.50000000E-01	 3.00000000E+00
					 1.00000000E+00	 1.00000000E+00	 2.50000000E+00
					 7.50000000E-01	 5.00000000E-01	 3.00000000E+00
					 7.50000000E-01	 1.00000000E+00	 3.00000000E+00
					 5.00000000E-01	 5.00000000E-01	 2.50000000E+00
					 5.00000000E-01	 7.50000000E-01	 3.00000000E+00
					 5.00000000E-01	 1.00000000E+00	 2.50000000E+00
					 1.00000000E+00	-1.49012000E-08	 3.00000000E+00
					 5.00000000E-01	-1.49012000E-08	 3.00000000E+00
					 1.00000000E+00	-1.49012000E-08	 2.50000000E+00
					 1.00000000E+00	 2.50000000E-01	 3.00000000E+00
					 7.50000000E-01	-1.49012000E-08	 3.00000000E+00
					 5.00000000E-01	-1.49012000E-08	 2.50000000E+00
					 5.00000000E-01	 2.50000000E-01	 3.00000000E+00
					-7.45058000E-09	 5.00000000E-01	 3.00000000E+00
					-7.45058000E-09	 1.00000000E+00	 3.00000000E+00
					 2.50000000E-01	 5.00000000E-01	 3.00000000E+00
					 2.50000000E-01	 1.00000000E+00	 3.00000000E+00
					-7.45058000E-09	 5.00000000E-01	 2.50000000E+00
					-7.45058000E-09	 7.50000000E-01	 3.00000000E+00
					-7.45058000E-09	 1.00000000E+00	 2.50000000E+00
					-7.45058000E-09	-1.49012000E-08	 3.00000000E+00
					 2.50000000E-01	-1.49012000E-08	 3.00000000E+00
					-7.45058000E-09	-1.49012000E-08	 2.50000000E+00
					-7.45058000E-09	 2.50000000E-01	 3.00000000E+00
					 1.00000000E+00	 5.00000000E-01	 4.00000000E+00
					 1.00000000E+00	 1.00000000E+00	 4.00000000E+00
					 5.00000000E-01	 5.00000000E-01	 4.00000000E+00
					 5.00000000E-01	 1.00000000E+00	 4.00000000E+00
					 1.00000000E+00	 5.00000000E-01	 3.50000000E+00
					 1.00000000E+00	 7.50000000E-01	 4.00000000E+00
					 1.00000000E+00	 1.00000000E+00	 3.50000000E+00
					 7.50000000E-01	 5.00000000E-01	 4.00000000E+00
					 7.50000000E-01	 1.00000000E+00	 4.00000000E+00
					 5.00000000E-01	 5.00000000E-01	 3.50000000E+00
					 5.00000000E-01	 7.50000000E-01	 4.00000000E+00
					 5.00000000E-01	 1.00000000E+00	 3.50000000E+00
					 1.00000000E+00	-1.49012000E-08	 4.00000000E+00
					 5.00000000E-01	-1.49012000E-08	 4.00000000E+00
					 1.00000000E+00	-1.49012000E-08	 3.50000000E+00
					 1.00000000E+00	 2.50000000E-01	 4.00000000E+00
					 7.50000000E-01	-1.49012000E-08	 4.00000000E+00
					 5.00000000E-01	-1.49012000E-08	 3.50000000E+00
					 5.00000000E-01	 2.50000000E-01	 4.00000000E+00
					-7.45058000E-09	 5.00000000E-01	 4.00000000E+00
					-7.45058000E-09	 1.00000000E+00	 4.00000000E+00
					 2.50000000E-01	 5.00000000E-01	 4.00000000E+00
					 2.50000000E-01	 1.00000000E+00	 4.00000000E+00
					-7.45058000E-09	 5.00000000E-01	 3.50000000E+00
					-7.45058000E-09	 7.50000000E-01	 4.00000000E+00
					-7.45058000E-09	 1.00000000E+00	 3.50000000E+00
					-7.45058000E-09	-1.49012000E-08	 4.00000000E+00
					 2.50000000E-01	-1.49012000E-08	 4.00000000E+00
					-7.45058000E-09	-1.49012000E-08	 3.50000000E+00
					-7.45058000E-09	 2.50000000E-01	 4.00000000E+00
					 1.00000000E+00	 5.00000000E-01	 5.00000000E+00
					 1.00000000E+00	 1.00000000E+00	 5.00000000E+00
					 5.00000000E-01	 5.00000000E-01	 5.00000000E+00
					 5.00000000E-01	 1.00000000E+00	 5.00000000E+00
					 1.00000000E+00	 5.00000000E-01	 4.50000000E+00
					 1.00000000E+00	 7.50000000E-01	 5.00000000E+00
					 1.00000000E+00	 1.00000000E+00	 4.50000000E+00
					 7.50000000E-01	 5.00000000E-01	 5.00000000E+00
					 7.50000000E-01	 1.00000000E+00	 5.00000000E+00
					 5.00000000E-01	 5.00000000E-01	 4.50000000E+00
					 5.00000000E-01	 7.50000000E-01	 5.00000000E+00
					 5.00000000E-01	 1.00000000E+00	 4.50000000E+00
					 1.00000000E+00	-1.49012000E-08	 5.00000000E+00
					 5.00000000E-01	-1.49012000E-08	 5.00000000E+00
					 1.00000000E+00	-1.49012000E-08	 4.50000000E+00
					 1.00000000E+00	 2.50000000E-01	 5.00000000E+00
					 7.50000000E-01	-1.49012000E-08	 5.00000000E+00
					 5.00000000E-01	-1.49012000E-08	 4.50000000E+00
					 5.00000000E-01	 2.50000000E-01	 5.00000000E+00
					-7.45058000E-09	 5.00000000E-01	 5.00000000E+00
					-7.45058000E-09	 1.00000000E+00	 5.00000000E+00
					 2.50000000E-01	 5.00000000E-01	 5.00000000E+00
					 2.50000000E-01	 1.00000000E+00	 5.00000000E+00
					-7.45058000E-09	 5.00000000E-01	 4.50000000E+00
					-7.45058000E-09	 7.50000000E-01	 5.00000000E+00
					-7.45058000E-09	 1.00000000E+00	 4.50000000E+00
					-7.45058000E-09	-1.49012000E-08	 5.00000000E+00
					 2.50000000E-01	-1.49012000E-08	 5.00000000E+00
					-7.45058000E-09	-1.49012000E-08	 4.50000000E+00
					-7.45058000E-09	 2.50000000E-01	 5.00000000E+00
					 1.00000000E+00	 5.00000000E-01	 6.00000000E+00
					 1.00000000E+00	 1.00000000E+00	 6.00000000E+00
					 5.00000000E-01	 5.00000000E-01	 6.00000000E+00
					 5.00000000E-01	 1.00000000E+00	 6.00000000E+00
					 1.00000000E+00	 5.00000000E-01	 5.50000000E+00
					 1.00000000E+00	 7.50000000E-01	 6.00000000E+00
					 1.00000000E+00	 1.00000000E+00	 5.50000000E+00
					 7.50000000E-01	 5.00000000E-01	 6.00000000E+00
					 7.50000000E-01	 1.00000000E+00	 6.00000000E+00
					 5.00000000E-01	 5.00000000E-01	 5.50000000E+00
					 5.00000000E-01	 7.50000000E-01	 6.00000000E+00
					 5.00000000E-01	 1.00000000E+00	 5.50000000E+00
					 1.00000000E+00	-1.49012000E-08	 6.00000000E+00
[...]
			<PointData>
				<DataArray type="Float32" Name="U" NumberOfComponents="3" ComponentName0="D1" ComponentName1="D2" ComponentName2="D3" format="ascii">
					 0.00000000E+00	 0.00000000E+00	 0.00000000E+00
					 0.00000000E+00	 0.00000000E+00	 0.00000000E+00
					-1.56272000E-05	-9.48968000E-04	 6.14576000E-06
					 1.09421000E-03	-8.80562000E-04	-6.21061000E-04
					 0.00000000E+00	 0.00000000E+00	 0.00000000E+00
					 0.00000000E+00	 0.00000000E+00	 0.00000000E+00
					-1.50568000E-05	 7.60589000E-05	-1.22870000E-05
					 9.45572000E-04	 1.53666000E-04	-6.41857000E-04
					 0.00000000E+00	 0.00000000E+00	 0.00000000E+00
					-1.26044000E-06	-7.82039000E-04	 2.23535000E-06
					 5.38369000E-04	-9.36748000E-04	-3.91776000E-04
					 6.06269000E-04	-7.15503000E-04	-2.04878000E-04
					 0.00000000E+00	 0.00000000E+00	 0.00000000E+00
					 0.00000000E+00	 0.00000000E+00	 0.00000000E+00
					-1.46541000E-05	-4.15624000E-04	-3.67490000E-06
					 1.01952000E-03	-3.42287000E-04	-5.55836000E-04
					 0.00000000E+00	 0.00000000E+00	 0.00000000E+00
					-1.50923000E-06	-2.08404000E-04	-5.68628000E-06
					 4.64762000E-04	 9.11078000E-05	-3.36494000E-04
					 5.27038000E-04	-1.54787000E-04	-1.95609000E-04
					 0.00000000E+00	 0.00000000E+00	 0.00000000E+00
					-1.12653000E-03	-8.78558000E-04	 6.32812000E-04
					 0.00000000E+00	 0.00000000E+00	 0.00000000E+00
					-9.76163000E-04	 1.54268000E-04	 6.17729000E-04
					 0.00000000E+00	 0.00000000E+00	 0.00000000E+00
					-6.07897000E-04	-7.13907000E-04	 2.08871000E-04
					-5.70259000E-04	-9.36178000E-04	 4.04094000E-04
					 0.00000000E+00	 0.00000000E+00	 0.00000000E+00
					-1.04994000E-03	-3.40583000E-04	 5.48220000E-04
					 0.00000000E+00	 0.00000000E+00	 0.00000000E+00
					-5.29097000E-04	-1.56986000E-04	 1.83917000E-04
					-4.95593000E-04	 9.15811000E-05	 3.12085000E-04
					 0.00000000E+00	 0.00000000E+00	 0.00000000E+00
					 0.00000000E+00	 0.00000000E+00	 0.00000000E+00
					-1.75122000E-05	 9.72710000E-04	-2.90671000E-05
					 7.93752000E-04	 1.04249000E-03	-6.55921000E-04
					 0.00000000E+00	 0.00000000E+00	 0.00000000E+00
					 0.00000000E+00	 0.00000000E+00	 0.00000000E+00
					-1.59361000E-05	 5.44675000E-04	-2.04163000E-05
					 8.70555000E-04	 6.20204000E-04	-7.17020000E-04
					 0.00000000E+00	 0.00000000E+00	 0.00000000E+00
					-5.23368000E-06	 2.73877000E-04	-1.41839000E-05
					 3.89577000E-04	 9.84943000E-04	-2.82788000E-04
					 4.14769000E-04	 3.14958000E-04	-2.21626000E-04
					 0.00000000E+00	 0.00000000E+00	 0.00000000E+00
					-8.27786000E-04	 1.04059000E-03	 5.99283000E-04
					 0.00000000E+00	 0.00000000E+00	 0.00000000E+00
					-9.02262000E-04	 6.19625000E-04	 6.77306000E-04
					 0.00000000E+00	 0.00000000E+00	 0.00000000E+00
					-4.23493000E-04	 3.08140000E-04	 1.93017000E-04
					-4.24534000E-04	 9.84277000E-04	 2.25061000E-04
					-5.65325000E-05	 1.24945000E-03	 2.47798000E-07
					 1.28901000E-03	 1.22979000E-03	-1.24196000E-03
					-5.45395000E-05	 2.59521000E-03	-1.76226000E-05
					 1.29927000E-03	 2.58101000E-03	-1.28687000E-03
					-3.83770000E-05	-1.76575000E-04	 5.18263000E-06
					 6.12925000E-04	 1.23997000E-03	-5.47491000E-04
					 1.30349000E-03	-1.66441000E-04	-1.05872000E-03
					-5.57463000E-05	 1.92007000E-03	-8.47585000E-06
					 1.29463000E-03	 1.90726000E-03	-1.27989000E-03
					-3.66244000E-05	 1.09690000E-03	-1.63394000E-05
					 6.23657000E-04	 2.58856000E-03	-5.91244000E-04
					 1.19296000E-03	 1.12760000E-03	-1.09966000E-03
					-1.40563000E-03	 1.23417000E-03	 1.24427000E-03
					-1.41075000E-03	 2.59022000E-03	 1.25329000E-03
					-1.38330000E-03	-1.64188000E-04	 1.06971000E-03
					-7.26978000E-04	 1.24165000E-03	 5.48590000E-04
					-1.40938000E-03	 1.91448000E-03	 1.26467000E-03
					-1.26814000E-03	 1.13268000E-03	 1.06790000E-03
					-7.33492000E-04	 2.59308000E-03	 5.56524000E-04
					-5.16043000E-05	 3.95864000E-03	-3.63296000E-05
					 1.31962000E-03	 3.94430000E-03	-1.27995000E-03
					-5.31431000E-05	 3.27622000E-03	-2.70747000E-05
					 1.30968000E-03	 3.26112000E-03	-1.30357000E-03
					-3.59122000E-05	 2.28393000E-03	-3.61667000E-05
					 6.34759000E-04	 3.95267000E-03	-5.81100000E-04
					 1.11123000E-03	 2.32205000E-03	-1.10051000E-03
					-1.42386000E-03	 3.95573000E-03	 1.20898000E-03
					-1.41749000E-03	 3.27179000E-03	 1.25102000E-03
					-1.18372000E-03	 2.32772000E-03	 1.02956000E-03
					-7.38267000E-04	 3.95809000E-03	 5.09002000E-04
					-7.53874000E-05	 3.57911000E-03	-7.87103000E-06
					 1.23355000E-03	 3.45833000E-03	-2.39909000E-04
					-7.59769000E-05	 5.04086000E-03	-1.74328000E-05
					 1.51216000E-03	 4.90294000E-03	-2.67515000E-04
					-6.61167000E-05	 2.73719000E-03	-4.20952000E-06
					 5.84517000E-04	 3.55577000E-03	-1.08998000E-04
					 1.21298000E-03	 2.67202000E-03	-9.34729000E-04
					-7.55724000E-05	 4.27588000E-03	-1.27733000E-05
					 1.37234000E-03	 4.14101000E-03	-2.34774000E-04
					-6.55926000E-05	 4.10284000E-03	-1.77240000E-05
					 7.17427000E-04	 5.00913000E-03	-1.06919000E-04
					 1.37246000E-03	 4.02646000E-03	-9.78051000E-04
					-1.39070000E-03	 3.46002000E-03	 2.25061000E-04
					-1.66799000E-03	 4.91371000E-03	 2.34028000E-04
					-1.34955000E-03	 2.67578000E-03	 9.28253000E-04
					-7.37023000E-04	 3.55702000E-03	 9.37043000E-05
					-1.52889000E-03	 4.14781000E-03	 2.10062000E-04
					-1.50635000E-03	 4.03621000E-03	 9.44793000E-04
					-8.70423000E-04	 5.01532000E-03	 7.23366000E-05
					-7.38939000E-05	 6.76044000E-03	-2.76082000E-05
					 1.78245000E-03	 6.62165000E-03	-2.60465000E-04
					-7.57493000E-05	 5.86508000E-03	-2.21725000E-05
					 1.64598000E-03	 5.72631000E-03	-3.03253000E-04
					-6.34398000E-05	 5.61597000E-03	-3.36704000E-05
					 8.52958000E-04	 6.72709000E-03	-7.09009000E-05
					 1.52262000E-03	 5.53532000E-03	-9.65844000E-04
					-1.93138000E-03	 6.63729000E-03	 2.06885000E-04
					-1.79986000E-03	 5.73999000E-03	 2.60725000E-04
					-1.65002000E-03	 5.54750000E-03	 9.00815000E-04
					-1.00082000E-03	 6.73550000E-03	 1.57693000E-05
					-8.34941000E-05	 1.53309000E-03	-2.71354000E-05
					 1.78824000E-03	 1.39230000E-03	 1.77405000E-03
					-8.10168000E-05	 3.56212000E-03	-1.64456000E-05
					 2.08662000E-03	 3.40913000E-03	 1.79593000E-03
					-8.33909000E-05	 3.22015000E-03	-1.56546000E-05
					 8.55189000E-04	 1.50099000E-03	 7.87906000E-04
					 1.43418000E-03	 3.08932000E-03	 7.52736000E-04
					-8.27374000E-05	 2.51048000E-03	-2.14452000E-05
					 1.93662000E-03	 2.36099000E-03	 1.84701000E-03
					-8.33862000E-05	 4.91016000E-03	-1.65078000E-05
					 1.00282000E-03	 3.52417000E-03	 8.64524000E-04
					 1.75456000E-03	 4.76054000E-03	 7.49300000E-04
					-1.96065000E-03	 1.40377000E-03	-1.83102000E-03
					-2.25180000E-03	 3.42942000E-03	-1.83242000E-03
					-1.60796000E-03	 3.09221000E-03	-7.84630000E-04
					-1.02359000E-03	 1.50673000E-03	-8.43058000E-04
					-2.10649000E-03	 2.37774000E-03	-1.89285000E-03
					-1.92569000E-03	 4.77448000E-03	-7.83216000E-04
					-1.16550000E-03	 3.53489000E-03	-8.98325000E-04
					-7.44603000E-05	 5.87256000E-03	-3.38504000E-06
					 2.38291000E-03	 5.71883000E-03	 1.79783000E-03
					-7.84039000E-05	 4.68020000E-03	-1.08075000E-05
					 2.23422000E-03	 4.52577000E-03	 1.75039000E-03
					-7.94784000E-05	 6.90199000E-03	-1.52998000E-05
					 1.15292000E-03	 5.83364000E-03	 9.19460000E-04
					 2.06719000E-03	 6.75071000E-03	 7.52705000E-04
					-2.53308000E-03	 5.74475000E-03	-1.80888000E-03
					-2.39298000E-03	 4.54898000E-03	-1.77603000E-03
					-2.22831000E-03	 6.77181000E-03	-7.84530000E-04
					-1.30192000E-03	 5.84699000E-03	-9.27298000E-04
					-7.29015000E-05	-4.93228000E-03	-5.68551000E-05
					 2.75794000E-03	-5.01569000E-03	 3.13705000E-03
					-6.43088000E-05	-2.04091000E-03	-3.30872000E-05
					 2.89057000E-03	-2.12254000E-03	 3.17605000E-03
					-7.74781000E-05	-1.32987000E-03	-4.02971000E-05
					 1.34128000E-03	-4.95847000E-03	 1.44413000E-03
					 2.26271000E-03	-1.44359000E-03	 2.57974000E-03
					-6.88410000E-05	-3.50174000E-03	-4.47554000E-05
					 2.82458000E-03	-3.58343000E-03	 3.22448000E-03
					-7.22158000E-05	 1.11791000E-03	-2.15055000E-05
					 1.41331000E-03	-2.06692000E-03	 1.54200000E-03
					 2.47792000E-03	 1.00026000E-03	 2.61834000E-03
					-2.90387000E-03	-4.98210000E-03	-3.25341000E-03
					-3.02136000E-03	-2.08739000E-03	-3.24464000E-03
					-2.41967000E-03	-1.42060000E-03	-2.66425000E-03
					-1.48720000E-03	-4.94350000E-03	-1.55863000E-03
					-2.96308000E-03	-3.54854000E-03	-3.31670000E-03
					-2.62423000E-03	 1.02731000E-03	-2.66557000E-03
					-1.54264000E-03	-2.05045000E-03	-1.60892000E-03
					-5.45969000E-05	 9.79398000E-04	-7.26967000E-06
					 3.02476000E-03	 8.92984000E-04	 3.18843000E-03
					-5.93939000E-05	-5.45827000E-04	-2.07728000E-05
					 2.95712000E-03	-6.28352000E-04	 3.13109000E-03
					-6.44864000E-05	 3.77281000E-03	-1.08184000E-06
					 1.48660000E-03	 9.50738000E-04	 1.61364000E-03
					 2.69325000E-03	 3.65278000E-03	 2.62014000E-03
					-3.13774000E-03	 9.33222000E-04	-3.20525000E-03
					-3.07934000E-03	-5.91716000E-04	-3.17446000E-03
					-2.82357000E-03	 3.68368000E-03	-2.62676000E-03
					-1.59691000E-03	 9.70963000E-04	-1.62921000E-03
					-7.01533000E-05	-1.29493000E-02	-9.08664000E-05
					 3.60170000E-03	-1.30096000E-02	 3.63974000E-03
					-5.34777000E-05	-9.25658000E-03	-6.05860000E-05
					 3.66987000E-03	-9.31157000E-03	 3.67285000E-03
					-7.06795000E-05	-8.86928000E-03	-7.45716000E-05
					 1.76458000E-03	-1.29724000E-02	 1.71911000E-03
					 3.20822000E-03	-8.94022000E-03	 3.44291000E-03
					-6.21999000E-05	-1.11097000E-02	-7.61115000E-05
					 3.63567000E-03	-1.11663000E-02	 3.70835000E-03
					-5.80916000E-05	-5.55678000E-03	-4.69675000E-05
					 1.80901000E-03	-9.27737000E-03	 1.80334000E-03
					 3.29405000E-03	-5.62343000E-03	 3.47855000E-03
					-3.74018000E-03	-1.29564000E-02	-3.82294000E-03
					-3.77932000E-03	-9.26002000E-03	-3.79569000E-03
					-3.34929000E-03	-8.89711000E-03	-3.59338000E-03
					-1.90460000E-03	-1.29471000E-02	-1.90161000E-03
					-3.75982000E-03	-1.11139000E-02	-3.86188000E-03
					-3.41315000E-03	-5.57974000E-03	-3.57375000E-03
					-1.91695000E-03	-9.25242000E-03	-1.92509000E-03
					-3.73941000E-05	-5.50361000E-03	-2.84240000E-05
					 3.74365000E-03	-5.56052000E-03	 3.70233000E-03
					-4.48148000E-05	-7.38720000E-03	-4.45078000E-05
					 3.70725000E-03	-7.44221000E-03	 3.63569000E-03
					-4.51478000E-05	-2.16339000E-03	-1.70163000E-05
					 1.85420000E-03	-5.52604000E-03	 1.88601000E-03
					 3.38375000E-03	-2.23479000E-03	 3.50213000E-03
					-3.82437000E-03	-5.50276000E-03	-3.76103000E-03
					-3.80202000E-03	-7.38946000E-03	-3.72652000E-03
					-3.47988000E-03	-2.18456000E-03	-3.53744000E-03
					-1.93061000E-03	-5.49606000E-03	-1.94343000E-03
					-8.01289000E-05	-2.14293000E-02	-1.23800000E-04
					 4.20878000E-03	-2.14864000E-02	 3.94446000E-03
					-5.77385000E-05	-1.71305000E-02	-9.07395000E-05
					 4.26301000E-03	-1.71811000E-02	 3.97394000E-03
					-7.34296000E-05	-1.71348000E-02	-1.06104000E-04
					 2.06437000E-03	-2.14517000E-02	 1.87257000E-03
					 3.93670000E-03	-1.71934000E-02	 3.80721000E-03
					-6.95164000E-05	-1.92839000E-02	-1.07796000E-04
					 4.23587000E-03	-1.93371000E-02	 3.99474000E-03
					-5.34199000E-05	-1.31085000E-02	-7.48687000E-05
					 2.10490000E-03	-1.71501000E-02	 1.93653000E-03
					 4.00154000E-03	-1.31612000E-02	 3.83890000E-03
					-4.36820000E-03	-2.14219000E-02	-4.19140000E-03
					-4.38132000E-03	-1.71172000E-02	-4.15423000E-03
					-4.08069000E-03	-1.71329000E-02	-4.02118000E-03
					-2.22452000E-03	-2.14215000E-02	-2.11920000E-03
					-4.37563000E-03	-1.92728000E-02	-4.20997000E-03
					-4.11042000E-03	-1.31037000E-02	-3.99035000E-03
					-2.22151000E-03	-1.71198000E-02	-2.11736000E-03
					-3.56731000E-05	-1.27911000E-02	-5.83293000E-05
					 4.32742000E-03	-1.28387000E-02	 3.99557000E-03
					-4.60126000E-05	-1.49669000E-02	-7.40633000E-05
					 4.29670000E-03	-1.50164000E-02	 3.95291000E-03
					-3.40347000E-05	-9.02999000E-03	-4.24001000E-05
					 2.14614000E-03	-1.28099000E-02	 1.99334000E-03
					 4.07443000E-03	-9.08137000E-03	 3.86784000E-03
					-4.40457000E-03	-1.27686000E-02	-4.11047000E-03
					-4.39365000E-03	-1.49508000E-02	-4.09952000E-03
					-4.14834000E-03	-9.01783000E-03	-3.95428000E-03
					-2.21926000E-03	-1.27753000E-02	-2.10914000E-03
					-8.01865000E-05	-3.00383000E-02	-1.66360000E-04
					 4.45293000E-03	-3.00948000E-02	 4.04559000E-03
					-6.26588000E-05	-2.54805000E-02	-1.23930000E-04
					 4.47169000E-03	-2.55259000E-02	 4.06364000E-03
					-8.38668000E-05	-2.57646000E-02	-1.45520000E-04
					 2.18245000E-03	-3.00668000E-02	 1.93388000E-03
					 4.38910000E-03	-2.58171000E-02	 4.02546000E-03
					-7.12574000E-05	-2.77665000E-02	-1.44099000E-04
					 4.46193000E-03	-2.78148000E-02	 4.06226000E-03
					-6.15519000E-05	-2.12843000E-02	-1.07253000E-04
					 2.19894000E-03	-2.55040000E-02	 1.96582000E-03
					 4.42899000E-03	-2.13287000E-02	 4.04836000E-03
					-4.62069000E-03	-3.00161000E-02	-4.36794000E-03
					-4.60138000E-03	-2.54412000E-02	-4.30239000E-03
					-4.56103000E-03	-2.57493000E-02	-4.31017000E-03
					-2.34486000E-03	-3.00278000E-02	-2.26334000E-03
					-4.61058000E-03	-2.77316000E-02	-4.34077000E-03
					-4.55595000E-03	-2.12564000E-02	-4.25628000E-03
					-2.32594000E-03	-2.54610000E-02	-2.21105000E-03
					-4.54023000E-05	-2.09100000E-02	-8.97505000E-05
					 4.49824000E-03	-2.09443000E-02	 4.06349000E-03
					-5.40921000E-05	-2.31885000E-02	-1.06099000E-04
					 4.48588000E-03	-2.32324000E-02	 4.06121000E-03
					-3.98656000E-05	-1.67816000E-02	-7.42011000E-05
					 2.22076000E-03	-2.09278000E-02	 1.98190000E-03
					 4.47391000E-03	-1.68182000E-02	 4.05748000E-03
					-4.59012000E-03	-2.08584000E-02	-4.23480000E-03
					-4.59693000E-03	-2.31469000E-02	-4.26520000E-03
					-4.55694000E-03	-1.67417000E-02	-4.19892000E-03
					-2.31194000E-03	-2.08837000E-02	-2.15884000E-03
					 0.00000000E+00	 0.00000000E+00	 0.00000000E+00
					 0.00000000E+00	 0.00000000E+00	 0.00000000E+00
					 1.02646000E-04	-6.69039000E-04	-2.08025000E-04
					-1.39712000E-03	-8.64234000E-04	 2.42641000E-03
					 0.00000000E+00	 0.00000000E+00	 0.00000000E+00
					 0.00000000E+00	 0.00000000E+00	 0.00000000E+00
					 7.70659000E-05	-1.91676000E-03	-1.59070000E-04
					-9.57849000E-04	-2.13678000E-03	 2.49009000E-03
					 0.00000000E+00	 0.00000000E+00	 0.00000000E+00
					 5.28196000E-05	 5.65239000E-04	-1.00800000E-04
					-6.45927000E-04	-6.93755000E-04	 1.20637000E-03
					-8.88565000E-04	 3.53025000E-04	 1.04572000E-03
					 0.00000000E+00	 0.00000000E+00	 0.00000000E+00
					 0.00000000E+00	 0.00000000E+00	 0.00000000E+00
					 8.94806000E-05	-1.36313000E-03	-1.81657000E-04
					-1.17561000E-03	-1.57112000E-03	 2.37082000E-03
					 0.00000000E+00	 0.00000000E+00	 0.00000000E+00
					 2.39216000E-05	-1.74843000E-04	-6.86200000E-05
					-4.40382000E-04	-1.95129000E-03	 1.17410000E-03
					-5.36764000E-04	-3.80182000E-04	 1.02763000E-03
					 0.00000000E+00	 0.00000000E+00	 0.00000000E+00
					 1.59049000E-03	-9.01831000E-04	-2.84158000E-03
					 0.00000000E+00	 0.00000000E+00	 0.00000000E+00
					 1.10601000E-03	-2.16139000E-03	-2.80925000E-03
					 0.00000000E+00	 0.00000000E+00	 0.00000000E+00
					 9.84200000E-04	 2.95269000E-04	-1.25652000E-03
					 8.48086000E-04	-7.11971000E-04	-1.62125000E-03
					 0.00000000E+00	 0.00000000E+00	 0.00000000E+00
					 1.34500000E-03	-1.60099000E-03	-2.73392000E-03
					 0.00000000E+00	 0.00000000E+00	 0.00000000E+00
					 5.77359000E-04	-4.20173000E-04	-1.17202000E-03
					 5.92091000E-04	-1.96252000E-03	-1.49224000E-03
					 0.00000000E+00	 0.00000000E+00	 0.00000000E+00
					 0.00000000E+00	 0.00000000E+00	 0.00000000E+00
					 5.44333000E-05	-2.73218000E-03	-1.04927000E-04
					-5.16613000E-04	-2.94184000E-03	 2.52931000E-03
					 0.00000000E+00	 0.00000000E+00	 0.00000000E+00
					 0.00000000E+00	 0.00000000E+00	 0.00000000E+00
					 6.45491000E-05	-2.39470000E-03	-1.34202000E-04
					-7.40806000E-04	-2.60432000E-03	 2.57837000E-03
					 0.00000000E+00	 0.00000000E+00	 0.00000000E+00
					 2.93139000E-06	-5.47997000E-04	-4.46033000E-05
					-2.29668000E-04	-2.76426000E-03	 1.14874000E-03
					-1.46553000E-04	-7.46475000E-04	 1.10427000E-03
					 0.00000000E+00	 0.00000000E+00	 0.00000000E+00
					 6.19971000E-04	-2.95215000E-03	-2.74156000E-03
					 0.00000000E+00	 0.00000000E+00	 0.00000000E+00
					 8.63829000E-04	-2.62694000E-03	-2.84860000E-03
					 0.00000000E+00	 0.00000000E+00	 0.00000000E+00
					 1.44556000E-04	-7.69367000E-04	-1.19911000E-03
					 3.38732000E-04	-2.76950000E-03	-1.35894000E-03
					 2.56139000E-04	-8.98076000E-03	-4.11512000E-04
					-1.62001000E-03	-9.11536000E-03	 4.93731000E-03
					 2.39174000E-04	-1.07114000E-02	-3.48501000E-04
					-1.36145000E-03	-1.08499000E-02	 5.03385000E-03
					 1.72837000E-04	-3.95442000E-03	-3.08498000E-04
					-6.78062000E-04	-9.01342000E-03	 2.18499000E-03
					-1.62340000E-03	-4.11783000E-03	 3.84343000E-03
					 2.47462000E-04	-9.87776000E-03	-3.80464000E-04
					-1.49057000E-03	-1.00164000E-02	 4.98995000E-03
					 1.50062000E-04	-5.52408000E-03	-2.49544000E-04
					-5.56029000E-04	-1.07445000E-02	 2.26728000E-03
					-1.22209000E-03	-5.70946000E-03	 3.92556000E-03
					 2.13170000E-03	-9.09079000E-03	-5.76073000E-03
					 1.83445000E-03	-1.08311000E-02	-5.73186000E-03
					 1.96301000E-03	-4.12765000E-03	-4.46234000E-03
					 1.18943000E-03	-9.00196000E-03	-3.00905000E-03
					 1.98439000E-03	-9.99867000E-03	-5.74883000E-03
					 1.51781000E-03	-5.71369000E-03	-4.42830000E-03
					 1.03740000E-03	-1.07361000E-02	-2.96180000E-03
					 2.16346000E-04	-1.21781000E-02	-2.80829000E-04
					-1.08534000E-03	-1.22928000E-02	 5.06616000E-03
					 2.27856000E-04	-1.14738000E-02	-3.15430000E-04
					-1.22242000E-03	-1.16358000E-02	 5.08923000E-03
					 1.28674000E-04	-6.69699000E-03	-1.84292000E-04
					-4.45486000E-04	-1.21976000E-02	 2.28265000E-03
					-8.36398000E-04	-6.88042000E-03	 3.96658000E-03
					 1.54361000E-03	-1.22934000E-02	-5.63091000E-03
					 1.68933000E-03	-1.15978000E-02	-5.72599000E-03
					 1.10034000E-03	-6.88792000E-03	-4.33888000E-03
					 8.84922000E-04	-1.21992000E-02	-2.84033000E-03
					 4.39329000E-04	-2.12975000E-02	-6.05912000E-04
					-1.65715000E-03	-2.12458000E-02	 5.31816000E-03
					 4.28755000E-04	-2.34157000E-02	-5.45421000E-04
					-1.74296000E-03	-2.34579000E-02	 5.40915000E-03
					 3.50227000E-04	-1.50538000E-02	-5.12042000E-04
					-6.08639000E-04	-2.12846000E-02	 2.33044000E-03
					-1.56469000E-03	-1.51245000E-02	 5.40833000E-03
					 4.36378000E-04	-2.23483000E-02	-5.70579000E-04
					-1.70146000E-03	-2.23521000E-02	 5.31668000E-03
					 3.35043000E-04	-1.69262000E-02	-4.50377000E-04
					-6.80246000E-04	-2.34556000E-02	 2.34434000E-03
					-1.49400000E-03	-1.69985000E-02	 5.51429000E-03
					 2.49832000E-03	-2.12407000E-02	-6.50983000E-03
					 2.59970000E-03	-2.33636000E-02	-6.51413000E-03
					 2.25807000E-03	-1.50864000E-02	-6.42907000E-03
					 1.47446000E-03	-2.12851000E-02	-3.52999000E-03
					 2.54759000E-03	-2.22816000E-02	-6.46597000E-03
					 2.16715000E-03	-1.69477000E-02	-6.41373000E-03
					 1.51397000E-03	-2.34106000E-02	-3.45425000E-03
					 4.06633000E-04	-2.56278000E-02	-4.87304000E-04
					-1.91906000E-03	-2.57830000E-02	 5.43514000E-03
					 4.18469000E-04	-2.45220000E-02	-5.19989000E-04
					-1.83237000E-03	-2.44914000E-02	 5.51451000E-03
					 3.22848000E-04	-1.87111000E-02	-3.87592000E-04
					-7.24130000E-04	-2.57279000E-02	 2.28950000E-03
					-1.43829000E-03	-1.87964000E-02	 5.53653000E-03
					 2.69295000E-03	-2.56069000E-02	-6.45122000E-03
					 2.64613000E-03	-2.44661000E-02	-6.56998000E-03
					 2.04873000E-03	-1.87230000E-02	-6.31404000E-03
					 1.54010000E-03	-2.56453000E-02	-3.30784000E-03
					 6.26835000E-04	-3.14658000E-02	-7.47547000E-04
					-2.30156000E-03	-3.12402000E-02	 3.64197000E-03