<?xml version="1.0"?>
<VTKFile type="UnstructuredGrid" version="0.1" byte_order="LittleEndian">
	<UnstructuredGrid>
		<Piece NumberOfPoints="522" NumberOfCells="64">
			<Points>
				<DataArray type="Float64" NumberOfComponents="3" format="ascii">
					 1.00000000E+00	 1.00000000E+00	-5.96046000E-08
					 1.00000000E+00	 5.00000000E-01	-5.96046000E-08
					 1.00000000E+00	 5.00000000E-01	 1.00000000E+00
					 1.00000000E+00	 1.00000000E+00	 1.00000000E+00
					 5.00000000E-01	 1.00000000E+00	-5.96046000E-08
					 5.00000000E-01	 5.00000000E-01	-5.96046000E-08
					 5.00000000E-01	 5.00000000E-01	 1.00000000E+00
					 5.00000000E-01	 1.00000000E+00	 1.00000000E+00
					 1.00000000E+00	 7.50000000E-01	-5.96046000E-08
					 1.00000000E+00	 5.00000000E-01	 5.00000000E-01
					 1.00000000E+00	 7.50000000E-01	 1.00000000E+00
					 1.00000000E+00	 1.00000000E+00	 5.00000000E-01
					 7.50000000E-01	 1.00000000E+00	-5.96046000E-08
					 7.50000000E-01	 5.00000000E-01	-5.96046000E-08
					 7.50000000E-01	 5.00000000E-01	 1.00000000E+00
					 7.50000000E-01	 1.00000000E+00	 1.00000000E+00
					 5.00000000E-01	 7.50000000E-01	-5.96046000E-08
					 5.00000000E-01	 5.00000000E-01	 5.00000000E-01
					 5.00000000E-01	 7.50000000E-01	 1.00000000E+00
					 5.00000000E-01	 1.00000000E+00	 5.00000000E-01
					 1.00000000E+00	-1.49012000E-08	-5.96046000E-08
					 1.00000000E+00	-1.49012000E-08	 1.00000000E+00
					 5.00000000E-01	-1.49012000E-08	-5.96046000E-08
					 5.00000000E-01	-1.49012000E-08	 1.00000000E+00
					 1.00000000E+00	 2.50000000E-01	-5.96046000E-08
					 1.00000000E+00	-1.49012000E-08	 5.00000000E-01
					 1.00000000E+00	 2.50000000E-01	 1.00000000E+00
					 7.50000000E-01	-1.49012000E-08	-5.96046000E-08
					 7.50000000E-01	-1.49012000E-08	 1.00000000E+00
					 5.00000000E-01	 2.50000000E-01	-5.96046000E-08
					 5.00000000E-01	-1.49012000E-08	 5.00000000E-01
					 5.00000000E-01	 2.50000000E-01	 1.00000000E+00
					-7.45058000E-09	 1.00000000E+00	-5.96046000E-08
					-7.45058000E-09	 5.00000000E-01	-5.96046000E-08
					-7.45058000E-09	 5.00000000E-01	 1.00000000E+00
					-7.45058000E-09	 1.00000000E+00	 1.00000000E+00
					 2.50000000E-01	 1.00000000E+00	-5.96046000E-08
					 2.50000000E-01	 5.00000000E-01	-5.96046000E-08
					 2.50000000E-01	 5.00000000E-01	 1.00000000E+00
					 2.50000000E-01	 1.00000000E+00	 1.00000000E+00
					-7.45058000E-09	 7.50000000E-01	-5.96046000E-08
					-7.45058000E-09	 5.00000000E-01	 5.00000000E-01
					-7.45058000E-09	 7.50000000E-01	 1.00000000E+00
					-7.45058000E-09	 1.00000000E+00	 5.00000000E-01
					-7.45058000E-09	-1.49012000E-08	-5.96046000E-08
					-7.45058000E-09	-1.49012000E-08	 1.00000000E+00
					 2.50000000E-01	-1.49012000E-08	-5.96046000E-08
					 2.50000000E-01	-1.49012000E-08	 1.00000000E+00
					-7.45058000E-09	 2.50000000E-01	-5.96046000E-08
					-7.45058000E-09	-1.49012000E-08	 5.00000000E-01
					-7.45058000E-09	 2.50000000E-01	 1.00000000E+00
					 1.00000000E+00	 5.00000000E-01	 2.00000000E+00
					 1.00000000E+00	 1.00000000E+00	 2.00000000E+00
					 5.00000000E-01	 5.00000000E-01	 2.00000000E+00
					 5.00000000E-01	 1.00000000E+00	 2.00000000E+00
					 1.00000000E+00	 5.00000000E-01	 1.50000000E+00
					 1.00000000E+00	 7.50000000E-01	 2.00000000E+00
					 1.00000000E+00	 1.00000000E+00	 1.50000000E+00
					 7.50000000E-01	 5.00000000E-01	 2.00000000E+00
					 7.50000000E-01	 1.00000000E+00	 2.00000000E+00
					 5.00000000E-01	 5.00000000E-01	 1.50000000E+00
					 5.00000000E-01	 7.50000000E-01	 2.00000000E+00
					 5.00000000E-01	 1.00000000E+00	 1.50000000E+00
					 1.00000000E+00	-1.49012000E-08	 2.00000000E+00
					 5.00000000E-01	-1.49012000E-08	 2.00000000E+00
					 1.00000000E+00	-1.49012000E-08	 1.50000000E+00
					 1.00000000E+00	 2.50000000E-01	 2.00000000E+00
					 7.50000000E-01	-1.49012000E-08	 2.00000000E+00
					 5.00000000E-01	-1.49012000E-08	 1.50000000E+00
					 5.00000000E-01	 2.50000000E-01	 2.00000000E+00
					-7.45058000E-09	 5.00000000E-01	 2.00000000E+00
					-7.45058000E-09	 1.00000000E+00	 2.00000000E+00
					 2.50000000E-01	 5.00000000E-01	 2.00000000E+00
					 2.50000000E-01	 1.00000000E+00	 2.00000000E+00
					-7.45058000E-09	 5.00000000E-01	 1.50000000E+00
					-7.45058000E-09	 7.50000000E-01	 2.00000000E+00
					-7.45058000E-09	 1.00000000E+00	 1.50000000E+00
					-7.45058000E-09	-1.49012000E-08	 2.00000000E+00
					 2.50000000E-01	-1.49012000E-08	 2.00000000E+00
					-7.45058000E-09	-1.49012000E-08	 1.50000000E+00
					-7.45058000E-09	 2.50000000E-01	 2.00000000E+00
					 1.00000000E+00	 5.00000000E-01	 3.00000000E+00
					 1.00000000E+00	 1.00000000E+00	 3.00000000E+00
					 5.00000000E-01	 5.00000000E-01	 3.00000000E+00
					 5.00000000E-01	 1.00000000E+00	 3.00000000E+00
					 1.00000000E+00	 5.00000000E-01	 2.50000000E+00
					 1.00000000E+00	 7.50000000E-01	 3.00000000E+00
					 1.00000000E+00	 1.00000000E+00	 2.50000000E+00
					 7.50000000E-01	 5.00000000E-01	 3.00000000E+00
					 7.50000000E-01	 1.00000000E+00	 3.00000000E+00
					 5.00000000E-01	 5.00000000E-01	 2.50000000E+00
					 5.00000000E-01	 7.50000000E-01	 3.00000000E+00
					 5.00000000E-01	 1.00000000E+00	 2.50000000E+00
					 1.00000000E+00	-1.49012000E-08	 3.00000000E+00
					 5.00000000E-01	-1.49012000E-08	 3.00000000E+00
					 1.00000000E+00	-1.49012000E-08	 2.50000000E+00
					 1.00000000E+00	 2.50000000E-01	 3.00000000E+00
					 7.50000000E-01	-1.49012000E-08	 3.00000000E+00
					 5.00000000E-01	-1.49012000E-08	 2.50000000E+00
					 5.00000000E-01	 2.50000000E-01	 3.00000000E+00
					-7.45058000E-09	 5.00000000E-01	 3.00000000E+00
					-7.45058000E-09	 1.00000000E+00	 3.00000000E+00
					 2.50000000E-01	 5.00000000E-01	 3.00000000E+00
					 2.50000000E-01	 1.00000000E+00	 3.00000000E+00
					-7.45058000E-09	 5.00000000E-01	 2.50000000E+00
					-7.45058000E-09	 7.50000000E-01	 3.00000000E+00
					-7.45058000E-09	 1.00000000E+00	 2.50000000E+00
					-7.45058000E-09	-1.49012000E-08	 3.00000000E+00
					 2.50000000E-01	-1.49012000E-08	 3.00000000E+00
					-7.45058000E-09	-1.49012000E-08	 2.50000000E+00
					-7.45058000E-09	 2.50000000E-01	 3.00000000E+00
					 1.00000000E+00	 5.00000000E-01	 4.00000000E+00
					 1.00000000E+00	 1.00000000E+00	 4.00000000E+00
					 5.00000000E-01	 5.00000000E-01	 4.00000000E+00
					 5.00000000E-01	 1.00000000E+00	 4.00000000E+00
					 1.00000000E+00	 5.00000000E-01	 3.50000000E+00
					 1.00000000E+00	 7.50000000E-01	 4.00000000E+00
					 1.00000000E+00	 1.00000000E+00	 3.50000000E+00
					 7.50000000E-01	 5.00000000E-01	 4.00000000E+00
					 7.50000000E-01	 1.00000000E+00	 4.00000000E+00
					 5.00000000E-01	 5.00000000E-01	 3.50000000E+00
					 5.00000000E-01	 7.50000000E-01	 4.00000000E+00
					 5.00000000E-01	 1.00000000E+00	 3.50000000E+00
					 1.00000000E+00	-1.49012000E-08	 4.00000000E+00
					 5.00000000E-01	-1.49012000E-08	 4.00000000E+00
					 1.00000000E+00	-1.49012000E-08	 3.50000000E+00
					 1.00000000E+00	 2.50000000E-01	 4.00000000E+00
					 7.50000000E-01	-1.49012000E-08	 4.00000000E+00
					 5.00000000E-01	-1.49012000E-08	 3.50000000E+00
					 5.00000000E-01	 2.50000000E-01	 4.00000000E+00
					-7.45058000E-09	 5.00000000E-01	 4.00000000E+00
					-7.45058000E-09	 1.00000000E+00	 4.00000000E+00
					 2.50000000E-01	 5.00000000E-01	 4.00000000E+00
					 2.50000000E-01	 1.00000000E+00	 4.00000000E+00
					-7.45058000E-09	 5.00000000E-01	 3.50000000E+00
					-7.45058000E-09	 7.50000000E-01	 4.00000000E+00
					-7.45058000E-09	 1.00000000E+00	 3.50000000E+00
					-7.45058000E-09	-1.49012000E-08	 4.00000000E+00
					 2.50000000E-01	-1.49012000E-08	 4.00000000E+00
					-7.45058000E-09	-1.49012000E-08	 3.50000000E+00
					-7.45058000E-09	 2.50000000E-01	 4.00000000E+00
					 1.00000000E+00	 5.00000000E-01	 5.00000000E+00
					 1.00000000E+00	 1.00000000E+00	 5.00000000E+00
					 5.00000000E-01	 5.00000000E-01	 5.00000000E+00
					 5.00000000E-01	 1.00000000E+00	 5.00000000E+00
					 1.00000000E+00	 5.00000000E-01	 4.50000000E+00
					 1.00000000E+00	 7.50000000E-01	 5.00000000E+00
					 1.00000000E+00	 1.00000000E+00	 4.50000000E+00
					 7.50000000E-01	 5.00000000E-01	 5.00000000E+00
					 7.50000000E-01	 1.00000000E+00	 5.00000000E+00
					 5.00000000E-01	 5.00000000E-01	 4.50000000E+00
					 5.00000000E-01	 7.50000000E-01	 5.00000000E+00
					 5.00000000E-01	 1.00000000E+00	 4.50000000E+00
					 1.00000000E+00	-1.49012000E-08	 5.00000000E+00
					 5.00000000E-01	-1.49012000E-08	 5.00000000E+00
					 1.00000000E+00	-1.49012000E-08	 4.50000000E+00
					 1.00000000E+00	 2.50000000E-01	 5.00000000E+00
					 7.50000000E-01	-1.49012000E-08	 5.00000000E+00
					 5.00000000E-01	-1.49012000E-08	 4.50000000E+00
					 5.00000000E-01	 2.50000000E-01	 5.00000000E+00
					-7.45058000E-09	 5.00000000E-01	 5.00000000E+00
					-7.45058000E-09	 1.00000000E+00	 5.00000000E+00
					 2.50000000E-01	 5.00000000E-01	 5.00000000E+00
					 2.50000000E-01	 1.00000000E+00	 5.00000000E+00
					-7.45058000E-09	 5.00000000E-01	 4.50000000E+00
					-7.45058000E-09	 7.50000000E-01	 5.00000000E+00
					-7.45058000E-09	 1.00000000E+00	 4.50000000E+00
					-7.45058000E-09	-1.49012000E-08	 5.00000000E+00
					 2.50000000E-01	-1.49012000E-08	 5.00000000E+00
					-7.45058000E-09	-1.49012000E-08	 4.50000000E+00
					-7.45058000E-09	 2.50000000E-01	 5.00000000E+00
					 1.00000000E+00	 5.00000000E-01	 6.00000000E+00
					 1.00000000E+00	 1.00000000E+00	 6.00000000E+00
					 5.00000000E-01	 5.00000000E-01	 6.00000000E+00
					 5.00000000E-01	 1.00000000E+00	 6.00000000E+00
					 1.00000000E+00	 5.00000000E-01	 5.50000000E+00
					 1.00000000E+00	 7.50000000E-01	 6.00000000E+00
					 1.00000000E+00	 1.00000000E+00	 5.50000000E+00
					 7.50000000E-01	 5.00000000E-01	 6.00000000E+00
					 7.50000000E-01	 1.00000000E+00	 6.00000000E+00
					 5.00000000E-01	 5.00000000E-01	 5.50000000E+00
					 5.00000000E-01	 7.50000000E-01	 6.00000000E+00
					 5.00000000E-01	 1.00000000E+00	 5.50000000E+00
					 1.00000000E+00	-1.49012000E-08	 6.00000000E+00
[...]
			<PointData>
				<DataArray type="Float32" Name="U" NumberOfComponents="3" ComponentName0="D1" ComponentName1="D2" ComponentName2="D3" format="ascii">
					 0.00000000E+00	 0.00000000E+00	 0.00000000E+00
					 0.00000000E+00	 0.00000000E+00	 0.00000000E+00
					-1.00931000E-05	 6.32044000E-04	-3.57136000E-05
					 6.85473000E-04	 6.60598000E-04	-8.53870000E-04
					 0.00000000E+00	 0.00000000E+00	 0.00000000E+00
					 0.00000000E+00	 0.00000000E+00	 0.00000000E+00
					-1.62577000E-05	 1.29750000E-03	-4.59922000E-05
					 6.14741000E-04	 1.32920000E-03	-8.80176000E-04
					 0.00000000E+00	 0.00000000E+00	 0.00000000E+00
					 1.99709000E-07	 7.84090000E-05	-1.52960000E-05
					 3.37978000E-04	 6.31638000E-04	-4.67773000E-04
					 4.43275000E-04	 1.60802000E-04	-4.96286000E-04
					 0.00000000E+00	 0.00000000E+00	 0.00000000E+00
					 0.00000000E+00	 0.00000000E+00	 0.00000000E+00
					-1.31295000E-05	 9.79075000E-04	-4.14058000E-05
					 6.49534000E-04	 1.00852000E-03	-8.18224000E-04
					 0.00000000E+00	 0.00000000E+00	 0.00000000E+00
					-5.76323000E-06	 4.59841000E-04	-1.99915000E-05
					 2.98751000E-04	 1.29798000E-03	-4.35129000E-04
					 3.23641000E-04	 5.35071000E-04	-4.94472000E-04
					 0.00000000E+00	 0.00000000E+00	 0.00000000E+00
					-7.05532000E-04	 6.49760000E-04	 7.81251000E-04
					 0.00000000E+00	 0.00000000E+00	 0.00000000E+00
					-6.47243000E-04	 1.31702000E-03	 7.87971000E-04
					 0.00000000E+00	 0.00000000E+00	 0.00000000E+00
					-4.41208000E-04	 1.51001000E-04	 4.62886000E-04
					-3.58398000E-04	 6.26269000E-04	 3.96522000E-04
					 0.00000000E+00	 0.00000000E+00	 0.00000000E+00
					-6.75564000E-04	 9.96841000E-04	 7.34361000E-04
					 0.00000000E+00	 0.00000000E+00	 0.00000000E+00
					-3.33973000E-04	 5.21853000E-04	 4.51649000E-04
					-3.31426000E-04	 1.29172000E-03	 3.43436000E-04
					 0.00000000E+00	 0.00000000E+00	 0.00000000E+00
					 0.00000000E+00	 0.00000000E+00	 0.00000000E+00
					-2.27612000E-05	 1.89423000E-03	-5.57394000E-05
					 5.42142000E-04	 1.92178000E-03	-8.72943000E-04
					 0.00000000E+00	 0.00000000E+00	 0.00000000E+00
					 0.00000000E+00	 0.00000000E+00	 0.00000000E+00
					-1.92987000E-05	 1.60955000E-03	-5.01386000E-05
					 5.78833000E-04	 1.64031000E-03	-9.33329000E-04
					 0.00000000E+00	 0.00000000E+00	 0.00000000E+00
					-1.31417000E-05	 7.36281000E-04	-2.68915000E-05
					 2.60445000E-04	 1.89309000E-03	-3.80467000E-04
					 1.80242000E-04	 7.99261000E-04	-5.07917000E-04
					 0.00000000E+00	 0.00000000E+00	 0.00000000E+00
					-5.87539000E-04	 1.91001000E-03	 7.62238000E-04
					 0.00000000E+00	 0.00000000E+00	 0.00000000E+00
					-6.17602000E-04	 1.62835000E-03	 8.33675000E-04
					 0.00000000E+00	 0.00000000E+00	 0.00000000E+00
					-2.05548000E-04	 7.83450000E-04	 4.51318000E-04
					-3.05837000E-04	 1.88692000E-03	 2.69405000E-04
					-2.90261000E-05	 2.42404000E-03	-8.69501000E-05
					 9.92491000E-04	 2.43191000E-03	-1.16925000E-03
					-3.46517000E-05	 3.43399000E-03	-9.56196000E-05
					 9.66246000E-04	 3.44648000E-03	-1.18414000E-03
					-2.12542000E-05	 1.42111000E-03	-6.04756000E-05
					 4.80990000E-04	 2.42802000E-03	-6.25429000E-04
					 8.93863000E-04	 1.44462000E-03	-1.05672000E-03
					-3.16552000E-05	 2.92837000E-03	-9.12597000E-05
					 9.80048000E-04	 2.94066000E-03	-1.17169000E-03
					-2.70452000E-05	 2.30955000E-03	-7.04460000E-05
					 4.66805000E-04	 3.44066000E-03	-6.32182000E-04
					 8.38966000E-04	 2.34020000E-03	-1.07263000E-03
					-1.05407000E-03	 2.41808000E-03	 9.97137000E-04
					-1.03856000E-03	 3.43644000E-03	 9.94221000E-04
					-9.38348000E-04	 1.43065000E-03	 9.34701000E-04
					-5.40014000E-04	 2.42010000E-03	 4.52007000E-04
					-1.04706000E-03	 2.92916000E-03	 9.90745000E-04
					-8.95141000E-04	 2.32872000E-03	 9.31484000E-04
					-5.37247000E-04	 3.43547000E-03	 4.41286000E-04
					-4.12847000E-05	 4.42971000E-03	-1.04875000E-04
					 9.51660000E-04	 4.44726000E-03	-1.18764000E-03
					-3.78913000E-05	 3.93355000E-03	-1.00236000E-04
					 9.59367000E-04	 3.94515000E-03	-1.19607000E-03
					-3.35160000E-05	 3.15555000E-03	-8.05690000E-05
					 4.52634000E-04	 4.43902000E-03	-6.28205000E-04
					 8.02824000E-04	 3.19630000E-03	-1.07620000E-03
					-1.03595000E-03	 4.43939000E-03	 9.78901000E-04
					-1.03749000E-03	 3.93619000E-03	 9.96496000E-04
					-8.71863000E-04	 3.18720000E-03	 9.15587000E-04
					-5.35749000E-04	 4.43532000E-03	 4.19013000E-04
					-4.89018000E-05	 4.74368000E-03	-1.26784000E-04
					 9.32735000E-04	 4.72648000E-03	-1.14483000E-03
					-5.51004000E-05	 5.74306000E-03	-1.40410000E-04
					 9.64012000E-04	 5.72665000E-03	-1.16436000E-03
					-3.64866000E-05	 3.57138000E-03	-1.09151000E-04
					 4.42050000E-04	 4.73850000E-03	-6.18653000E-04
					 9.91228000E-04	 3.56778000E-03	-1.19871000E-03
					-5.14655000E-05	 5.23928000E-03	-1.34131000E-04
					 9.47952000E-04	 5.22183000E-03	-1.16248000E-03
					-4.21663000E-05	 4.60308000E-03	-1.19554000E-04
					 4.53985000E-04	 5.73770000E-03	-6.42073000E-04
					 9.94525000E-04	 4.60117000E-03	-1.21576000E-03
					-1.03326000E-03	 4.72176000E-03	 8.93510000E-04
					-1.07410000E-03	 5.72414000E-03	 8.85937000E-04
					-1.06727000E-03	 3.55902000E-03	 9.84141000E-04
					-5.40716000E-04	 4.73657000E-03	 3.65694000E-04
					-1.05272000E-03	 5.21895000E-03	 8.96651000E-04
					-1.08013000E-03	 4.59486000E-03	 9.79485000E-04
					-5.64289000E-04	 5.73730000E-03	 3.61899000E-04
					-6.17305000E-05	 6.78222000E-03	-1.54315000E-04
					 9.95574000E-04	 6.76690000E-03	-1.17164000E-03
					-5.88152000E-05	 6.25835000E-03	-1.46835000E-04
					 9.80038000E-04	 6.24316000E-03	-1.16562000E-03
					-4.89585000E-05	 5.64707000E-03	-1.30838000E-04
					 4.67314000E-04	 6.77782000E-03	-6.55066000E-04
					 1.00268000E-03	 5.64925000E-03	-1.22095000E-03
					-1.11589000E-03	 6.76062000E-03	 8.65589000E-04
					-1.09553000E-03	 6.23939000E-03	 8.74277000E-04
					-1.09944000E-03	 5.64096000E-03	 9.61156000E-04
					-5.90028000E-04	 6.77492000E-03	 3.47185000E-04
					-7.44921000E-05	 6.67920000E-03	-1.60393000E-04
					 8.39418000E-04	 6.62536000E-03	-7.46689000E-04
					-7.89428000E-05	 7.64232000E-03	-1.71835000E-04
					 9.36610000E-04	 7.59032000E-03	-7.69013000E-04
					-6.32014000E-05	 5.80757000E-03	-1.44051000E-04
					 3.81956000E-04	 6.66467000E-03	-4.28937000E-04
					 8.76664000E-04	 5.77598000E-03	-1.00161000E-03
					-7.64867000E-05	 7.14783000E-03	-1.66310000E-04
					 8.88318000E-04	 7.09580000E-03	-7.60150000E-04
					-6.91178000E-05	 6.78205000E-03	-1.57802000E-04
					 4.29404000E-04	 7.62826000E-03	-4.46968000E-04
					 9.38962000E-04	 6.74799000E-03	-1.02182000E-03
					-9.93044000E-04	 6.61844000E-03	 4.24890000E-04
					-1.09692000E-03	 7.58923000E-03	 4.24744000E-04
					-1.00643000E-03	 5.77113000E-03	 7.13617000E-04
					-5.32224000E-04	 6.66119000E-03	 1.08046000E-04
					-1.04531000E-03	 7.09246000E-03	 4.26320000E-04
					-1.07800000E-03	 6.74727000E-03	 7.06959000E-04
					-5.88084000E-04	 7.62832000E-03	 1.03089000E-04
					-8.27580000E-05	 8.71214000E-03	-1.81291000E-04
					 1.04079000E-03	 8.66113000E-03	-7.67570000E-04
					-8.12562000E-05	 8.16458000E-03	-1.76785000E-04
					 9.88450000E-04	 8.11275000E-03	-7.78055000E-04
					-7.46601000E-05	 7.82438000E-03	-1.70342000E-04
					 4.79231000E-04	 8.69902000E-03	-4.42631000E-04
					 9.97376000E-04	 7.78734000E-03	-1.02690000E-03
					-1.20605000E-03	 8.66094000E-03	 4.04783000E-04
					-1.15174000E-03	 8.11258000E-03	 4.24628000E-04
					-1.14465000E-03	 7.78519000E-03	 6.87601000E-04
					-6.44688000E-04	 8.69933000E-03	 7.95839000E-05
					-9.15761000E-05	 7.49986000E-03	-1.94111000E-04
					 5.09002000E-04	 7.38368000E-03	 3.37678000E-04
					-9.51535000E-05	 8.21690000E-03	-1.94399000E-04
					 7.34199000E-04	 8.10149000E-03	 3.24076000E-04
					-8.46157000E-05	 7.30304000E-03	-1.76026000E-04
					 2.08133000E-04	 7.47158000E-03	 1.37994000E-04
					 7.37864000E-04	 7.21512000E-03	-3.04766000E-04
					-9.37400000E-05	 7.82793000E-03	-1.94749000E-04
					 6.21863000E-04	 7.71416000E-03	 2.90531000E-04
					-8.82839000E-05	 8.20281000E-03	-1.83611000E-04
					 3.20951000E-04	 8.18956000E-03	 9.22545000E-05
					 8.92692000E-04	 8.11970000E-03	-3.27721000E-04
					-6.97289000E-04	 7.37154000E-03	-7.26672000E-04
					-9.29642000E-04	 8.09749000E-03	-7.13572000E-04
					-9.12597000E-04	 7.20453000E-03	-4.88294000E-05
					-3.92686000E-04	 7.46507000E-03	-5.26837000E-04
					-8.14494000E-04	 7.70628000E-03	-6.80340000E-04
					-1.07343000E-03	 8.11649000E-03	-4.02492000E-05
					-5.12777000E-04	 8.18757000E-03	-4.81340000E-04
					-9.63094000E-05	 9.16394000E-03	-1.93516000E-04
					 9.75860000E-04	 9.05346000E-03	 3.36031000E-04
					-9.59903000E-05	 8.66179000E-03	-1.93586000E-04
					 8.54971000E-04	 8.54585000E-03	 3.55113000E-04
					-9.05013000E-05	 9.26837000E-03	-1.89535000E-04
					 4.38107000E-04	 9.13897000E-03	 7.19999000E-05
					 1.06537000E-03	 9.19085000E-03	-3.18964000E-04
					-1.17325000E-03	 9.05809000E-03	-7.23767000E-04
					-1.05213000E-03	 8.54597000E-03	-7.43130000E-04
					-1.24883000E-03	 9.19234000E-03	-6.01195000E-05
					-6.31908000E-04	 9.14177000E-03	-4.59304000E-04
					-7.68946000E-05	 5.51002000E-03	-2.29952000E-04
					-2.16061000E-04	 5.36799000E-03	 2.14129000E-03
					-7.90897000E-05	 5.52359000E-03	-2.20386000E-04
					 7.19739000E-05	 5.37771000E-03	 2.15273000E-03
					-8.78316000E-05	 6.97884000E-03	-2.13612000E-04
					-1.45008000E-04	 5.47727000E-03	 1.01285000E-03
					 1.78527000E-04	 6.84594000E-03	 1.19799000E-03
					-7.82306000E-05	 5.47890000E-03	-2.24834000E-04
					-7.18185000E-05	 5.33402000E-03	 2.08555000E-03
					-9.09976000E-05	 7.38352000E-03	-2.06139000E-04
					-4.17232000E-06	 5.49012000E-03	 9.61119000E-04
					 4.46894000E-04	 7.25156000E-03	 1.19756000E-03
					 6.24016000E-05	 5.37303000E-03	-2.60282000E-03
					-2.31182000E-04	 5.38208000E-03	-2.59519000E-03
					-3.56703000E-04	 6.83970000E-03	-1.62515000E-03
					-8.94331000E-06	 5.48045000E-03	-1.47354000E-03
					-8.47568000E-05	 5.33798000E-03	-2.53645000E-03
					-6.32062000E-04	 7.24941000E-03	-1.61081000E-03
					-1.54468000E-04	 5.49203000E-03	-1.40228000E-03
					-8.11817000E-05	 5.81752000E-03	-2.08816000E-04
					 3.61018000E-04	 5.67622000E-03	 2.16094000E-03
					-7.99450000E-05	 5.63420000E-03	-2.15445000E-04
					 2.16162000E-04	 5.48826000E-03	 2.22080000E-03
					-9.28560000E-05	 8.05944000E-03	-1.97117000E-04
					 1.37469000E-04	 5.78602000E-03	 9.06315000E-04
					 7.30201000E-04	 7.93568000E-03	 1.21068000E-03
					-5.25246000E-04	 5.68314000E-03	-2.58026000E-03
					-3.77943000E-04	 5.49412000E-03	-2.65378000E-03
					-9.19566000E-04	 7.93997000E-03	-1.60697000E-03
					-3.00325000E-04	 5.78867000E-03	-1.32398000E-03
					-5.62861000E-05	-6.35315000E-04	-2.69025000E-04
					-8.11640000E-04	-7.29505000E-04	 3.74624000E-03
					-5.69692000E-05	-1.29211000E-03	-2.62598000E-04
					-6.29201000E-04	-1.39445000E-03	 3.77788000E-03
					-6.62279000E-05	 2.94612000E-03	-2.46086000E-04
					-4.33786000E-04	-6.59883000E-04	 1.73142000E-03
					-5.69600000E-04	 2.82878000E-03	 3.03448000E-03
					-5.68151000E-05	-9.87403000E-04	-2.66212000E-04
					-7.21740000E-04	-1.08666000E-03	 3.73134000E-03
					-6.77574000E-05	 2.58115000E-03	-2.38914000E-04
					-3.45442000E-04	-1.32046000E-03	 1.72053000E-03
					-3.15122000E-04	 2.45508000E-03	 3.05547000E-03
					 6.97834000E-04	-7.05336000E-04	-4.28600000E-03
					 5.10553000E-04	-1.36765000E-03	-4.30440000E-03
					 4.37282000E-04	 2.84371000E-03	-3.52962000E-03
					 3.20677000E-04	-6.48669000E-04	-2.26970000E-03
					 6.05591000E-04	-1.06219000E-03	-4.26558000E-03
					 1.77388000E-04	 2.46986000E-03	-3.53519000E-03
					 2.29780000E-04	-1.30834000E-03	-2.24607000E-03
					-5.78192000E-05	-1.76772000E-03	-2.54053000E-04
					-4.59323000E-04	-1.88128000E-03	 3.77551000E-03
					-5.70473000E-05	-1.55125000E-03	-2.58464000E-04
					-5.44785000E-04	-1.65793000E-03	 3.82854000E-03
					-6.94374000E-05	 2.46197000E-03	-2.29838000E-04
					-2.57468000E-04	-1.80187000E-03	 1.67663000E-03
					-7.11018000E-05	 2.33231000E-03	 3.05414000E-03
					 3.36725000E-04	-1.84623000E-03	-4.28443000E-03
					 4.23927000E-04	-1.62697000E-03	-4.34608000E-03
					-7.12923000E-05	 2.35102000E-03	-3.51443000E-03
					 1.39793000E-04	-1.78505000E-03	-2.18532000E-03
					-2.68126000E-05	-9.56941000E-03	-3.23022000E-04
					-8.68029000E-04	-9.59654000E-03	 4.18484000E-03
					-2.37351000E-05	-1.04461000E-02	-3.12876000E-04
					-8.54817000E-04	-1.04813000E-02	 4.24373000E-03
					-4.32806000E-05	-4.98245000E-03	-2.97489000E-04
					-4.40813000E-04	-9.58408000E-03	 1.90839000E-03
					-9.05422000E-04	-5.02784000E-03	 4.09951000E-03
					-2.56851000E-05	-1.00013000E-02	-3.18219000E-04
					-8.64693000E-04	-1.00367000E-02	 4.21792000E-03
					-4.24580000E-05	-5.79944000E-03	-2.88980000E-04
					-4.34018000E-04	-1.04660000E-02	 1.94891000E-03
					-8.17804000E-04	-5.85600000E-03	 4.14689000E-03
					 8.15070000E-04	-9.55771000E-03	-4.82888000E-03
					 8.03373000E-04	-1.04428000E-02	-4.86971000E-03
					 8.18215000E-04	-4.99523000E-03	-4.69401000E-03
					 3.87349000E-04	-9.56578000E-03	-2.55422000E-03
					 8.12377000E-04	-9.99844000E-03	-4.85289000E-03
					 7.28319000E-04	-5.82081000E-03	-4.72539000E-03
					 3.84992000E-04	-1.04481000E-02	-2.57490000E-03
					-2.09037000E-05	-1.12782000E-02	-2.99264000E-04
					-8.53245000E-04	-1.13365000E-02	 4.26016000E-03
					-2.18569000E-05	-1.08683000E-02	-3.06517000E-04
					-8.51597000E-04	-1.09115000E-02	 4.26452000E-03
					-4.19540000E-05	-6.52564000E-03	-2.77716000E-04
					-4.33001000E-04	-1.13095000E-02	 1.95729000E-03
					-7.39921000E-04	-6.59939000E-03	 4.15551000E-03
					 8.03450000E-04	-1.12905000E-02	-4.86139000E-03
					 8.00841000E-04	-1.08706000E-02	-4.87959000E-03
					 6.47718000E-04	-6.55450000E-03	-4.71249000E-03
					 3.89085000E-04	-1.12865000E-02	-2.55661000E-03
					 0.00000000E+00	 0.00000000E+00	 0.00000000E+00
					 0.00000000E+00	 0.00000000E+00	 0.00000000E+00
					 1.65640000E-05	-2.15485000E-03	 1.09678000E-04
					-1.81542000E-03	-2.33130000E-03	 3.08327000E-03
					 0.00000000E+00	 0.00000000E+00	 0.00000000E+00
					 0.00000000E+00	 0.00000000E+00	 0.00000000E+00
					 3.98234000E-05	-3.82166000E-03	 1.27809000E-04
					-1.46043000E-03	-4.01081000E-03	 3.14482000E-03
					 0.00000000E+00	 0.00000000E+00	 0.00000000E+00
					-6.22309000E-06	-2.11575000E-04	 5.01664000E-05
					-9.01147000E-04	-2.18054000E-03	 1.66859000E-03
					-1.18575000E-03	-5.09357000E-04	 1.64292000E-03
					 0.00000000E+00	 0.00000000E+00	 0.00000000E+00
					 0.00000000E+00	 0.00000000E+00	 0.00000000E+00
					 2.80626000E-05	-3.05007000E-03	 1.19047000E-04
					-1.63536000E-03	-3.22954000E-03	 2.98673000E-03
					 0.00000000E+00	 0.00000000E+00	 0.00000000E+00
					 1.33771000E-05	-1.16240000E-03	 5.73159000E-05
					-7.09920000E-04	-3.85029000E-03	 1.57698000E-03
					-7.42025000E-04	-1.44116000E-03	 1.61538000E-03
					 0.00000000E+00	 0.00000000E+00	 0.00000000E+00
					 1.84616000E-03	-2.26822000E-03	-2.86850000E-03
					 0.00000000E+00	 0.00000000E+00	 0.00000000E+00
					 1.53866000E-03	-3.94083000E-03	-2.89422000E-03
					 0.00000000E+00	 0.00000000E+00	 0.00000000E+00
					 1.16971000E-03	-4.63505000E-04	-1.53749000E-03
					 9.34240000E-04	-2.14795000E-03	-1.45166000E-03
					 0.00000000E+00	 0.00000000E+00	 0.00000000E+00
					 1.68912000E-03	-3.16309000E-03	-2.75334000E-03
					 0.00000000E+00	 0.00000000E+00	 0.00000000E+00
					 7.66645000E-04	-1.38902000E-03	-1.49404000E-03
					 7.88204000E-04	-3.81546000E-03	-1.32444000E-03
					 0.00000000E+00	 0.00000000E+00	 0.00000000E+00
					 0.00000000E+00	 0.00000000E+00	 0.00000000E+00
					 6.38146000E-05	-5.15336000E-03	 1.46682000E-04
					-1.09660000E-03	-5.32772000E-03	 3.12139000E-03
					 0.00000000E+00	 0.00000000E+00	 0.00000000E+00
					 0.00000000E+00	 0.00000000E+00	 0.00000000E+00
					 5.15425000E-05	-4.54774000E-03	 1.35349000E-04
					-1.28060000E-03	-4.72640000E-03	 3.27005000E-03
					 0.00000000E+00	 0.00000000E+00	 0.00000000E+00
					 3.64938000E-05	-1.71985000E-03	 7.37669000E-05
					-5.16414000E-04	-5.17606000E-03	 1.43871000E-03
					-2.41348000E-04	-1.97038000E-03	 1.66771000E-03
					 0.00000000E+00	 0.00000000E+00	 0.00000000E+00
					 1.21880000E-03	-5.25328000E-03	-2.83239000E-03
					 0.00000000E+00	 0.00000000E+00	 0.00000000E+00
					 1.37986000E-03	-4.65883000E-03	-3.00409000E-03
					 0.00000000E+00	 0.00000000E+00	 0.00000000E+00
					 3.10161000E-04	-1.91046000E-03	-1.51328000E-03
					 6.43239000E-04	-5.14074000E-03	-1.14803000E-03
					 8.89251000E-05	-9.45658000E-03	 2.11112000E-04
					-2.85406000E-03	-9.58904000E-03	 5.01634000E-03
					 1.17824000E-04	-1.22927000E-02	 2.27436000E-04
					-2.62735000E-03	-1.24329000E-02	 5.05127000E-03
					 4.91712000E-05	-5.27876000E-03	 1.65202000E-04
					-1.38065000E-03	-9.50300000E-03	 2.63545000E-03
					-2.41989000E-03	-5.45377000E-03	 4.18667000E-03
					 1.03167000E-04	-1.08925000E-02	 2.18337000E-04
					-2.74099000E-03	-1.10299000E-02	 4.98037000E-03
					 7.41199000E-05	-7.59981000E-03	 1.82720000E-04
					-1.25007000E-03	-1.23426000E-02	 2.60936000E-03
					-2.10944000E-03	-7.78588000E-03	 4.22294000E-03
					 3.03041000E-03	-9.48869000E-03	-4.59778000E-03
					 2.85530000E-03	-1.23363000E-02	-4.59934000E-03
					 2.51474000E-03	-5.37090000E-03	-3.86196000E-03
					 1.55745000E-03	-9.45252000E-03	-2.21474000E-03
					 2.94454000E-03	-1.09364000E-02	-4.54469000E-03
					 2.25462000E-03	-7.70200000E-03	-3.86291000E-03
					 1.48796000E-03	-1.22945000E-02	-2.15241000E-03
					 1.40276000E-04	-1.49414000E-02	 2.43870000E-04
					-2.39775000E-03	-1.50715000E-02	 5.04670000E-03
					 1.29208000E-04	-1.36349000E-02	 2.37028000E-04
					-2.51216000E-03	-1.37994000E-02	 5.12143000E-03
					 9.88012000E-05	-9.64583000E-03	 2.01592000E-04
					-1.13316000E-03	-1.49842000E-02	 2.54569000E-03
					-1.81911000E-03	-9.84156000E-03	 4.22359000E-03
					 2.70071000E-03	-1.49911000E-02	-4.56382000E-03
					 2.77878000E-03	-1.36817000E-02	-4.65462000E-03
					 2.02376000E-03	-9.76196000E-03	-3.82368000E-03
					 1.41966000E-03	-1.49447000E-02	-2.05463000E-03
					 1.96506000E-04	-1.98619000E-02	 2.70509000E-04
					-3.35684000E-03	-1.98741000E-02	 5.76108000E-03
					 2.25121000E-04	-2.33657000E-02	 2.94265000E-04
					-3.29070000E-03	-2.34916000E-02	 5.80306000E-03
					 1.40418000E-04	-1.44288000E-02	 2.46477000E-04
					-1.57429000E-03	-1.98643000E-02	 3.00737000E-03
					-3.14476000E-03	-1.45241000E-02	 5.54465000E-03
					 2.12882000E-04	-2.16186000E-02	 2.87045000E-04
					-3.32542000E-03	-2.17022000E-02	 5.74163000E-03
					 1.68493000E-04	-1.76473000E-02	 2.63590000E-04
					-1.55683000E-03	-2.34304000E-02	 2.98644000E-03
					-3.00265000E-03	-1.77602000E-02	 5.58450000E-03
					 3.70989000E-03	-1.98021000E-02	-5.20419000E-03
					 3.73892000E-03	-2.33264000E-02	-5.23321000E-03
					 3.41546000E-03	-1.44181000E-02	-5.05064000E-03
					 1.95386000E-03	-1.98306000E-02	-2.45497000E-03
					 3.72246000E-03	-2.15623000E-02	-5.18005000E-03
					 3.34028000E-03	-1.76377000E-02	-5.05925000E-03
					 1.98296000E-03	-2.33490000E-02	-2.41785000E-03
					 2.44738000E-04	-2.68775000E-02	 3.11718000E-04
					-3.33233000E-03	-2.71200000E-02	 5.79853000E-03
					 2.35280000E-04	-2.51367000E-02	 3.00541000E-04
					-3.31435000E-03	-2.51918000E-02	 5.87221000E-03
					 2.00416000E-04	-2.07680000E-02	 2.77740000E-04
					-1.51368000E-03	-2.70055000E-02	 2.91649000E-03
					-2.90072000E-03	-2.09080000E-02	 5.57650000E-03
					 3.78183000E-03	-2.68700000E-02	-5.22072000E-03
					 3.76112000E-03	-2.50945000E-02	-5.29123000E-03
					 3.26430000E-03	-2.07590000E-02	-5.02703000E-03
					 2.00544000E-03	-2.68852000E-02	-2.33746000E-03
					 3.65248000E-04	-3.05504000E-02	 3.00446000E-04
					-3.53359000E-03	-3.03684000E-02	 4.99369000E-03