<?xml version="1.0"?>
<VTKFile type="UnstructuredGrid" version="0.1" byte_order="LittleEndian">
	<UnstructuredGrid>
		<Piece NumberOfPoints="522" NumberOfCells="64">
			<Points>
				<DataArray type="Float64" NumberOfComponents="3" format="ascii">
					 1.00000000E+00	 1.00000000E+00	-5.96046000E-08
					 1.00000000E+00	 5.00000000E-01	-5.96046000E-08
					 1.00000000E+00	 5.00000000E-01	 1.00000000E+00
					 1.00000000E+00	 1.00000000E+00	 1.00000000E+00
					 5.00000000E-01	 1.00000000E+00	-5.96046000E-08
					 5.00000000E-01	 5.00000000E-01	-5.96046000E-08
					 5.00000000E-01	 5.00000000E-01	 1.00000000E+00
					 5.00000000E-01	 1.00000000E+00	 1.00000000E+00
					 1.00000000E+00	 7.50000000E-01	-5.96046000E-08
					 1.00000000E+00	 5.00000000E-01	 5.00000000E-01
					 1.00000000E+00	 7.50000000E-01	 1.00000000E+00
					 1.00000000E+00	 1.00000000E+00	 5.00000000E-01
					 7.50000000E-01	 1.00000000E+00	-5.96046000E-08
					 7.50000000E-01	 5.00000000E-01	-5.96046000E-08
					 7.50000000E-01	 5.00000000E-01	 1.00000000E+00
					 7.50000000E-01	 1.00000000E+00	 1.00000000E+00
					 5.00000000E-01	 7.50000000E-01	-5.96046000E-08
					 5.00000000E-01	 5.00000000E-01	 5.00000000E-01
					 5.00000000E-01	 7.50000000E-01	 1.00000000E+00
					 5.00000000E-01	 1.00000000E+00	 5.00000000E-01
					 1.00000000E+00	-1.49012000E-08	-5.96046000E-08
					 1.00000000E+00	-1.49012000E-08	 1.00000000E+00
					 5.00000000E-01	-1.49012000E-08	-5.96046000E-08
					 5.00000000E-01	-1.49012000E-08	 1.00000000E+00
					 1.00000000E+00	 2.50000000E-01	-5.96046000E-08
					 1.00000000E+00	-1.49012000E-08	 5.00000000E-01
					 1.00000000E+00	 2.50000000E-01	 1.00000000E+00
					 7.50000000E-01	-1.49012000E-08	-5.96046000E-08
					 7.50000000E-01	-1.49012000E-08	 1.00000000E+00
					 5.00000000E-01	 2.50000000E-01	-5.96046000E-08
					 5.00000000E-01	-1.49012000E-08	 5.00000000E-01
					 5.00000000E-01	 2.50000000E-01	 1.00000000E+00
					-7.45058000E-09	 1.00000000E+00	-5.96046000E-08
					-7.45058000E-09	 5.00000000E-01	-5.96046000E-08
					-7.45058000E-09	 5.00000000E-01	 1.00000000E+00
					-7.45058000E-09	 1.00000000E+00	 1.00000000E+00
					 2.50000000E-01	 1.00000000E+00	-5.96046000E-08
					 2.50000000E-01	 5.00000000E-01	-5.96046000E-08
					 2.50000000E-01	 5.00000000E-01	 1.00000000E+00
					 2.50000000E-01	 1.00000000E+00	 1.00000000E+00
					-7.45058000E-09	 7.50000000E-01	-5.96046000E-08
					-7.45058000E-09	 5.00000000E-01	 5.00000000E-01
					-7.45058000E-09	 7.50000000E-01	 1.00000000E+00
					-7.45058000E-09	 1.00000000E+00	 5.00000000E-01
					-7.45058000E-09	-1.49012000E-08	-5.96046000E-08
					-7.45058000E-09	-1.49012000E-08	 1.00000000E+00
					 2.50000000E-01	-1.49012000E-08	-5.96046000E-08
					 2.50000000E-01	-1.49012000E-08	 1.00000000E+00
					-7.45058000E-09	 2.50000000E-01	-5.96046000E-08
					-7.45058000E-09	-1.49012000E-08	 5.00000000E-01
					-7.45058000E-09	 2.50000000E-01	 1.00000000E+00
					 1.00000000E+00	 5.00000000E-01	 2.00000000E+00
					 1.00000000E+00	 1.00000000E+00	 2.00000000E+00
					 5.00000000E-01	 5.00000000E-01	 2.00000000E+00
					 5.00000000E-01	 1.00000000E+00	 2.00000000E+00
					 1.00000000E+00	 5.00000000E-01	 1.50000000E+00
					 1.00000000E+00	 7.50000000E-01	 2.00000000E+00
					 1.00000000E+00	 1.00000000E+00	 1.50000000E+00
					 7.50000000E-01	 5.00000000E-01	 2.00000000E+00
					 7.50000000E-01	 1.00000000E+00	 2.00000000E+00
					 5.00000000E-01	 5.00000000E-01	 1.50000000E+00
					 5.00000000E-01	 7.50000000E-01	 2.00000000E+00
					 5.00000000E-01	 1.00000000E+00	 1.50000000E+00
					 1.00000000E+00	-1.49012000E-08	 2.00000000E+00
					 5.00000000E-01	-1.49012000E-08	 2.00000000E+00
					 1.00000000E+00	-1.49012000E-08	 1.50000000E+00
					 1.00000000E+00	 2.50000000E-01	 2.00000000E+00
					 7.50000000E-01	-1.49012000E-08	 2.00000000E+00
					 5.00000000E-01	-1.49012000E-08	 1.50000000E+00
					 5.00000000E-01	 2.50000000E-01	 2.00000000E+00
					-7.45058000E-09	 5.00000000E-01	 2.00000000E+00
					-7.45058000E-09	 1.00000000E+00	 2.00000000E+00
					 2.50000000E-01	 5.00000000E-01	 2.00000000E+00
					 2.50000000E-01	 1.00000000E+00	 2.00000000E+00
					-7.45058000E-09	 5.00000000E-01	 1.50000000E+00
					-7.45058000E-09	 7.50000000E-01	 2.00000000E+00
					-7.45058000E-09	 1.00000000E+00	 1.50000000E+00
					-7.45058000E-09	-1.49012000E-08	 2.00000000E+00
					 2.50000000E-01	-1.49012000E-08	 2.00000000E+00
					-7.45058000E-09	-1.49012000E-08	 1.50000000E+00
					-7.45058000E-09	 2.50000000E-01	 2.00000000E+00
					 1.00000000E+00	 5.00000000E-01	 3.00000000E+00
					 1.00000000E+00	 1.00000000E+00	 3.00000000E+00
					 5.00000000E-01	 5.00000000E-01	 3.00000000E+00
					 5.00000000E-01	 1.00000000E+00	 3.00000000E+00
					 1.00000000E+00	 5.00000000E-01	 2.50000000E+00
					 1.00000000E+00	 7.50000000E-01	 3.00000000E+00
					 1.00000000E+00	 1.00000000E+00	 2.50000000E+00
					 7.50000000E-01	 5.00000000E-01	 3.00000000E+00
					 7.50000000E-01	 1.00000000E+00	 3.00000000E+00
					 5.00000000E-01	 5.00000000E-01	 2.50000000E+00
					 5.00000000E-01	 7.50000000E-01	 3.00000000E+00
					 5.00000000E-01	 1.00000000E+00	 2.50000000E+00
					 1.00000000E+00	-1.49012000E-08	 3.00000000E+00
					 5.00000000E-01	-1.49012000E-08	 3.00000000E+00
					 1.00000000E+00	-1.49012000E-08	 2.50000000E+00
					 1.00000000E+00	 2.50000000E-01	 3.00000000E+00
					 7.50000000E-01	-1.49012000E-08	 3.00000000E+00
					 5.00000000E-01	-1.49012000E-08	 2.50000000E+00
					 5.00000000E-01	 2.50000000E-01	 3.00000000E+00
					-7.45058000E-09	 5.00000000E-01	 3.00000000E+00
					-7.45058000E-09	 1.00000000E+00	 3.00000000E+00
					 2.50000000E-01	 5.00000000E-01	 3.00000000E+00
					 2.50000000E-01	 1.00000000E+00	 3.00000000E+00
					-7.45058000E-09	 5.00000000E-01	 2.50000000E+00
					-7.45058000E-09	 7.50000000E-01	 3.00000000E+00
					-7.45058000E-09	 1.00000000E+00	 2.50000000E+00
					-7.45058000E-09	-1.49012000E-08	 3.00000000E+00
					 2.50000000E-01	-1.49012000E-08	 3.00000000E+00
					-7.45058000E-09	-1.49012000E-08	 2.50000000E+00
					-7.45058000E-09	 2.50000000E-01	 3.00000000E+00
					 1.00000000E+00	 5.00000000E-01	 4.00000000E+00
					 1.00000000E+00	 1.00000000E+00	 4.00000000E+00
					 5.00000000E-01	 5.00000000E-01	 4.00000000E+00
					 5.00000000E-01	 1.00000000E+00	 4.00000000E+00
					 1.00000000E+00	 5.00000000E-01	 3.50000000E+00
					 1.00000000E+00	 7.50000000E-01	 4.00000000E+00
					 1.00000000E+00	 1.00000000E+00	 3.50000000E+00
					 7.50000000E-01	 5.00000000E-01	 4.00000000E+00
					 7.50000000E-01	 1.00000000E+00	 4.00000000E+00
					 5.00000000E-01	 5.00000000E-01	 3.50000000E+00
					 5.00000000E-01	 7.50000000E-01	 4.00000000E+00
					 5.00000000E-01	 1.00000000E+00	 3.50000000E+00
					 1.00000000E+00	-1.49012000E-08	 4.00000000E+00
					 5.00000000E-01	-1.49012000E-08	 4.00000000E+00
					 1.00000000E+00	-1.49012000E-08	 3.50000000E+00
					 1.00000000E+00	 2.50000000E-01	 4.00000000E+00
					 7.50000000E-01	-1.49012000E-08	 4.00000000E+00
					 5.00000000E-01	-1.49012000E-08	 3.50000000E+00
					 5.00000000E-01	 2.50000000E-01	 4.00000000E+00
					-7.45058000E-09	 5.00000000E-01	 4.00000000E+00
					-7.45058000E-09	 1.00000000E+00	 4.00000000E+00
					 2.50000000E-01	 5.00000000E-01	 4.00000000E+00
					 2.50000000E-01	 1.00000000E+00	 4.00000000E+00
					-7.45058000E-09	 5.00000000E-01	 3.50000000E+00
					-7.45058000E-09	 7.50000000E-01	 4.00000000E+00
					-7.45058000E-09	 1.00000000E+00	 3.50000000E+00
					-7.45058000E-09	-1.49012000E-08	 4.00000000E+00
					 2.50000000E-01	-1.49012000E-08	 4.00000000E+00
					-7.45058000E-09	-1.49012000E-08	 3.50000000E+00
					-7.45058000E-09	 2.50000000E-01	 4.00000000E+00
					 1.00000000E+00	 5.00000000E-01	 5.00000000E+00
					 1.00000000E+00	 1.00000000E+00	 5.00000000E+00
					 5.00000000E-01	 5.00000000E-01	 5.00000000E+00
					 5.00000000E-01	 1.00000000E+00	 5.00000000E+00
					 1.00000000E+00	 5.00000000E-01	 4.50000000E+00
					 1.00000000E+00	 7.50000000E-01	 5.00000000E+00
					 1.00000000E+00	 1.00000000E+00	 4.50000000E+00
					 7.50000000E-01	 5.00000000E-01	 5.00000000E+00
					 7.50000000E-01	 1.00000000E+00	 5.00000000E+00
					 5.00000000E-01	 5.00000000E-01	 4.50000000E+00
					 5.00000000E-01	 7.50000000E-01	 5.00000000E+00
					 5.00000000E-01	 1.00000000E+00	 4.50000000E+00
					 1.00000000E+00	-1.49012000E-08	 5.00000000E+00
					 5.00000000E-01	-1.49012000E-08	 5.00000000E+00
					 1.00000000E+00	-1.49012000E-08	 4.50000000E+00
					 1.00000000E+00	 2.50000000E-01	 5.00000000E+00
					 7.50000000E-01	-1.49012000E-08	 5.00000000E+00
					 5.00000000E-01	-1.49012000E-08	 4.50000000E+00
					 5.00000000E-01	 2.50000000E-01	 5.00000000E+00
					-7.45058000E-09	 5.00000000E-01	 5.00000000E+00
					-7.45058000E-09	 1.00000000E+00	 5.00000000E+00
					 2.50000000E-01	 5.00000000E-01	 5.00000000E+00
					 2.50000000E-01	 1.00000000E+00	 5.00000000E+00
					-7.45058000E-09	 5.00000000E-01	 4.50000000E+00
					-7.45058000E-09	 7.50000000E-01	 5.00000000E+00
					-7.45058000E-09	 1.00000000E+00	 4.50000000E+00
					-7.45058000E-09	-1.49012000E-08	 5.00000000E+00
					 2.50000000E-01	-1.49012000E-08	 5.00000000E+00
					-7.45058000E-09	-1.49012000E-08	 4.50000000E+00
					-7.45058000E-09	 2.50000000E-01	 5.00000000E+00
					 1.00000000E+00	 5.00000000E-01	 6.00000000E+00
					 1.00000000E+00	 1.00000000E+00	 6.00000000E+00
					 5.00000000E-01	 5.00000000E-01	 6.00000000E+00
					 5.00000000E-01	 1.00000000E+00	 6.00000000E+00
					 1.00000000E+00	 5.00000000E-01	 5.50000000E+00
					 1.00000000E+00	 7.50000000E-01	 6.00000000E+00
					 1.00000000E+00	 1.00000000E+00	 5.50000000E+00
					 7.50000000E-01	 5.00000000E-01	 6.00000000E+00
					 7.50000000E-01	 1.00000000E+00	 6.00000000E+00
					 5.00000000E-01	 5.00000000E-01	 5.50000000E+00
					 5.00000000E-01	 7.50000000E-01	 6.00000000E+00
					 5.00000000E-01	 1.00000000E+00	 5.50000000E+00
					 1.00000000E+00	-1.49012000E-08	 6.00000000E+00
[...]
			<PointData>
				<DataArray type="Float32" Name="U" NumberOfComponents="3" ComponentName0="D1" ComponentName1="D2" ComponentName2="D3" format="ascii">
					 0.00000000E+00	 0.00000000E+00	 0.00000000E+00
					 0.00000000E+00	 0.00000000E+00	 0.00000000E+00
					-2.62726000E-05	 6.64944000E-03	-2.91681000E-05
					-8.76170000E-04	 6.84298000E-03	-4.54620000E-03
					 0.00000000E+00	 0.00000000E+00	 0.00000000E+00
					 0.00000000E+00	 0.00000000E+00	 0.00000000E+00
					-2.72861000E-05	 5.52475000E-03	-3.24517000E-05
					-1.41126000E-03	 5.74555000E-03	-4.61572000E-03
					 0.00000000E+00	 0.00000000E+00	 0.00000000E+00
					-6.76066000E-06	 1.95385000E-03	-5.27786000E-06
					-4.53595000E-04	 6.64836000E-03	-2.06915000E-03
					 2.38904000E-05	 2.29225000E-03	-2.37540000E-03
					 0.00000000E+00	 0.00000000E+00	 0.00000000E+00
					 0.00000000E+00	 0.00000000E+00	 0.00000000E+00
					-2.69981000E-05	 6.17862000E-03	-3.29817000E-05
					-1.14654000E-03	 6.38905000E-03	-4.72006000E-03
					 0.00000000E+00	 0.00000000E+00	 0.00000000E+00
					-9.77836000E-06	 1.57266000E-03	-1.09283000E-05
					-7.17659000E-04	 5.53265000E-03	-2.23715000E-03
					-6.90322000E-04	 1.94700000E-03	-2.32468000E-03
					 0.00000000E+00	 0.00000000E+00	 0.00000000E+00
					 8.19360000E-04	 6.88708000E-03	 4.48129000E-03
					 0.00000000E+00	 0.00000000E+00	 0.00000000E+00
					 1.35528000E-03	 5.79463000E-03	 4.54309000E-03
					 0.00000000E+00	 0.00000000E+00	 0.00000000E+00
					-3.86095000E-05	 2.30865000E-03	 2.36230000E-03
					 3.99219000E-04	 6.66752000E-03	 2.01013000E-03
					 0.00000000E+00	 0.00000000E+00	 0.00000000E+00
					 1.09036000E-03	 6.43834000E-03	 4.64532000E-03
					 0.00000000E+00	 0.00000000E+00	 0.00000000E+00
					 6.70992000E-04	 1.96178000E-03	 2.30015000E-03
					 6.62594000E-04	 5.55666000E-03	 2.16990000E-03
					 0.00000000E+00	 0.00000000E+00	 0.00000000E+00
					 0.00000000E+00	 0.00000000E+00	 0.00000000E+00
					-2.57388000E-05	 3.88283000E-03	-2.94343000E-05
					-1.92854000E-03	 4.08786000E-03	-4.54659000E-03
					 0.00000000E+00	 0.00000000E+00	 0.00000000E+00
					 0.00000000E+00	 0.00000000E+00	 0.00000000E+00
					-2.68429000E-05	 4.79840000E-03	-3.05991000E-05
					-1.66596000E-03	 5.00792000E-03	-4.46285000E-03
					 0.00000000E+00	 0.00000000E+00	 0.00000000E+00
					-1.27047000E-05	 5.92452000E-04	-1.30469000E-05
					-9.80184000E-04	 3.88711000E-03	-2.32393000E-03
					-1.35031000E-03	 9.85530000E-04	-2.38424000E-03
					 0.00000000E+00	 0.00000000E+00	 0.00000000E+00
					 1.87895000E-03	 4.13909000E-03	 4.48099000E-03
					 0.00000000E+00	 0.00000000E+00	 0.00000000E+00
					 1.61192000E-03	 5.05721000E-03	 4.39578000E-03
					 0.00000000E+00	 0.00000000E+00	 0.00000000E+00
					 1.32727000E-03	 1.00016000E-03	 2.35366000E-03
					 9.29337000E-04	 3.91384000E-03	 2.26216000E-03
					-6.38337000E-05	 2.09662000E-02	-1.50842000E-04
					-2.47099000E-03	 2.10539000E-02	-7.41035000E-03
					-5.85168000E-05	 1.84367000E-02	-1.21459000E-04
					-2.72849000E-03	 1.85096000E-02	-7.40423000E-03
					-4.74059000E-05	 1.31780000E-02	-8.02721000E-05
					-1.26217000E-03	 2.09880000E-02	-3.64360000E-03
					-1.72403000E-03	 1.33699000E-02	-6.19862000E-03
					-6.17902000E-05	 1.97307000E-02	-1.36590000E-04
					-2.60051000E-03	 1.98037000E-02	-7.49726000E-03
					-4.59782000E-05	 1.13148000E-02	-6.93431000E-05
					-1.39457000E-03	 1.84504000E-02	-3.71411000E-03
					-2.11570000E-03	 1.14890000E-02	-6.22077000E-03
					 2.33888000E-03	 2.11675000E-02	 7.10378000E-03
					 2.60761000E-03	 1.86320000E-02	 7.15641000E-03
					 1.62328000E-03	 1.34470000E-02	 6.02977000E-03
					 1.13352000E-03	 2.10402000E-02	 3.34073000E-03
					 2.47289000E-03	 1.99248000E-02	 7.21926000E-03
					 2.02065000E-03	 1.15749000E-02	 6.07411000E-03
					 1.27679000E-03	 1.85099000E-02	 3.47003000E-03
					-4.89927000E-05	 1.56305000E-02	-8.72045000E-05
					-3.00360000E-03	 1.56882000E-02	-7.34639000E-03
					-5.43436000E-05	 1.70596000E-02	-1.05152000E-04
					-2.86819000E-03	 1.71293000E-02	-7.31462000E-03
					-4.11602000E-05	 9.04172000E-03	-5.24587000E-05
					-1.52443000E-03	 1.56331000E-02	-3.73075000E-03
					-2.52476000E-03	 9.20587000E-03	-6.17018000E-03
					 2.90190000E-03	 1.58187000E-02	 7.16736000E-03
					 2.75573000E-03	 1.72537000E-02	 7.09974000E-03
					 2.44154000E-03	 9.29766000E-03	 6.05800000E-03
					 1.42584000E-03	 1.56986000E-02	 3.55531000E-03
					-7.73671000E-05	 3.81506000E-02	-3.05767000E-04
					-3.37161000E-03	 3.81422000E-02	-8.78969000E-03
					-6.57498000E-05	 3.48139000E-02	-2.50749000E-04
					-3.46704000E-03	 3.47899000E-02	-8.74469000E-03
					-7.24020000E-05	 2.93999000E-02	-2.27519000E-04
					-1.72100000E-03	 3.81324000E-02	-4.49990000E-03
					-3.02989000E-03	 2.94415000E-02	-8.21819000E-03
					-7.17727000E-05	 3.64990000E-02	-2.78447000E-04
					-3.41992000E-03	 3.64783000E-02	-8.79721000E-03
					-6.33748000E-05	 2.63690000E-02	-1.82739000E-04
					-1.76708000E-03	 3.47871000E-02	-4.47866000E-03
					-3.19109000E-03	 2.63902000E-02	-8.19064000E-03
					 3.21413000E-03	 3.83080000E-02	 8.17591000E-03
					 3.33321000E-03	 3.49603000E-02	 8.24132000E-03
					 2.88155000E-03	 2.95848000E-02	 7.76009000E-03
					 1.56536000E-03	 3.82137000E-02	 3.88762000E-03
					 3.27387000E-03	 3.66474000E-02	 8.23834000E-03
					 3.06128000E-03	 2.65400000E-02	 7.82204000E-03
					 1.63487000E-03	 3.48718000E-02	 3.97658000E-03
					-5.19857000E-05	 3.13512000E-02	-1.93467000E-04
					-3.58008000E-03	 3.13188000E-02	-8.67696000E-03
					-5.90840000E-05	 3.30975000E-02	-2.22450000E-04
					-3.52433000E-03	 3.30709000E-02	-8.69097000E-03
					-5.12842000E-05	 2.31482000E-02	-1.34563000E-04
					-1.81557000E-03	 3.13193000E-02	-4.43746000E-03
					-3.37305000E-03	 2.31601000E-02	-8.12525000E-03
					 3.47442000E-03	 3.14930000E-02	 8.28838000E-03
					 3.40408000E-03	 3.32427000E-02	 8.24424000E-03
					 3.26772000E-03	 2.33154000E-02	 7.85269000E-03
					 1.71111000E-03	 3.14065000E-02	 4.05009000E-03
					-7.58983000E-05	 5.58971000E-02	-4.66412000E-04
					-3.38981000E-03	 5.58594000E-02	-9.60628000E-03
					-6.45917000E-05	 5.25424000E-02	-3.99311000E-04
					-3.47280000E-03	 5.24955000E-02	-9.53608000E-03
					-7.91919000E-05	 4.69845000E-02	-3.84573000E-04
					-1.73103000E-03	 5.58668000E-02	-5.06837000E-03
					-3.47367000E-03	 4.69625000E-02	-9.21469000E-03
					-7.06283000E-05	 5.42319000E-02	-4.33131000E-04
					-3.43196000E-03	 5.41882000E-02	-9.54659000E-03
					-6.71805000E-05	 4.35574000E-02	-3.22928000E-04
					-1.76876000E-03	 5.25080000E-02	-4.97571000E-03
					-3.54668000E-03	 4.35194000E-02	-9.15512000E-03
					 3.23455000E-03	 5.60464000E-02	 8.67127000E-03
					 3.34057000E-03	 5.26887000E-02	 8.73564000E-03
					 3.31226000E-03	 4.71406000E-02	 8.44283000E-03
					 1.57837000E-03	 5.59614000E-02	 4.13500000E-03
					 3.28745000E-03	 5.43775000E-02	 8.67834000E-03
					 3.40973000E-03	 4.37026000E-02	 8.50730000E-03
					 1.63884000E-03	 5.26049000E-02	 4.17661000E-03
					-5.02576000E-05	 4.90851000E-02	-3.30356000E-04
					-3.56190000E-03	 4.90322000E-02	-9.46971000E-03
					-5.78510000E-05	 5.08250000E-02	-3.64983000E-04
					-3.51797000E-03	 5.07755000E-02	-9.52172000E-03
					-5.26609000E-05	 4.00292000E-02	-2.59489000E-04
					-1.80542000E-03	 4.90474000E-02	-4.88857000E-03
					-3.63753000E-03	 3.99819000E-02	-9.08881000E-03
					 3.45857000E-03	 4.92315000E-02	 8.80742000E-03
					 3.39938000E-03	 5.09725000E-02	 8.79011000E-03
					 3.53008000E-03	 4.01698000E-02	 8.56841000E-03
					 1.70428000E-03	 4.91467000E-02	 4.22741000E-03
					-4.89516000E-05	 7.45976000E-02	-6.47127000E-04
					-3.04884000E-03	 7.45545000E-02	-1.06212000E-02
					-3.89978000E-05	 7.15222000E-02	-5.70856000E-04
					-3.18444000E-03	 7.14821000E-02	-1.05468000E-02
					-6.52298000E-05	 6.50161000E-02	-5.53265000E-04
					-1.55076000E-03	 7.45556000E-02	-5.64715000E-03
					-3.20925000E-03	 6.49745000E-02	-1.00785000E-02
					-4.42466000E-05	 7.30784000E-02	-6.08868000E-04
					-3.11666000E-03	 7.30395000E-02	-1.05683000E-02
					-5.47584000E-05	 6.18090000E-02	-4.80890000E-04
					-1.61104000E-03	 7.14816000E-02	-5.55627000E-03
					-3.32633000E-03	 6.17670000E-02	-1.00006000E-02
					 2.94822000E-03	 7.47715000E-02	 9.32499000E-03
					 3.10408000E-03	 7.17042000E-02	 9.40242000E-03
					 3.07534000E-03	 6.51739000E-02	 8.97009000E-03
					 1.45224000E-03	 7.46647000E-02	 4.35234000E-03
					 3.02559000E-03	 7.32585000E-02	 9.34846000E-03
					 3.21378000E-03	 6.19726000E-02	 9.03669000E-03
					 1.53250000E-03	 7.15926000E-02	 4.41401000E-03
					-2.67973000E-05	 6.83108000E-02	-4.91783000E-04
					-3.31466000E-03	 6.82660000E-02	-1.04660000E-02
					-3.32473000E-05	 6.99357000E-02	-5.32221000E-04
					-3.24980000E-03	 6.98933000E-02	-1.05231000E-02
					-4.15371000E-05	 5.84776000E-02	-4.06166000E-04
					-1.66946000E-03	 6.82690000E-02	-5.46038000E-03
					-3.43785000E-03	 5.84327000E-02	-9.93133000E-03
					 3.25905000E-03	 6.84925000E-02	 9.47949000E-03
					 3.18112000E-03	 7.01183000E-02	 9.45556000E-03
					 3.35194000E-03	 5.86445000E-02	 9.11666000E-03
					 1.61546000E-03	 6.83816000E-02	 4.47639000E-03
					-1.76372000E-05	 9.55517000E-02	-8.57994000E-04
					-2.98312000E-03	 9.54462000E-02	-1.15385000E-02
					-6.78597000E-06	 9.25664000E-02	-7.82252000E-04
					-3.01292000E-03	 9.24610000E-02	-1.14779000E-02
					-3.17176000E-05	 8.48248000E-02	-7.49272000E-04
					-1.50022000E-03	 9.54949000E-02	-6.16284000E-03
					-2.97983000E-03	 8.47486000E-02	-1.11555000E-02
					-1.21052000E-05	 9.40641000E-02	-8.20054000E-04
					-2.99793000E-03	 9.39583000E-02	-1.15124000E-02
					-2.15036000E-05	 8.18177000E-02	-6.72046000E-04
					-1.50981000E-03	 9.25097000E-02	-6.09677000E-03
					-3.08217000E-03	 8.17458000E-02	-1.10905000E-02
					 2.94825000E-03	 9.56970000E-02	 9.82158000E-03
					 2.99976000E-03	 9.27115000E-02	 9.91216000E-03
					 2.91542000E-03	 8.49855000E-02	 9.65568000E-03
					 1.46494000E-03	 9.56189000E-02	 4.44650000E-03
					 2.97410000E-03	 9.42092000E-02	 9.87139000E-03
					 3.03828000E-03	 8.19853000E-02	 9.74431000E-03
					 1.49628000E-03	 9.26337000E-02	 4.53194000E-03
					 3.62052000E-06	 8.95400000E-02	-7.05430000E-04
					-3.04203000E-03	 8.94364000E-02	-1.13861000E-02
					-1.48572000E-06	 9.10580000E-02	-7.44183000E-04
					-3.02739000E-03	 9.09530000E-02	-1.14482000E-02
					-1.03084000E-05	 7.87060000E-02	-5.92412000E-04
					-1.51937000E-03	 8.94845000E-02	-5.99885000E-03
					-3.17873000E-03	 7.86325000E-02	-1.09989000E-02
					 3.04993000E-03	 8.96851000E-02	 9.97380000E-03
					 3.02495000E-03	 9.12034000E-02	 9.95836000E-03
					 3.15754000E-03	 7.88730000E-02	 9.81154000E-03
					 1.52673000E-03	 8.96069000E-02	 4.58765000E-03
					-5.00310000E-07	 1.17044000E-01	-1.07419000E-03
					-2.93932000E-03	 1.16902000E-01	-1.16216000E-02
					 9.51381000E-06	 1.14131000E-01	-1.00507000E-03
					-2.88172000E-03	 1.13987000E-01	-1.15538000E-02
					-7.74515000E-06	 1.06401000E-01	-9.67513000E-04
					-1.46853000E-03	 1.16980000E-01	-6.35926000E-03
					-2.98772000E-03	 1.06276000E-01	-1.16490000E-02
					 4.57008000E-06	 1.15581000E-01	-1.03969000E-03
					-2.91047000E-03	 1.15437000E-01	-1.15762000E-02
					 2.92133000E-06	 1.03437000E-01	-8.95129000E-04
					-1.43579000E-03	 1.14067000E-01	-6.28038000E-03
					-2.95178000E-03	 1.03308000E-01	-1.15867000E-02
					 2.93875000E-03	 1.17144000E-01	 9.47347000E-03
					 2.90130000E-03	 1.14229000E-01	 9.54430000E-03
					 2.97307000E-03	 1.06527000E-01	 9.71323000E-03
					 1.46760000E-03	 1.17101000E-01	 4.21104000E-03
					 2.92005000E-03	 1.15679000E-01	 9.49716000E-03
					 2.95842000E-03	 1.03557000E-01	 9.79612000E-03
					 1.45490000E-03	 1.14188000E-01	 4.27034000E-03
					 1.88629000E-05	 1.11261000E-01	-9.37458000E-04
					-2.82354000E-03	 1.11122000E-01	-1.14877000E-02
					 1.43279000E-05	 1.12689000E-01	-9.70797000E-04
					-2.85224000E-03	 1.12546000E-01	-1.15302000E-02
					 1.28466000E-05	 1.00491000E-01	-8.23182000E-04
					-1.40350000E-03	 1.11199000E-01	-6.20379000E-03
					-2.91870000E-03	 1.00366000E-01	-1.15051000E-02
					 2.86193000E-03	 1.11361000E-01	 9.61351000E-03
					 2.88157000E-03	 1.12787000E-01	 9.58943000E-03
					 2.94530000E-03	 1.00613000E-01	 9.85840000E-03
					 1.44133000E-03	 1.11318000E-01	 4.32889000E-03
					 1.68444000E-05	 1.37745000E-01	-1.28501000E-03
					-2.79226000E-03	 1.37617000E-01	-1.16643000E-02
					 2.37877000E-05	 1.34937000E-01	-1.21762000E-03
					-2.78434000E-03	 1.34814000E-01	-1.15969000E-02
					 7.44114000E-06	 1.27417000E-01	-1.17884000E-03
					-1.38750000E-03	 1.37680000E-01	-6.48756000E-03
					-2.85005000E-03	 1.27289000E-01	-1.16080000E-02
					 2.04408000E-05	 1.36340000E-01	-1.25107000E-03
					-2.78882000E-03	 1.36214000E-01	-1.16238000E-02
					 1.60843000E-05	 1.24573000E-01	-1.11117000E-03
					-1.38136000E-03	 1.34875000E-01	-6.41524000E-03
					-2.81474000E-03	 1.24446000E-01	-1.15387000E-02
					 2.82457000E-03	 1.37848000E-01	 9.09561000E-03
					 2.83156000E-03	 1.35047000E-01	 9.16277000E-03
					 2.86413000E-03	 1.27523000E-01	 9.25093000E-03
					 1.42093000E-03	 1.37797000E-01	 3.91811000E-03
					 2.82866000E-03	 1.36447000E-01	 9.12280000E-03
					 2.84680000E-03	 1.24681000E-01	 9.31708000E-03
					 1.42886000E-03	 1.34992000E-01	 3.98044000E-03
					 3.06074000E-05	 1.32142000E-01	-1.15235000E-03
					-2.77062000E-03	 1.32022000E-01	-1.15436000E-02
					 2.70252000E-05	 1.33541000E-01	-1.18479000E-03
					-2.77691000E-03	 1.33418000E-01	-1.15699000E-02
					 2.43678000E-05	 1.21756000E-01	-1.04555000E-03
					-1.37211000E-03	 1.32081000E-01	-6.35633000E-03
					-2.77848000E-03	 1.21632000E-01	-1.14828000E-02
					 2.83247000E-03	 1.32255000E-01	 9.23982000E-03
					 2.83125000E-03	 1.33651000E-01	 9.20127000E-03
					 2.82771000E-03	 1.21867000E-01	 9.39244000E-03
					 1.43352000E-03	 1.32199000E-01	 4.05200000E-03
					 0.00000000E+00	 0.00000000E+00	 0.00000000E+00
					 0.00000000E+00	 0.00000000E+00	 0.00000000E+00
					 2.77909000E-05	-1.10447000E-02	-2.48321000E-04
					-1.15752000E-03	-1.17033000E-02	 9.85938000E-03
					 0.00000000E+00	 0.00000000E+00	 0.00000000E+00
					 0.00000000E+00	 0.00000000E+00	 0.00000000E+00
					-1.65140000E-06	-1.15616000E-02	-2.66954000E-04
					 1.16334000E-04	-1.22701000E-02	 9.95857000E-03
					 0.00000000E+00	 0.00000000E+00	 0.00000000E+00
					 3.58347000E-05	-2.52129000E-03	-9.38093000E-05
					-5.65632000E-04	-1.11424000E-02	 4.66809000E-03
					-1.43225000E-03	-3.38460000E-03	 5.06239000E-03
					 0.00000000E+00	 0.00000000E+00	 0.00000000E+00
					 0.00000000E+00	 0.00000000E+00	 0.00000000E+00
					 1.36285000E-05	-1.15230000E-02	-2.60701000E-04
					-5.10675000E-04	-1.22088000E-02	 9.91984000E-03
					 0.00000000E+00	 0.00000000E+00	 0.00000000E+00
					 4.71297000E-07	-3.12810000E-03	-9.89571000E-05
					 5.60003000E-05	-1.16767000E-02	 4.71417000E-03
					 7.20397000E-05	-4.00491000E-03	 4.91959000E-03
					 0.00000000E+00	 0.00000000E+00	 0.00000000E+00
					 1.19477000E-03	-1.15181000E-02	-1.03900000E-02
					 0.00000000E+00	 0.00000000E+00	 0.00000000E+00
					-1.18460000E-04	-1.20786000E-02	-1.05322000E-02
					 0.00000000E+00	 0.00000000E+00	 0.00000000E+00
					 1.49290000E-03	-3.35069000E-03	-5.26989000E-03
					 6.14295000E-04	-1.10516000E-02	-5.17337000E-03
					 0.00000000E+00	 0.00000000E+00	 0.00000000E+00
					 5.31530000E-04	-1.20150000E-02	-1.04789000E-02
					 0.00000000E+00	 0.00000000E+00	 0.00000000E+00
					-7.04305000E-05	-3.97406000E-03	-5.13415000E-03
					-6.02780000E-05	-1.15806000E-02	-5.26030000E-03
					 0.00000000E+00	 0.00000000E+00	 0.00000000E+00
					 0.00000000E+00	 0.00000000E+00	 0.00000000E+00
					-3.20616000E-05	-1.08087000E-02	-2.55467000E-04
					 1.39003000E-03	-1.14680000E-02	 9.85258000E-03
					 0.00000000E+00	 0.00000000E+00	 0.00000000E+00
					 0.00000000E+00	 0.00000000E+00	 0.00000000E+00
					-1.70772000E-05	-1.14058000E-02	-2.65833000E-04
					 7.43163000E-04	-1.20838000E-02	 9.89900000E-03
					 0.00000000E+00	 0.00000000E+00	 0.00000000E+00
					-3.54942000E-05	-2.37809000E-03	-9.58263000E-05
					 6.81162000E-04	-1.09081000E-02	 4.67645000E-03
					 1.56960000E-03	-3.24703000E-03	 5.05996000E-03
					 0.00000000E+00	 0.00000000E+00	 0.00000000E+00
					-1.43789000E-03	-1.12805000E-02	-1.03986000E-02
					 0.00000000E+00	 0.00000000E+00	 0.00000000E+00
					-7.71587000E-04	-1.18966000E-02	-1.04679000E-02
					 0.00000000E+00	 0.00000000E+00	 0.00000000E+00
					-1.63133000E-03	-3.21255000E-03	-5.27293000E-03
					-7.38560000E-04	-1.08153000E-02	-5.19740000E-03
					 4.33782000E-06	-4.07402000E-02	-8.56396000E-04
					-9.17411000E-04	-4.14948000E-02	 1.68468000E-02
					-2.16389000E-05	-4.12085000E-02	-9.02985000E-04
					-3.43838000E-05	-4.19498000E-02	 1.68399000E-02
					 2.38637000E-05	-2.40317000E-02	-4.98022000E-04
					-4.60771000E-04	-4.10171000E-02	 7.91836000E-03
					-9.96923000E-04	-2.48196000E-02	 1.37637000E-02
					-8.13146000E-06	-4.10763000E-02	-8.83991000E-04
					-4.74668000E-04	-4.18185000E-02	 1.68411000E-02
					-7.96302000E-06	-2.44946000E-02	-5.26392000E-04
					-2.15842000E-05	-4.14797000E-02	 7.89278000E-03
					 9.68425000E-05	-2.52692000E-02	 1.37873000E-02
					 9.27382000E-04	-4.08946000E-02	-1.86009000E-02
					-9.29351000E-06	-4.13642000E-02	-1.86873000E-02
					 1.03240000E-03	-2.44441000E-02	-1.48080000E-02
					 4.68594000E-04	-4.07229000E-02	-9.64213000E-03
					 4.61114000E-04	-4.12289000E-02	-1.86468000E-02
					-1.10948000E-04	-2.48935000E-02	-1.48891000E-02
					-1.72956000E-05	-4.11924000E-02	-9.70591000E-03
					-5.83947000E-05	-4.07633000E-02	-9.15417000E-04
					 8.85012000E-04	-4.14650000E-02	 1.67860000E-02
					-3.95877000E-05	-4.10821000E-02	-9.13423000E-04
					 4.28065000E-04	-4.18414000E-02	 1.68558000E-02
					-4.35559000E-05	-2.38252000E-02	-5.21629000E-04
					 4.03545000E-04	-4.10081000E-02	 7.81478000E-03
					 1.20959000E-03	-2.45828000E-02	 1.37399000E-02
					-9.67938000E-04	-4.09094000E-02	-1.86591000E-02
					-4.90045000E-04	-4.12396000E-02	-1.87280000E-02
					-1.27151000E-03	-2.42265000E-02	-1.48303000E-02
					-5.10386000E-04	-4.07383000E-02	-9.65103000E-03
					-8.26799000E-05	-8.19667000E-02	-1.85027000E-03
					-1.43330000E-03	-8.27181000E-02	 2.07807000E-02
					-1.04131000E-04	-8.30019000E-02	-1.96254000E-03
					-8.62111000E-04	-8.38419000E-02	 2.06990000E-02
					-2.61188000E-05	-6.02487000E-02	-1.30841000E-03
					-7.57041000E-04	-8.22671000E-02	 9.46893000E-03
					-1.04572000E-03	-6.10336000E-02	 1.91267000E-02
					-9.05198000E-05	-8.25638000E-02	-1.90564000E-03
					-1.14818000E-03	-8.33663000E-02	 2.06631000E-02
					-5.19397000E-05	-6.09045000E-02	-1.38484000E-03
					-5.07313000E-04	-8.33476000E-02	 9.28593000E-03
					-3.36798000E-04	-6.16769000E-02	 1.90916000E-02
					 1.23747000E-03	-8.17712000E-02	-2.44932000E-02
					 6.61285000E-04	-8.28175000E-02	-2.46704000E-02
					 9.90161000E-04	-6.02370000E-02	-2.17792000E-02
					 5.80586000E-04	-8.17963000E-02	-1.31663000E-02
					 9.49023000E-04	-8.23652000E-02	-2.45137000E-02
					 2.41967000E-04	-6.08779000E-02	-2.18969000E-02
					 2.77890000E-04	-8.28438000E-02	-1.32375000E-02
					-1.42527000E-04	-8.34678000E-02	-2.04904000E-03
					-3.82886000E-04	-8.44051000E-02	 2.05776000E-02
					-1.21590000E-04	-8.33215000E-02	-2.01223000E-03
					-6.23230000E-04	-8.40873000E-02	 2.07496000E-02
					-8.04117000E-05	-6.08171000E-02	-1.42995000E-03
					-2.33964000E-04	-8.38623000E-02	 9.06448000E-03
					 3.60022000E-04	-6.15957000E-02	 1.90083000E-02
					 6.54500000E-05	-8.33131000E-02	-2.47492000E-02
					 3.64158000E-04	-8.31305000E-02	-2.48241000E-02
					-5.49201000E-04	-6.07865000E-02	-2.19067000E-02
					-4.70931000E-05	-8.33365000E-02	-1.32116000E-02
					-2.19303000E-04	-1.29883000E-01	-3.12652000E-03
					-2.70812000E-03	-1.30557000E-01	 2.22512000E-02