# vtk DataFile Version 3.0

ASCII
DATASET UNSTRUCTURED_GRID

POINTS 522 double
	 1.00000000E+00	 1.00000000E+00	-5.96046000E-08
	 1.00000000E+00	 5.00000000E-01	-5.96046000E-08
	 1.00000000E+00	 5.00000000E-01	 1.00000000E+00
	 1.00000000E+00	 1.00000000E+00	 1.00000000E+00
	 5.00000000E-01	 1.00000000E+00	-5.96046000E-08
	 5.00000000E-01	 5.00000000E-01	-5.96046000E-08
	 5.00000000E-01	 5.00000000E-01	 1.00000000E+00
	 5.00000000E-01	 1.00000000E+00	 1.00000000E+00
	 1.00000000E+00	 7.50000000E-01	-5.96046000E-08
	 1.00000000E+00	 5.00000000E-01	 5.00000000E-01
	 1.00000000E+00	 7.50000000E-01	 1.00000000E+00
	 1.00000000E+00	 1.00000000E+00	 5.00000000E-01
	 7.50000000E-01	 1.00000000E+00	-5.96046000E-08
	 7.50000000E-01	 5.00000000E-01	-5.96046000E-08
	 7.50000000E-01	 5.00000000E-01	 1.00000000E+00
	 7.50000000E-01	 1.00000000E+00	 1.00000000E+00
	 5.00000000E-01	 7.50000000E-01	-5.96046000E-08
	 5.00000000E-01	 5.00000000E-01	 5.00000000E-01
	 5.00000000E-01	 7.50000000E-01	 1.00000000E+00
	 5.00000000E-01	 1.00000000E+00	 5.00000000E-01
	 1.00000000E+00	-1.49012000E-08	-5.96046000E-08
	 1.00000000E+00	-1.49012000E-08	 1.00000000E+00
	 5.00000000E-01	-1.49012000E-08	-5.96046000E-08
	 5.00000000E-01	-1.49012000E-08	 1.00000000E+00
	 1.00000000E+00	 2.50000000E-01	-5.96046000E-08
	 1.00000000E+00	-1.49012000E-08	 5.00000000E-01
	 1.00000000E+00	 2.50000000E-01	 1.00000000E+00
	 7.50000000E-01	-1.49012000E-08	-5.96046000E-08
	 7.50000000E-01	-1.49012000E-08	 1.00000000E+00
	 5.00000000E-01	 2.50000000E-01	-5.96046000E-08
	 5.00000000E-01	-1.49012000E-08	 5.00000000E-01
	 5.00000000E-01	 2.50000000E-01	 1.00000000E+00
	-7.45058000E-09	 1.00000000E+00	-5.96046000E-08
	-7.45058000E-09	 5.00000000E-01	-5.96046000E-08
	-7.45058000E-09	 5.00000000E-01	 1.00000000E+00
	-7.45058000E-09	 1.00000000E+00	 1.00000000E+00
	 2.50000000E-01	 1.00000000E+00	-5.96046000E-08
	 2.50000000E-01	 5.00000000E-01	-5.96046000E-08
	 2.50000000E-01	 5.00000000E-01	 1.00000000E+00
	 2.50000000E-01	 1.00000000E+00	 1.00000000E+00
	-7.45058000E-09	 7.50000000E-01	-5.96046000E-08
	-7.45058000E-09	 5.00000000E-01	 5.00000000E-01
	-7.45058000E-09	 7.50000000E-01	 1.00000000E+00
	-7.45058000E-09	 1.00000000E+00	 5.00000000E-01
	-7.45058000E-09	-1.49012000E-08	-5.96046000E-08
	-7.45058000E-09	-1.49012000E-08	 1.00000000E+00
	 2.50000000E-01	-1.49012000E-08	-5.96046000E-08
	 2.50000000E-01	-1.49012000E-08	 1.00000000E+00
	-7.45058000E-09	 2.50000000E-01	-5.96046000E-08
	-7.45058000E-09	-1.49012000E-08	 5.00000000E-01
	-7.45058000E-09	 2.50000000E-01	 1.00000000E+00
	 1.00000000E+00	 5.00000000E-01	 2.00000000E+00
	 1.00000000E+00	 1.00000000E+00	 2.00000000E+00
	 5.00000000E-01	 5.00000000E-01	 2.00000000E+00
	 5.00000000E-01	 1.00000000E+00	 2.00000000E+00
	 1.00000000E+00	 5.00000000E-01	 1.50000000E+00
	 1.00000000E+00	 7.50000000E-01	 2.00000000E+00
	 1.00000000E+00	 1.00000000E+00	 1.50000000E+00
	 7.50000000E-01	 5.00000000E-01	 2.00000000E+00
	 7.50000000E-01	 1.00000000E+00	 2.00000000E+00
	 5.00000000E-01	 5.00000000E-01	 1.50000000E+00
	 5.00000000E-01	 7.50000000E-01	 2.00000000E+00
	 5.00000000E-01	 1.00000000E+00	 1.50000000E+00
	 1.00000000E+00	-1.49012000E-08	 2.00000000E+00
	 5.00000000E-01	-1.49012000E-08	 2.00000000E+00
	 1.00000000E+00	-1.49012000E-08	 1.50000000E+00
	 1.00000000E+00	 2.50000000E-01	 2.00000000E+00
	 7.50000000E-01	-1.49012000E-08	 2.00000000E+00
	 5.00000000E-01	-1.49012000E-08	 1.50000000E+00
	 5.00000000E-01	 2.50000000E-01	 2.00000000E+00
	-7.45058000E-09	 5.00000000E-01	 2.00000000E+00
	-7.45058000E-09	 1.00000000E+00	 2.00000000E+00
	 2.50000000E-01	 5.00000000E-01	 2.00000000E+00
	 2.50000000E-01	 1.00000000E+00	 2.00000000E+00
	-7.45058000E-09	 5.00000000E-01	 1.50000000E+00
	-7.45058000E-09	 7.50000000E-01	 2.00000000E+00
	-7.45058000E-09	 1.00000000E+00	 1.50000000E+00
	-7.45058000E-09	-1.49012000E-08	 2.00000000E+00
	 2.50000000E-01	-1.49012000E-08	 2.00000000E+00
	-7.45058000E-09	-1.49012000E-08	 1.50000000E+00
	-7.45058000E-09	 2.50000000E-01	 2.00000000E+00
	 1.00000000E+00	 5.00000000E-01	 3.00000000E+00
	 1.00000000E+00	 1.00000000E+00	 3.00000000E+00
	 5.00000000E-01	 5.00000000E-01	 3.00000000E+00
	 5.00000000E-01	 1.00000000E+00	 3.00000000E+00
	 1.00000000E+00	 5.00000000E-01	 2.50000000E+00
	 1.00000000E+00	 7.50000000E-01	 3.00000000E+00
	 1.00000000E+00	 1.00000000E+00	 2.50000000E+00
	 7.50000000E-01	 5.00000000E-01	 3.00000000E+00
	 7.50000000E-01	 1.00000000E+00	 3.00000000E+00
	 5.00000000E-01	 5.00000000E-01	 2.50000000E+00
	 5.00000000E-01	 7.50000000E-01	 3.00000000E+00
	 5.00000000E-01	 1.00000000E+00	 2.50000000E+00
	 1.00000000E+00	-1.49012000E-08	 3.00000000E+00
	 5.00000000E-01	-1.49012000E-08	 3.00000000E+00
	 1.00000000E+00	-1.49012000E-08	 2.50000000E+00
	 1.00000000E+00	 2.50000000E-01	 3.00000000E+00
	 7.50000000E-01	-1.49012000E-08	 3.00000000E+00
	 5.00000000E-01	-1.49012000E-08	 2.50000000E+00
	 5.00000000E-01	 2.50000000E-01	 3.00000000E+00
	-7.45058000E-09	 5.00000000E-01	 3.00000000E+00
	-7.45058000E-09	 1.00000000E+00	 3.00000000E+00
	 2.50000000E-01	 5.00000000E-01	 3.00000000E+00
	 2.50000000E-01	 1.00000000E+00	 3.00000000E+00
	-7.45058000E-09	 5.00000000E-01	 2.50000000E+00
	-7.45058000E-09	 7.50000000E-01	 3.00000000E+00
	-7.45058000E-09	 1.00000000E+00	 2.50000000E+00
	-7.45058000E-09	-1.49012000E-08	 3.00000000E+00
	 2.50000000E-01	-1.49012000E-08	 3.00000000E+00
	-7.45058000E-09	-1.49012000E-08	 2.50000000E+00
	-7.45058000E-09	 2.50000000E-01	 3.00000000E+00
	 1.00000000E+00	 5.00000000E-01	 4.00000000E+00
	 1.00000000E+00	 1.00000000E+00	 4.00000000E+00
	 5.00000000E-01	 5.00000000E-01	 4.00000000E+00
	 5.00000000E-01	 1.00000000E+00	 4.00000000E+00
	 1.00000000E+00	 5.00000000E-01	 3.50000000E+00
	 1.00000000E+00	 7.50000000E-01	 4.00000000E+00
	 1.00000000E+00	 1.00000000E+00	 3.50000000E+00
	 7.50000000E-01	 5.00000000E-01	 4.00000000E+00
	 7.50000000E-01	 1.00000000E+00	 4.00000000E+00
	 5.00000000E-01	 5.00000000E-01	 3.50000000E+00
	 5.00000000E-01	 7.50000000E-01	 4.00000000E+00
	 5.00000000E-01	 1.00000000E+00	 3.50000000E+00
	 1.00000000E+00	-1.49012000E-08	 4.00000000E+00
	 5.00000000E-01	-1.49012000E-08	 4.00000000E+00
	 1.00000000E+00	-1.49012000E-08	 3.50000000E+00
	 1.00000000E+00	 2.50000000E-01	 4.00000000E+00
	 7.50000000E-01	-1.49012000E-08	 4.00000000E+00
	 5.00000000E-01	-1.49012000E-08	 3.50000000E+00
	 5.00000000E-01	 2.50000000E-01	 4.00000000E+00
	-7.45058000E-09	 5.00000000E-01	 4.00000000E+00
	-7.45058000E-09	 1.00000000E+00	 4.00000000E+00
	 2.50000000E-01	 5.00000000E-01	 4.00000000E+00
	 2.50000000E-01	 1.00000000E+00	 4.00000000E+00
	-7.45058000E-09	 5.00000000E-01	 3.50000000E+00
	-7.45058000E-09	 7.50000000E-01	 4.00000000E+00
	-7.45058000E-09	 1.00000000E+00	 3.50000000E+00
	-7.45058000E-09	-1.49012000E-08	 4.00000000E+00
	 2.50000000E-01	-1.49012000E-08	 4.00000000E+00
	-7.45058000E-09	-1.49012000E-08	 3.50000000E+00
	-7.45058000E-09	 2.50000000E-01	 4.00000000E+00
	 1.00000000E+00	 5.00000000E-01	 5.00000000E+00
	 1.00000000E+00	 1.00000000E+00	 5.00000000E+00
	 5.00000000E-01	 5.00000000E-01	 5.00000000E+00
	 5.00000000E-01	 1.00000000E+00	 5.00000000E+00
	 1.00000000E+00	 5.00000000E-01	 4.50000000E+00
	 1.00000000E+00	 7.50000000E-01	 5.00000000E+00
	 1.00000000E+00	 1.00000000E+00	 4.50000000E+00
	 7.50000000E-01	 5.00000000E-01	 5.00000000E+00
	 7.50000000E-01	 1.00000000E+00	 5.00000000E+00
	 5.00000000E-01	 5.00000000E-01	 4.50000000E+00
	 5.00000000E-01	 7.50000000E-01	 5.00000000E+00
	 5.00000000E-01	 1.00000000E+00	 4.50000000E+00
	 1.00000000E+00	-1.49012000E-08	 5.00000000E+00
	 5.00000000E-01	-1.49012000E-08	 5.00000000E+00
	 1.00000000E+00	-1.49012000E-08	 4.50000000E+00
	 1.00000000E+00	 2.50000000E-01	 5.00000000E+00
	 7.50000000E-01	-1.49012000E-08	 5.00000000E+00
	 5.00000000E-01	-1.49012000E-08	 4.50000000E+00
	 5.00000000E-01	 2.50000000E-01	 5.00000000E+00
	-7.45058000E-09	 5.00000000E-01	 5.00000000E+00
	-7.45058000E-09	 1.00000000E+00	 5.00000000E+00
	 2.50000000E-01	 5.00000000E-01	 5.00000000E+00
	 2.50000000E-01	 1.00000000E+00	 5.00000000E+00
	-7.45058000E-09	 5.00000000E-01	 4.50000000E+00
	-7.45058000E-09	 7.50000000E-01	 5.00000000E+00
	-7.45058000E-09	 1.00000000E+00	 4.50000000E+00
	-7.45058000E-09	-1.49012000E-08	 5.00000000E+00
	 2.50000000E-01	-1.49012000E-08	 5.00000000E+00
	-7.45058000E-09	-1.49012000E-08	 4.50000000E+00
	-7.45058000E-09	 2.50000000E-01	 5.00000000E+00
	 1.00000000E+00	 5.00000000E-01	 6.00000000E+00
	 1.00000000E+00	 1.00000000E+00	 6.00000000E+00
	 5.00000000E-01	 5.00000000E-01	 6.00000000E+00
	 5.00000000E-01	 1.00000000E+00	 6.00000000E+00
	 1.00000000E+00	 5.00000000E-01	 5.50000000E+00
	 1.00000000E+00	 7.50000000E-01	 6.00000000E+00
	 1.00000000E+00	 1.00000000E+00	 5.50000000E+00
	 7.50000000E-01	 5.00000000E-01	 6.00000000E+00
	 7.50000000E-01	 1.00000000E+00	 6.00000000E+00
	 5.00000000E-01	 5.00000000E-01	 5.50000000E+00
	 5.00000000E-01	 7.50000000E-01	 6.00000000E+00
	 5.00000000E-01	 1.00000000E+00	 5.50000000E+00
	 1.00000000E+00	-1.49012000E-08	 6.00000000E+00
	 5.00000000E-01	-1.49012000E-08	 6.00000000E+00
	 1.00000000E+00	-1.49012000E-08	 5.50000000E+00
	 1.00000000E+00	 2.50000000E-01	 6.00000000E+00
	 7.50000000E-01	-1.49012000E-08	 6.00000000E+00
	 5.00000000E-01	-1.49012000E-08	 5.50000000E+00
	 5.00000000E-01	 2.50000000E-01	 6.00000000E+00
	-7.45058000E-09	 5.00000000E-01	 6.00000000E+00
	-7.45058000E-09	 1.00000000E+00	 6.00000000E+00
	 2.50000000E-01	 5.00000000E-01	 6.00000000E+00
	 2.50000000E-01	 1.00000000E+00	 6.00000000E+00
	-7.45058000E-09	 5.00000000E-01	 5.50000000E+00
	-7.45058000E-09	 7.50000000E-01	 6.00000000E+00
	-7.45058000E-09	 1.00000000E+00	 5.50000000E+00
	-7.45058000E-09	-1.49012000E-08	 6.00000000E+00
	 2.50000000E-01	-1.49012000E-08	 6.00000000E+00
	-7.45058000E-09	-1.49012000E-08	 5.50000000E+00
	-7.45058000E-09	 2.50000000E-01	 6.00000000E+00
	 1.00000000E+00	 5.00000000E-01	 7.00000000E+00
[...]
POINT_DATA 522
FIELD U 1
	U 3 522 double
		 0.00000000E+00	 0.00000000E+00	 0.00000000E+00
		 0.00000000E+00	 0.00000000E+00	 0.00000000E+00
		 4.23401000E-05	 1.82972000E-03	 1.16269000E-04
		 9.95613000E-05	 2.03596000E-03	-2.57388000E-03
		 0.00000000E+00	 0.00000000E+00	 0.00000000E+00
		 0.00000000E+00	 0.00000000E+00	 0.00000000E+00
		 6.78083000E-06	 1.65062000E-03	 1.01477000E-04
		-4.03592000E-04	 1.88678000E-03	-2.58499000E-03
		 0.00000000E+00	 0.00000000E+00	 0.00000000E+00
		-1.75002000E-05	 1.19237000E-04	 5.85224000E-05
		 4.97269000E-05	 1.86395000E-03	-1.23790000E-03
		 2.37805000E-04	 3.12185000E-04	-1.07957000E-03
		 0.00000000E+00	 0.00000000E+00	 0.00000000E+00
		 0.00000000E+00	 0.00000000E+00	 0.00000000E+00
		 2.67546000E-05	 1.85097000E-03	 1.01332000E-04
		-1.59442000E-04	 2.06376000E-03	-2.63248000E-03
		 0.00000000E+00	 0.00000000E+00	 0.00000000E+00
		-1.30471000E-06	 1.35362000E-04	 5.22453000E-05
		-2.22250000E-04	 1.68793000E-03	-1.28661000E-03
		-1.70391000E-04	 3.65607000E-04	-1.01599000E-03
		 0.00000000E+00	 0.00000000E+00	 0.00000000E+00
		-1.44820000E-04	 1.94982000E-03	 2.72309000E-03
		 0.00000000E+00	 0.00000000E+00	 0.00000000E+00
		 3.94024000E-04	 1.95576000E-03	 2.78297000E-03
		 0.00000000E+00	 0.00000000E+00	 0.00000000E+00
		-2.73189000E-04	 3.54541000E-04	 1.16843000E-03
		-3.23599000E-05	 1.82459000E-03	 1.41095000E-03
		 0.00000000E+00	 0.00000000E+00	 0.00000000E+00
		 1.44634000E-04	 2.08816000E-03	 2.79313000E-03
		 0.00000000E+00	 0.00000000E+00	 0.00000000E+00
		 1.78724000E-04	 3.67010000E-04	 1.12127000E-03
		 2.08776000E-04	 1.72902000E-03	 1.47376000E-03
		 0.00000000E+00	 0.00000000E+00	 0.00000000E+00
		 0.00000000E+00	 0.00000000E+00	 0.00000000E+00
		-5.59764000E-05	 1.02515000E-03	 1.07687000E-04
		-9.50570000E-04	 1.24455000E-03	-2.61218000E-03
		 0.00000000E+00	 0.00000000E+00	 0.00000000E+00
		 0.00000000E+00	 0.00000000E+00	 0.00000000E+00
		-2.25808000E-05	 1.41494000E-03	 8.80636000E-05
		-6.78513000E-04	 1.64598000E-03	-2.51116000E-03
		 0.00000000E+00	 0.00000000E+00	 0.00000000E+00
		 1.32797000E-06	-2.28213000E-04	 6.40386000E-05
		-4.96519000E-04	 1.05718000E-03	-1.40160000E-03
		-5.53637000E-04	 3.80891000E-06	-1.06934000E-03
		 0.00000000E+00	 0.00000000E+00	 0.00000000E+00
		 9.11482000E-04	 1.21372000E-03	 2.68829000E-03
		 0.00000000E+00	 0.00000000E+00	 0.00000000E+00
		 6.45164000E-04	 1.66618000E-03	 2.65844000E-03
		 0.00000000E+00	 0.00000000E+00	 0.00000000E+00
		 5.66192000E-04	 4.68191000E-05	 1.16103000E-03
		 4.62968000E-04	 1.04447000E-03	 1.50952000E-03
		 2.54890000E-05	 1.20971000E-02	-4.12366000E-06
		-1.15474000E-03	 1.23970000E-02	-6.43139000E-03
		 9.02618000E-06	 1.06624000E-02	-7.14389000E-05
		-1.66369000E-03	 1.09375000E-02	-6.43961000E-03
		 3.20850000E-05	 5.91368000E-03	 7.07778000E-05
		-5.67879000E-04	 1.21861000E-02	-3.08993000E-03
		-4.14631000E-04	 6.16384000E-03	-4.47984000E-03
		 2.50077000E-05	 1.14446000E-02	-3.28637000E-05
		-1.40603000E-03	 1.17034000E-02	-6.53898000E-03
		-1.33758000E-05	 5.19659000E-03	 2.72487000E-05
		-8.17258000E-04	 1.07362000E-02	-3.21789000E-03
		-9.98438000E-04	 5.47219000E-03	-4.49268000E-03
		 1.07827000E-03	 1.22626000E-02	 6.42690000E-03
		 1.65398000E-03	 1.10612000E-02	 6.36964000E-03
		 4.03863000E-04	 6.16463000E-03	 4.58646000E-03
		 5.58798000E-04	 1.21044000E-02	 3.06707000E-03
		 1.35937000E-03	 1.17394000E-02	 6.48076000E-03
		 9.97805000E-04	 5.47115000E-03	 4.55265000E-03
		 8.31258000E-04	 1.08024000E-02	 3.14288000E-03
		-1.97783000E-05	 8.79399000E-03	-1.98544000E-05
		-2.21251000E-03	 9.02031000E-03	-6.43219000E-03
		-9.29700000E-06	 9.82665000E-03	-2.82072000E-05
		-1.93462000E-03	 1.00423000E-02	-6.36819000E-03
		-3.47420000E-05	 3.90833000E-03	 5.59295000E-05
		-1.10123000E-03	 8.85131000E-03	-3.26389000E-03
		-1.59302000E-03	 4.17365000E-03	-4.50658000E-03
		 2.25553000E-03	 8.96519000E-03	 6.40842000E-03
		 1.95013000E-03	 1.01082000E-02	 6.29092000E-03
		 1.55440000E-03	 4.20498000E-03	 4.58591000E-03
		 1.08246000E-03	 8.82057000E-03	 3.24480000E-03
		-1.69995000E-05	 2.89586000E-02	-1.99599000E-04
		-1.84023000E-03	 2.91818000E-02	-9.66729000E-03
		-2.08098000E-05	 2.71337000E-02	-1.71724000E-04
		-2.06454000E-03	 2.72055000E-02	-9.69894000E-03
		-9.29874000E-06	 1.98935000E-02	-9.56753000E-05
		-8.60772000E-04	 2.90046000E-02	-4.96655000E-03
		-1.60241000E-03	 2.01486000E-02	-8.12543000E-03
		-2.35330000E-05	 2.80746000E-02	-1.90476000E-04
		-1.94202000E-03	 2.81863000E-02	-9.64674000E-03
		-6.88517000E-06	 1.81320000E-02	-1.26902000E-04
		-1.03216000E-03	 2.71160000E-02	-4.88853000E-03
		-1.99237000E-03	 1.82946000E-02	-8.18600000E-03
		 1.69519000E-03	 2.92711000E-02	 9.24032000E-03
		 2.03258000E-03	 2.74468000E-02	 9.30028000E-03
		 1.55730000E-03	 2.02357000E-02	 7.94122000E-03
		 8.00364000E-04	 2.90553000E-02	 4.52866000E-03
		 1.85541000E-03	 2.83631000E-02	 9.24693000E-03
		 1.96141000E-03	 1.84162000E-02	 7.98452000E-03
		 9.94303000E-04	 2.72449000E-02	 4.53337000E-03
		 1.34242000E-05	 2.48787000E-02	-1.70513000E-04
		-2.49227000E-03	 2.48734000E-02	-9.62514000E-03
		-5.25524000E-06	 2.60429000E-02	-1.80612000E-04
		-2.25930000E-03	 2.61493000E-02	-9.71380000E-03
		-4.58723000E-06	 1.59342000E-02	-9.55885000E-05
		-1.19083000E-03	 2.48402000E-02	-4.83264000E-03
		-2.51035000E-03	 1.60453000E-02	-8.09576000E-03
		 2.46001000E-03	 2.50362000E-02	 9.28728000E-03
		 2.23063000E-03	 2.63434000E-02	 9.34376000E-03
		 2.52703000E-03	 1.61731000E-02	 7.92913000E-03
		 1.17809000E-03	 2.49148000E-02	 4.49956000E-03
		-1.43714000E-05	 4.98513000E-02	-5.07945000E-04
		-9.54422000E-04	 4.97805000E-02	-1.21418000E-02
		-6.32944000E-05	 4.87207000E-02	-3.94391000E-04
		-1.30303000E-03	 4.86959000E-02	-1.21342000E-02
		-3.65663000E-05	 3.88957000E-02	-3.47827000E-04
		-5.00055000E-04	 4.97769000E-02	-6.34267000E-03
		-1.46270000E-03	 3.89893000E-02	-1.09720000E-02
		-4.25136000E-05	 4.93309000E-02	-4.40731000E-04
		-1.11785000E-03	 4.92927000E-02	-1.20969000E-02
		-4.28883000E-05	 3.73614000E-02	-2.66430000E-04
		-6.92445000E-04	 4.86864000E-02	-6.25881000E-03
		-1.75710000E-03	 3.73986000E-02	-1.09558000E-02
		 8.67282000E-04	 5.00756000E-02	 1.11950000E-02
		 1.19260000E-03	 4.89770000E-02	 1.12429000E-02
		 1.32312000E-03	 3.91660000E-02	 1.03275000E-02
		 4.32259000E-04	 4.99379000E-02	 5.38782000E-03
		 1.04127000E-03	 4.95863000E-02	 1.11480000E-02
		 1.62313000E-03	 3.76467000E-02	 1.03581000E-02
		 5.81250000E-04	 4.88076000E-02	 5.38185000E-03
		-8.54833000E-05	 4.73179000E-02	-4.12282000E-04
		-1.54921000E-03	 4.74169000E-02	-1.20689000E-02
		-7.21618000E-05	 4.80702000E-02	-4.02271000E-04
		-1.44483000E-03	 4.80613000E-02	-1.21829000E-02
		-4.21133000E-05	 3.54960000E-02	-2.85481000E-04
		-8.47758000E-04	 4.73232000E-02	-6.11814000E-03
		-2.09742000E-03	 3.55168000E-02	-1.09331000E-02
		 1.42923000E-03	 4.76917000E-02	 1.12514000E-02
		 1.31317000E-03	 4.83534000E-02	 1.13116000E-02
		 1.99789000E-03	 3.57600000E-02	 1.04013000E-02
		 6.89348000E-04	 4.74769000E-02	 5.31472000E-03
		-1.02511000E-04	 7.45318000E-02	-7.89165000E-04
		-4.75861000E-04	 7.43619000E-02	-1.36523000E-02
		-1.20936000E-04	 7.40473000E-02	-8.29186000E-04
		-6.36200000E-04	 7.39082000E-02	-1.37063000E-02
		-6.45921000E-05	 6.18153000E-02	-6.21041000E-04
		-3.15524000E-04	 7.44519000E-02	-7.18597000E-03
		-6.72975000E-04	 6.17155000E-02	-1.30183000E-02
		-9.92393000E-05	 7.42998000E-02	-8.01100000E-04
		-5.79436000E-04	 7.41848000E-02	-1.36615000E-02
		-5.44701000E-05	 6.10713000E-02	-6.29209000E-04
		-3.79210000E-04	 7.39638000E-02	-7.19401000E-03
		-8.82273000E-04	 6.09869000E-02	-1.30650000E-02
		 1.69852000E-04	 7.46944000E-02	 1.20533000E-02
		 4.64359000E-04	 7.42543000E-02	 1.21069000E-02
		 5.61649000E-04	 6.20295000E-02	 1.17712000E-02
		 6.89156000E-05	 7.46039000E-02	 5.61334000E-03
		 3.09219000E-04	 7.44878000E-02	 1.20778000E-02
		 7.38017000E-04	 6.13215000E-02	 1.18211000E-02
		 1.61414000E-04	 7.41556000E-02	 5.60854000E-03
		-6.92277000E-05	 7.35081000E-02	-7.70656000E-04
		-5.98334000E-04	 7.34108000E-02	-1.35943000E-02
		-1.08921000E-04	 7.37866000E-02	-7.74549000E-04
		-6.09927000E-04	 7.36430000E-02	-1.36689000E-02
		-6.61724000E-05	 6.01870000E-02	-6.00904000E-04
		-3.81068000E-04	 7.34453000E-02	-7.11933000E-03
		-1.00341000E-03	 6.01977000E-02	-1.30136000E-02
		 4.97445000E-04	 7.37719000E-02	 1.20953000E-02
		 5.06460000E-04	 7.39626000E-02	 1.21471000E-02
		 8.54039000E-04	 6.05003000E-02	 1.18510000E-02
		 2.74005000E-04	 7.35971000E-02	 5.56215000E-03
		-1.71025000E-04	 1.00909000E-01	-9.72746000E-04
		-7.85181000E-04	 1.00750000E-01	-1.39617000E-02
		-1.37238000E-04	 1.00315000E-01	-9.66038000E-04
		-7.33447000E-04	 1.00126000E-01	-1.38503000E-02
		-1.79572000E-04	 8.77026000E-02	-8.92111000E-04
		-4.10468000E-04	 1.00819000E-01	-7.46513000E-03
		-6.62332000E-04	 8.75465000E-02	-1.38708000E-02
		-1.53927000E-04	 1.00585000E-01	-1.00672000E-03
		-7.58587000E-04	 1.00380000E-01	-1.39665000E-02
		-1.31394000E-04	 8.71951000E-02	-8.90929000E-04
		-4.25727000E-04	 1.00220000E-01	-7.43927000E-03
		-6.07163000E-04	 8.70061000E-02	-1.38565000E-02
		 5.00361000E-04	 1.01052000E-01	 1.19287000E-02
		 4.54840000E-04	 1.00445000E-01	 1.19273000E-02
		 3.62598000E-04	 8.78865000E-02	 1.20551000E-02
		 1.65374000E-04	 1.00977000E-01	 5.47104000E-03
		 4.78421000E-04	 1.00752000E-01	 1.19727000E-02
		 3.96699000E-04	 8.74001000E-02	 1.21108000E-02
		 1.76447000E-04	 1.00371000E-01	 5.48549000E-03
		-1.32089000E-04	 9.97475000E-02	-9.68336000E-04
		-6.29306000E-04	 9.95825000E-02	-1.40014000E-02
		-1.24052000E-04	 9.99983000E-02	-9.95536000E-04
		-6.93544000E-04	 9.97905000E-02	-1.39231000E-02
		-7.99455000E-05	 8.66931000E-02	-8.48297000E-04
		-4.55484000E-04	 9.96479000E-02	-7.53039000E-03
		-4.89470000E-04	 8.66150000E-02	-1.38704000E-02
		 4.38371000E-04	 9.98928000E-02	 1.18977000E-02
		 4.38720000E-04	 1.00145000E-01	 1.19019000E-02
		 3.49342000E-04	 8.69544000E-02	 1.20874000E-02
		 1.45485000E-04	 9.98254000E-02	 5.47928000E-03
		-1.84286000E-04	 1.26996000E-01	-1.41364000E-03
		-8.97702000E-04	 1.26812000E-01	-1.46848000E-02
		-1.92094000E-04	 1.26082000E-01	-1.45285000E-03
		-1.19137000E-03	 1.25958000E-01	-1.47760000E-02
		-1.45797000E-04	 1.13832000E-01	-1.16954000E-03
		-5.97481000E-04	 1.26898000E-01	-8.03978000E-03
		-8.88690000E-04	 1.13752000E-01	-1.42346000E-02
		-1.94949000E-04	 1.26604000E-01	-1.41159000E-03
		-1.02294000E-03	 1.26446000E-01	-1.46964000E-02
		-1.57412000E-04	 1.13103000E-01	-1.18765000E-03
		-6.89912000E-04	 1.26020000E-01	-8.11136000E-03
		-9.32456000E-04	 1.12969000E-01	-1.42163000E-02
		 7.03659000E-04	 1.27294000E-01	 1.18762000E-02
		 8.66437000E-04	 1.26338000E-01	 1.18605000E-02
		 5.79326000E-04	 1.14069000E-01	 1.17968000E-02
		 2.14559000E-04	 1.27137000E-01	 5.17917000E-03
		 7.88649000E-04	 1.26770000E-01	 1.19373000E-02
		 5.74773000E-04	 1.13290000E-01	 1.17720000E-02
		 3.15854000E-04	 1.26202000E-01	 5.22623000E-03
		-2.54186000E-04	 1.25032000E-01	-1.44724000E-03
		-1.45805000E-03	 1.24796000E-01	-1.46808000E-02
		-2.23886000E-04	 1.25582000E-01	-1.45477000E-03
		-1.33276000E-03	 1.25455000E-01	-1.46603000E-02
		-1.90340000E-04	 1.12345000E-01	-1.21452000E-03
		-7.62721000E-04	 1.24906000E-01	-8.10441000E-03
		-9.67041000E-04	 1.12223000E-01	-1.42626000E-02
		 8.75834000E-04	 1.25295000E-01	 1.19229000E-02
		 8.71118000E-04	 1.25830000E-01	 1.18636000E-02
		 6.00116000E-04	 1.12564000E-01	 1.18151000E-02
		 3.34612000E-04	 1.25140000E-01	 5.33567000E-03
		-2.46465000E-04	 1.54558000E-01	-1.51752000E-03
		-1.91811000E-03	 1.54578000E-01	-1.52620000E-02
		-2.01660000E-04	 1.53308000E-01	-1.75900000E-03
		-1.57852000E-03	 1.53135000E-01	-1.53884000E-02
		-2.21079000E-04	 1.40735000E-01	-1.52893000E-03
		-1.00403000E-03	 1.54554000E-01	-8.32387000E-03
		-1.25893000E-03	 1.40558000E-01	-1.49968000E-02
		-1.97572000E-04	 1.53904000E-01	-1.66157000E-03
		-1.77309000E-03	 1.53762000E-01	-1.54256000E-02
		-1.84510000E-04	 1.39581000E-01	-1.56498000E-03
		-9.09715000E-04	 1.53208000E-01	-8.56171000E-03
		-1.30313000E-03	 1.39443000E-01	-1.52141000E-02
		 8.54107000E-04	 1.54400000E-01	 1.18731000E-02
		 1.14060000E-03	 1.53431000E-01	 1.19628000E-02
		 9.60595000E-04	 1.41064000E-01	 1.19590000E-02
		 3.35871000E-04	 1.54459000E-01	 5.18854000E-03
		 9.78868000E-04	 1.53934000E-01	 1.18370000E-02
		 9.34913000E-04	 1.39811000E-01	 1.19580000E-02
		 4.95030000E-04	 1.53380000E-01	 5.10035000E-03
		-2.60220000E-04	 1.52364000E-01	-1.86068000E-03
		-1.37578000E-03	 1.52412000E-01	-1.58783000E-02
		-2.31312000E-04	 1.52883000E-01	-1.77400000E-03
		-1.43917000E-03	 1.52686000E-01	-1.56686000E-02
		-1.63448000E-04	 1.38378000E-01	-1.61929000E-03
		-9.50425000E-04	 1.52364000E-01	-8.79345000E-03
		-1.38607000E-03	 1.38270000E-01	-1.52671000E-02
		 1.50954000E-03	 1.52617000E-01	 1.27009000E-02
		 1.30523000E-03	 1.53030000E-01	 1.22125000E-02
		 1.00514000E-03	 1.38640000E-01	 1.22817000E-02
		 6.29606000E-04	 1.52466000E-01	 5.30254000E-03
		 0.00000000E+00	 0.00000000E+00	 0.00000000E+00
		 0.00000000E+00	 0.00000000E+00	 0.00000000E+00
		-2.00844000E-04	-9.40152000E-03	 3.73048000E-04
		-1.49560000E-03	-9.90928000E-03	 9.23003000E-03
		 0.00000000E+00	 0.00000000E+00	 0.00000000E+00
		 0.00000000E+00	 0.00000000E+00	 0.00000000E+00
		-1.90385000E-04	-9.89198000E-03	 1.44515000E-04
		-1.45108000E-04	-1.06432000E-02	 9.21210000E-03
		 0.00000000E+00	 0.00000000E+00	 0.00000000E+00
		-1.13307000E-04	-2.04117000E-03	 2.07323000E-04
		-7.76788000E-04	-9.47423000E-03	 4.60459000E-03
		-1.54122000E-03	-2.80730000E-03	 4.70098000E-03
		 0.00000000E+00	 0.00000000E+00	 0.00000000E+00
		 0.00000000E+00	 0.00000000E+00	 0.00000000E+00
		-1.88896000E-04	-9.88461000E-03	 2.42885000E-04
		-7.80410000E-04	-1.05647000E-02	 9.26481000E-03
		 0.00000000E+00	 0.00000000E+00	 0.00000000E+00
		-9.14612000E-05	-2.60312000E-03	 6.71994000E-05
		-1.76809000E-04	-1.00621000E-02	 4.56519000E-03
		-5.12873000E-05	-3.47663000E-03	 4.46123000E-03
		 0.00000000E+00	 0.00000000E+00	 0.00000000E+00
		 8.55460000E-04	-9.67874000E-03	-8.60937000E-03
		 0.00000000E+00	 0.00000000E+00	 0.00000000E+00
		-2.96022000E-04	-1.02787000E-02	-8.91331000E-03
		 0.00000000E+00	 0.00000000E+00	 0.00000000E+00
		 1.25873000E-03	-2.64217000E-03	-4.31891000E-03
		 2.80199000E-04	-9.34152000E-03	-3.97659000E-03
		 0.00000000E+00	 0.00000000E+00	 0.00000000E+00
		 2.62311000E-04	-1.02449000E-02	-8.81104000E-03
		 0.00000000E+00	 0.00000000E+00	 0.00000000E+00
		-6.82958000E-05	-3.30198000E-03	-4.30439000E-03
		-2.68320000E-04	-9.87648000E-03	-4.24861000E-03
		 0.00000000E+00	 0.00000000E+00	 0.00000000E+00
		 0.00000000E+00	 0.00000000E+00	 0.00000000E+00
		-1.69565000E-04	-9.31162000E-03	-1.43855000E-06
		 1.05702000E-03	-9.90512000E-03	 8.88757000E-03
		 0.00000000E+00	 0.00000000E+00	 0.00000000E+00
		 0.00000000E+00	 0.00000000E+00	 0.00000000E+00
		-1.79065000E-04	-9.82606000E-03	 6.26104000E-05
		 4.59364000E-04	-1.04043000E-02	 9.01735000E-03
		 0.00000000E+00	 0.00000000E+00	 0.00000000E+00
		-9.08321000E-05	-2.02540000E-03	 3.16249000E-05
		 4.97910000E-04	-9.39219000E-03	 4.34341000E-03
		 1.26893000E-03	-2.85193000E-03	 4.53374000E-03
		 0.00000000E+00	 0.00000000E+00	 0.00000000E+00
		-1.42288000E-03	-9.84638000E-03	-8.98920000E-03
		 0.00000000E+00	 0.00000000E+00	 0.00000000E+00
		-8.59620000E-04	-1.02576000E-02	-8.91427000E-03
		 0.00000000E+00	 0.00000000E+00	 0.00000000E+00
		-1.38731000E-03	-2.75019000E-03	-4.52041000E-03
		-8.30067000E-04	-9.36185000E-03	-4.40833000E-03
		-5.45249000E-04	-3.75877000E-02	 1.13231000E-04
		-3.30273000E-05	-3.79983000E-02	 1.54605000E-02
		-5.76643000E-04	-3.64799000E-02	-5.47336000E-05
		 6.24782000E-04	-3.72159000E-02	 1.53350000E-02
		-4.12306000E-04	-2.17129000E-02	 3.65429000E-04
		-2.98169000E-04	-3.76916000E-02	 7.50932000E-03
		-8.52222000E-04	-2.23274000E-02	 1.28872000E-02
		-5.55043000E-04	-3.70920000E-02	 2.73155000E-05
		 2.85987000E-04	-3.76616000E-02	 1.55218000E-02
		-4.11827000E-04	-2.15530000E-02	 8.01796000E-05
		 5.63891000E-05	-3.67828000E-02	 7.54650000E-03
		 1.97441000E-04	-2.22513000E-02	 1.27152000E-02
		-1.55069000E-03	-3.78156000E-02	-1.51703000E-02
		-1.96413000E-03	-3.65557000E-02	-1.53809000E-02
		-1.20029000E-04	-2.20156000E-02	-1.23456000E-02
		-1.00506000E-03	-3.76429000E-02	-7.25881000E-03
		-1.74700000E-03	-3.71663000E-02	-1.54067000E-02
		-1.03385000E-03	-2.18507000E-02	-1.25508000E-02
		-1.26939000E-03	-3.64439000E-02	-7.59502000E-03
		-5.47081000E-04	-3.48319000E-02	-1.66526000E-04
		 1.52711000E-03	-3.52650000E-02	 1.51175000E-02
		-5.77772000E-04	-3.57276000E-02	-8.54039000E-05
		 1.07238000E-03	-3.63702000E-02	 1.51213000E-02
		-3.82414000E-04	-2.04628000E-02	-8.60695000E-05
		 4.35978000E-04	-3.49881000E-02	 7.42814000E-03
		 1.13934000E-03	-2.11954000E-02	 1.25213000E-02
		-2.58835000E-03	-3.48537000E-02	-1.54876000E-02
		-2.26384000E-03	-3.57493000E-02	-1.53651000E-02
		-1.91839000E-03	-2.08108000E-02	-1.26740000E-02
		-1.57527000E-03	-3.47837000E-02	-7.75846000E-03
		-9.30127000E-04	-7.32830000E-02	-3.39308000E-04
		 6.58313000E-04	-7.36845000E-02	 1.75408000E-02
		-9.08499000E-04	-7.15693000E-02	-3.71773000E-04
		 8.92973000E-04	-7.21729000E-02	 1.75645000E-02
		-7.93536000E-04	-5.49553000E-02	-1.01955000E-04
		-1.86975000E-04	-7.34488000E-02	 8.58360000E-03
		 6.30390000E-04	-5.55869000E-02	 1.68401000E-02
		-9.18682000E-04	-7.24171000E-02	-3.53530000E-04
		 7.57054000E-04	-7.28947000E-02	 1.75003000E-02
		-7.69469000E-04	-5.34054000E-02	-2.09993000E-04
		-5.97163000E-05	-7.18563000E-02	 8.46935000E-03
		 9.45802000E-04	-5.39318000E-02	 1.68503000E-02
		-2.76541000E-03	-7.31288000E-02	-1.81802000E-02
		-2.71207000E-03	-7.12266000E-02	-1.83566000E-02
		-2.20962000E-03	-5.49315000E-02	-1.70033000E-02
		-1.80137000E-03	-7.31673000E-02	-9.23777000E-03
		-2.73314000E-03	-7.21681000E-02	-1.82206000E-02
		-2.49696000E-03	-5.32504000E-02	-1.72471000E-02
		-1.76695000E-03	-7.13824000E-02	-9.24353000E-03
		-8.49171000E-04	-6.97137000E-02	-3.78005000E-04
		 1.07086000E-03	-7.02277000E-02	 1.73954000E-02
		-8.77200000E-04	-7.06722000E-02	-3.95168000E-04
		 9.60157000E-04	-7.11724000E-02	 1.75960000E-02
		-7.23152000E-04	-5.14800000E-02	-2.71725000E-04
		 5.57443000E-05	-6.99635000E-02	 8.30674000E-03
		 1.48953000E-03	-5.19486000E-02	 1.66738000E-02
		-2.75904000E-03	-6.93695000E-02	-1.83832000E-02
		-2.72473000E-03	-7.03839000E-02	-1.84455000E-02
		-2.87933000E-03	-5.12912000E-02	-1.72387000E-02
		-1.75490000E-03	-6.95467000E-02	-9.22142000E-03
		-9.04520000E-04	-1.09149000E-01	-8.71201000E-04
		-4.83906000E-04	-1.09180000E-01	 1.66268000E-02
		-1.00718000E-03	-1.08523000E-01	-7.63198000E-04
		-7.19907000E-04	-1.09184000E-01	 1.66649000E-02
		-1.07593000E-03	-9.13752000E-02	-6.36551000E-04
		-6.90627000E-04	-1.09198000E-01	 7.88230000E-03
		 1.81629000E-04	-9.17346000E-02	 1.73871000E-02
		-9.47525000E-04	-1.08809000E-01	-8.16646000E-04
		-5.81422000E-04	-1.09096000E-01	 1.65861000E-02
		-1.06894000E-03	-9.02115000E-02	-5.91083000E-04
		-7.17689000E-04	-1.08879000E-01	 7.88391000E-03
		 4.16959000E-05	-9.05194000E-02	 1.74352000E-02
		-1.94690000E-03	-1.08605000E-01	-1.82970000E-02
		-1.73682000E-03	-1.07864000E-01	-1.83119000E-02
		-2.39544000E-03	-9.10571000E-02	-1.85226000E-02
		-1.42041000E-03	-1.08917000E-01	-9.56226000E-03
		-1.83333000E-03	-1.08187000E-01	-1.82625000E-02
		-2.27663000E-03	-8.97876000E-02	-1.86014000E-02
		-1.41031000E-03	-1.08201000E-01	-9.51097000E-03
		-1.30371000E-03	-1.08206000E-01	-8.22191000E-04
		-9.48936000E-04	-1.09337000E-01	 1.66690000E-02
		-1.15498000E-03	-1.08316000E-01	-7.99697000E-04
		-8.32844000E-04	-1.09682000E-01	 1.67547000E-02
		-1.08025000E-03	-8.90995000E-02	-7.31106000E-04
		-1.19390000E-03	-1.08774000E-01	 7.75828000E-03
		 1.63146000E-04	-8.92640000E-02	 1.73482000E-02
		-1.46442000E-03	-1.07439000E-01	-1.82384000E-02