<?xml version="1.0"?>
<VTKFile type="UnstructuredGrid" version="0.1" byte_order="LittleEndian">
	<UnstructuredGrid>
		<Piece NumberOfPoints="522" NumberOfCells="64">
			<Points>
				<DataArray type="Float64" NumberOfComponents="3" format="ascii">
					 1.00000000E+00	 1.00000000E+00	-5.96046000E-08
					 1.00000000E+00	 5.00000000E-01	-5.96046000E-08
					 1.00000000E+00	 5.00000000E-01	 1.00000000E+00
					 1.00000000E+00	 1.00000000E+00	 1.00000000E+00
					 5.00000000E-01	 1.00000000E+00	-5.96046000E-08
					 5.00000000E-01	 5.00000000E-01	-5.96046000E-08
					 5.00000000E-01	 5.00000000E-01	 1.00000000E+00
					 5.00000000E-01	 1.00000000E+00	 1.00000000E+00
					 1.00000000E+00	 7.50000000E-01	-5.96046000E-08
					 1.00000000E+00	 5.00000000E-01	 5.00000000E-01
					 1.00000000E+00	 7.50000000E-01	 1.00000000E+00
					 1.00000000E+00	 1.00000000E+00	 5.00000000E-01
					 7.50000000E-01	 1.00000000E+00	-5.96046000E-08
					 7.50000000E-01	 5.00000000E-01	-5.96046000E-08
					 7.50000000E-01	 5.00000000E-01	 1.00000000E+00
					 7.50000000E-01	 1.00000000E+00	 1.00000000E+00
					 5.00000000E-01	 7.50000000E-01	-5.96046000E-08
					 5.00000000E-01	 5.00000000E-01	 5.00000000E-01
					 5.00000000E-01	 7.50000000E-01	 1.00000000E+00
					 5.00000000E-01	 1.00000000E+00	 5.00000000E-01
					 1.00000000E+00	-1.49012000E-08	-5.96046000E-08
					 1.00000000E+00	-1.49012000E-08	 1.00000000E+00
					 5.00000000E-01	-1.49012000E-08	-5.96046000E-08
					 5.00000000E-01	-1.49012000E-08	 1.00000000E+00
					 1.00000000E+00	 2.50000000E-01	-5.96046000E-08
					 1.00000000E+00	-1.49012000E-08	 5.00000000E-01
					 1.00000000E+00	 2.50000000E-01	 1.00000000E+00
					 7.50000000E-01	-1.49012000E-08	-5.96046000E-08
					 7.50000000E-01	-1.49012000E-08	 1.00000000E+00
					 5.00000000E-01	 2.50000000E-01	-5.96046000E-08
					 5.00000000E-01	-1.49012000E-08	 5.00000000E-01
					 5.00000000E-01	 2.50000000E-01	 1.00000000E+00
					-7.45058000E-09	 1.00000000E+00	-5.96046000E-08
					-7.45058000E-09	 5.00000000E-01	-5.96046000E-08
					-7.45058000E-09	 5.00000000E-01	 1.00000000E+00
					-7.45058000E-09	 1.00000000E+00	 1.00000000E+00
					 2.50000000E-01	 1.00000000E+00	-5.96046000E-08
					 2.50000000E-01	 5.00000000E-01	-5.96046000E-08
					 2.50000000E-01	 5.00000000E-01	 1.00000000E+00
					 2.50000000E-01	 1.00000000E+00	 1.00000000E+00
					-7.45058000E-09	 7.50000000E-01	-5.96046000E-08
					-7.45058000E-09	 5.00000000E-01	 5.00000000E-01
					-7.45058000E-09	 7.50000000E-01	 1.00000000E+00
					-7.45058000E-09	 1.00000000E+00	 5.00000000E-01
					-7.45058000E-09	-1.49012000E-08	-5.96046000E-08
					-7.45058000E-09	-1.49012000E-08	 1.00000000E+00
					 2.50000000E-01	-1.49012000E-08	-5.96046000E-08
					 2.50000000E-01	-1.49012000E-08	 1.00000000E+00
					-7.45058000E-09	 2.50000000E-01	-5.96046000E-08
					-7.45058000E-09	-1.49012000E-08	 5.00000000E-01
					-7.45058000E-09	 2.50000000E-01	 1.00000000E+00
					 1.00000000E+00	 5.00000000E-01	 2.00000000E+00
					 1.00000000E+00	 1.00000000E+00	 2.00000000E+00
					 5.00000000E-01	 5.00000000E-01	 2.00000000E+00
					 5.00000000E-01	 1.00000000E+00	 2.00000000E+00
					 1.00000000E+00	 5.00000000E-01	 1.50000000E+00
					 1.00000000E+00	 7.50000000E-01	 2.00000000E+00
					 1.00000000E+00	 1.00000000E+00	 1.50000000E+00
					 7.50000000E-01	 5.00000000E-01	 2.00000000E+00
					 7.50000000E-01	 1.00000000E+00	 2.00000000E+00
					 5.00000000E-01	 5.00000000E-01	 1.50000000E+00
					 5.00000000E-01	 7.50000000E-01	 2.00000000E+00
					 5.00000000E-01	 1.00000000E+00	 1.50000000E+00
					 1.00000000E+00	-1.49012000E-08	 2.00000000E+00
					 5.00000000E-01	-1.49012000E-08	 2.00000000E+00
					 1.00000000E+00	-1.49012000E-08	 1.50000000E+00
					 1.00000000E+00	 2.50000000E-01	 2.00000000E+00
					 7.50000000E-01	-1.49012000E-08	 2.00000000E+00
					 5.00000000E-01	-1.49012000E-08	 1.50000000E+00
					 5.00000000E-01	 2.50000000E-01	 2.00000000E+00
					-7.45058000E-09	 5.00000000E-01	 2.00000000E+00
					-7.45058000E-09	 1.00000000E+00	 2.00000000E+00
					 2.50000000E-01	 5.00000000E-01	 2.00000000E+00
					 2.50000000E-01	 1.00000000E+00	 2.00000000E+00
					-7.45058000E-09	 5.00000000E-01	 1.50000000E+00
					-7.45058000E-09	 7.50000000E-01	 2.00000000E+00
					-7.45058000E-09	 1.00000000E+00	 1.50000000E+00
					-7.45058000E-09	-1.49012000E-08	 2.00000000E+00
					 2.50000000E-01	-1.49012000E-08	 2.00000000E+00
					-7.45058000E-09	-1.49012000E-08	 1.50000000E+00
					-7.45058000E-09	 2.50000000E-01	 2.00000000E+00
					 1.00000000E+00	 5.00000000E-01	 3.00000000E+00
					 1.00000000E+00	 1.00000000E+00	 3.00000000E+00
					 5.00000000E-01	 5.00000000E-01	 3.00000000E+00
					 5.00000000E-01	 1.00000000E+00	 3.00000000E+00
					 1.00000000E+00	 5.00000000E-01	 2.50000000E+00
					 1.00000000E+00	 7.50000000E-01	 3.00000000E+00
					 1.00000000E+00	 1.00000000E+00	 2.50000000E+00
					 7.50000000E-01	 5.00000000E-01	 3.00000000E+00
					 7.50000000E-01	 1.00000000E+00	 3.00000000E+00
					 5.00000000E-01	 5.00000000E-01	 2.50000000E+00
					 5.00000000E-01	 7.50000000E-01	 3.00000000E+00
					 5.00000000E-01	 1.00000000E+00	 2.50000000E+00
					 1.00000000E+00	-1.49012000E-08	 3.00000000E+00
					 5.00000000E-01	-1.49012000E-08	 3.00000000E+00
					 1.00000000E+00	-1.49012000E-08	 2.50000000E+00
					 1.00000000E+00	 2.50000000E-01	 3.00000000E+00
					 7.50000000E-01	-1.49012000E-08	 3.00000000E+00
					 5.00000000E-01	-1.49012000E-08	 2.50000000E+00
					 5.00000000E-01	 2.50000000E-01	 3.00000000E+00
					-7.45058000E-09	 5.00000000E-01	 3.00000000E+00
					-7.45058000E-09	 1.00000000E+00	 3.00000000E+00
					 2.50000000E-01	 5.00000000E-01	 3.00000000E+00
					 2.50000000E-01	 1.00000000E+00	 3.00000000E+00
					-7.45058000E-09	 5.00000000E-01	 2.50000000E+00
					-7.45058000E-09	 7.50000000E-01	 3.00000000E+00
					-7.45058000E-09	 1.00000000E+00	 2.50000000E+00
					-7.45058000E-09	-1.49012000E-08	 3.00000000E+00
					 2.50000000E-01	-1.49012000E-08	 3.00000000E+00
					-7.45058000E-09	-1.49012000E-08	 2.50000000E+00
					-7.45058000E-09	 2.50000000E-01	 3.00000000E+00
					 1.00000000E+00	 5.00000000E-01	 4.00000000E+00
					 1.00000000E+00	 1.00000000E+00	 4.00000000E+00
					 5.00000000E-01	 5.00000000E-01	 4.00000000E+00
					 5.00000000E-01	 1.00000000E+00	 4.00000000E+00
					 1.00000000E+00	 5.00000000E-01	 3.50000000E+00
					 1.00000000E+00	 7.50000000E-01	 4.00000000E+00
					 1.00000000E+00	 1.00000000E+00	 3.50000000E+00
					 7.50000000E-01	 5.00000000E-01	 4.00000000E+00
					 7.50000000E-01	 1.00000000E+00	 4.00000000E+00
					 5.00000000E-01	 5.00000000E-01	 3.50000000E+00
					 5.00000000E-01	 7.50000000E-01	 4.00000000E+00
					 5.00000000E-01	 1.00000000E+00	 3.50000000E+00
					 1.00000000E+00	-1.49012000E-08	 4.00000000E+00
					 5.00000000E-01	-1.49012000E-08	 4.00000000E+00
					 1.00000000E+00	-1.49012000E-08	 3.50000000E+00
					 1.00000000E+00	 2.50000000E-01	 4.00000000E+00
					 7.50000000E-01	-1.49012000E-08	 4.00000000E+00
					 5.00000000E-01	-1.49012000E-08	 3.50000000E+00
					 5.00000000E-01	 2.50000000E-01	 4.00000000E+00
					-7.45058000E-09	 5.00000000E-01	 4.00000000E+00
					-7.45058000E-09	 1.00000000E+00	 4.00000000E+00
					 2.50000000E-01	 5.00000000E-01	 4.00000000E+00
					 2.50000000E-01	 1.00000000E+00	 4.00000000E+00
					-7.45058000E-09	 5.00000000E-01	 3.50000000E+00
					-7.45058000E-09	 7.50000000E-01	 4.00000000E+00
					-7.45058000E-09	 1.00000000E+00	 3.50000000E+00
					-7.45058000E-09	-1.49012000E-08	 4.00000000E+00
					 2.50000000E-01	-1.49012000E-08	 4.00000000E+00
					-7.45058000E-09	-1.49012000E-08	 3.50000000E+00
					-7.45058000E-09	 2.50000000E-01	 4.00000000E+00
					 1.00000000E+00	 5.00000000E-01	 5.00000000E+00
					 1.00000000E+00	 1.00000000E+00	 5.00000000E+00
					 5.00000000E-01	 5.00000000E-01	 5.00000000E+00
					 5.00000000E-01	 1.00000000E+00	 5.00000000E+00
					 1.00000000E+00	 5.00000000E-01	 4.50000000E+00
					 1.00000000E+00	 7.50000000E-01	 5.00000000E+00
					 1.00000000E+00	 1.00000000E+00	 4.50000000E+00
					 7.50000000E-01	 5.00000000E-01	 5.00000000E+00
					 7.50000000E-01	 1.00000000E+00	 5.00000000E+00
					 5.00000000E-01	 5.00000000E-01	 4.50000000E+00
					 5.00000000E-01	 7.50000000E-01	 5.00000000E+00
					 5.00000000E-01	 1.00000000E+00	 4.50000000E+00
					 1.00000000E+00	-1.49012000E-08	 5.00000000E+00
					 5.00000000E-01	-1.49012000E-08	 5.00000000E+00
					 1.00000000E+00	-1.49012000E-08	 4.50000000E+00
					 1.00000000E+00	 2.50000000E-01	 5.00000000E+00
					 7.50000000E-01	-1.49012000E-08	 5.00000000E+00
					 5.00000000E-01	-1.49012000E-08	 4.50000000E+00
					 5.00000000E-01	 2.50000000E-01	 5.00000000E+00
					-7.45058000E-09	 5.00000000E-01	 5.00000000E+00
					-7.45058000E-09	 1.00000000E+00	 5.00000000E+00
					 2.50000000E-01	 5.00000000E-01	 5.00000000E+00
					 2.50000000E-01	 1.00000000E+00	 5.00000000E+00
					-7.45058000E-09	 5.00000000E-01	 4.50000000E+00
					-7.45058000E-09	 7.50000000E-01	 5.00000000E+00
					-7.45058000E-09	 1.00000000E+00	 4.50000000E+00
					-7.45058000E-09	-1.49012000E-08	 5.00000000E+00
					 2.50000000E-01	-1.49012000E-08	 5.00000000E+00
					-7.45058000E-09	-1.49012000E-08	 4.50000000E+00
					-7.45058000E-09	 2.50000000E-01	 5.00000000E+00
					 1.00000000E+00	 5.00000000E-01	 6.00000000E+00
					 1.00000000E+00	 1.00000000E+00	 6.00000000E+00
					 5.00000000E-01	 5.00000000E-01	 6.00000000E+00
					 5.00000000E-01	 1.00000000E+00	 6.00000000E+00
					 1.00000000E+00	 5.00000000E-01	 5.50000000E+00
					 1.00000000E+00	 7.50000000E-01	 6.00000000E+00
					 1.00000000E+00	 1.00000000E+00	 5.50000000E+00
					 7.50000000E-01	 5.00000000E-01	 6.00000000E+00
					 7.50000000E-01	 1.00000000E+00	 6.00000000E+00
					 5.00000000E-01	 5.00000000E-01	 5.50000000E+00
					 5.00000000E-01	 7.50000000E-01	 6.00000000E+00
					 5.00000000E-01	 1.00000000E+00	 5.50000000E+00
					 1.00000000E+00	-1.49012000E-08	 6.00000000E+00
[...]
			<PointData>
				<DataArray type="Float32" Name="U" NumberOfComponents="3" ComponentName0="D1" ComponentName1="D2" ComponentName2="D3" format="ascii">
					 0.00000000E+00	 0.00000000E+00	 0.00000000E+00
					 0.00000000E+00	 0.00000000E+00	 0.00000000E+00
					-5.92955000E-06	 1.21848000E-03	-6.24402000E-05
					 1.84258000E-03	 1.35090000E-03	-3.47350000E-03
					 0.00000000E+00	 0.00000000E+00	 0.00000000E+00
					 0.00000000E+00	 0.00000000E+00	 0.00000000E+00
					 6.64989000E-07	 2.56982000E-03	-7.06287000E-05
					 1.10088000E-03	 2.86595000E-03	-3.48925000E-03
					 0.00000000E+00	 0.00000000E+00	 0.00000000E+00
					 5.90849000E-06	-4.39256000E-04	-3.94463000E-05
					 8.74702000E-04	 1.21426000E-03	-1.84412000E-03
					 1.14839000E-03	-1.55081000E-04	-1.52221000E-03
					 0.00000000E+00	 0.00000000E+00	 0.00000000E+00
					 0.00000000E+00	 0.00000000E+00	 0.00000000E+00
					-4.40205000E-06	 2.04014000E-03	-5.57686000E-05
					 1.45447000E-03	 2.25184000E-03	-3.41647000E-03
					 0.00000000E+00	 0.00000000E+00	 0.00000000E+00
					 1.54479000E-05	 3.72398000E-04	-3.81725000E-05
					 5.46765000E-04	 2.63618000E-03	-1.78363000E-03
					 5.95506000E-04	 7.02033000E-04	-1.48956000E-03
					 0.00000000E+00	 0.00000000E+00	 0.00000000E+00
					-1.88256000E-03	 1.41593000E-03	 3.41628000E-03
					 0.00000000E+00	 0.00000000E+00	 0.00000000E+00
					-1.08357000E-03	 2.85455000E-03	 3.28213000E-03
					 0.00000000E+00	 0.00000000E+00	 0.00000000E+00
					-1.08784000E-03	-1.65361000E-04	 1.49791000E-03
					-8.81794000E-04	 1.26217000E-03	 1.76175000E-03
					 0.00000000E+00	 0.00000000E+00	 0.00000000E+00
					-1.47483000E-03	 2.32181000E-03	 3.28054000E-03
					 0.00000000E+00	 0.00000000E+00	 0.00000000E+00
					-5.69784000E-04	 6.69176000E-04	 1.38946000E-03
					-5.49528000E-04	 2.62776000E-03	 1.62568000E-03
					 0.00000000E+00	 0.00000000E+00	 0.00000000E+00
					 0.00000000E+00	 0.00000000E+00	 0.00000000E+00
					-4.44185000E-06	 3.41051000E-03	-1.38940000E-04
					 5.45240000E-04	 3.70157000E-03	-3.58112000E-03
					 0.00000000E+00	 0.00000000E+00	 0.00000000E+00
					 0.00000000E+00	 0.00000000E+00	 0.00000000E+00
					 1.71612000E-06	 3.11564000E-03	-1.10687000E-04
					 8.15799000E-04	 3.34452000E-03	-3.58307000E-03
					 0.00000000E+00	 0.00000000E+00	 0.00000000E+00
					-6.72693000E-06	 7.18654000E-04	-7.92220000E-05
					 2.46770000E-04	 3.45600000E-03	-1.77409000E-03
					 8.04460000E-05	 1.05038000E-03	-1.59083000E-03
					 0.00000000E+00	 0.00000000E+00	 0.00000000E+00
					-5.31239000E-04	 3.71627000E-03	 3.30519000E-03
					 0.00000000E+00	 0.00000000E+00	 0.00000000E+00
					-8.10825000E-04	 3.37653000E-03	 3.37780000E-03
					 0.00000000E+00	 0.00000000E+00	 0.00000000E+00
					-6.90822000E-05	 1.00556000E-03	 1.44958000E-03
					-2.41981000E-04	 3.47113000E-03	 1.56637000E-03
					-2.11165000E-05	 1.22954000E-02	-7.45341000E-05
					 1.63598000E-03	 1.24223000E-02	-7.16096000E-03
					-3.11553000E-06	 1.37516000E-02	-9.65087000E-05
					 1.16622000E-03	 1.39069000E-02	-7.20695000E-03
					-2.10833000E-05	 5.72381000E-03	-6.41693000E-05
					 7.86814000E-04	 1.22995000E-02	-3.55225000E-03
					 1.78505000E-03	 5.92189000E-03	-5.40711000E-03
					-1.55759000E-05	 1.30533000E-02	-8.35840000E-05
					 1.40569000E-03	 1.32103000E-02	-7.21622000E-03
					-2.11182000E-05	 7.20727000E-03	-8.16303000E-05
					 5.74527000E-04	 1.37754000E-02	-3.58861000E-03
					 1.18551000E-03	 7.43717000E-03	-5.47377000E-03
					-1.60100000E-03	 1.26491000E-02	 6.97347000E-03
					-1.19674000E-03	 1.39883000E-02	 7.05924000E-03
					-1.82528000E-03	 5.98567000E-03	 5.32226000E-03
					-8.51642000E-04	 1.24070000E-02	 3.37180000E-03
					-1.39392000E-03	 1.33224000E-02	 7.04088000E-03
					-1.21770000E-03	 7.52972000E-03	 5.31880000E-03
					-5.96621000E-04	 1.38062000E-02	 3.41884000E-03
					 3.78725000E-05	 1.46830000E-02	-8.74467000E-05
					 6.73978000E-04	 1.47628000E-02	-7.14954000E-03
					 1.85528000E-05	 1.42541000E-02	-8.81078000E-05
					 9.20897000E-04	 1.44113000E-02	-7.18960000E-03
					-3.11298000E-05	 8.12589000E-03	-9.97774000E-05
					 3.79582000E-04	 1.46794000E-02	-3.59470000E-03
					 6.38397000E-04	 8.38508000E-03	-5.48189000E-03
					-8.83901000E-04	 1.50433000E-02	 7.01992000E-03
					-1.02755000E-03	 1.45249000E-02	 7.01689000E-03
					-6.88168000E-04	 8.48771000E-03	 5.26391000E-03
					-3.90930000E-04	 1.48094000E-02	 3.40002000E-03
					-8.85954000E-05	 2.93954000E-02	-1.67507000E-04
					 1.46854000E-03	 2.94984000E-02	-9.62868000E-03
					-5.76607000E-05	 3.08916000E-02	-2.35122000E-04
					 1.28943000E-03	 3.08996000E-02	-9.65487000E-03
					-2.72863000E-05	 2.02970000E-02	-8.96604000E-05
					 7.53934000E-04	 2.94146000E-02	-4.89035000E-03
					 1.52278000E-03	 2.04491000E-02	-8.50530000E-03
					-7.24978000E-05	 3.01873000E-02	-2.17956000E-04
					 1.37641000E-03	 3.02210000E-02	-9.60308000E-03
					-3.56956000E-05	 2.17227000E-02	-1.55845000E-04
					 6.19882000E-04	 3.08576000E-02	-4.90786000E-03
					 1.25447000E-03	 2.18286000E-02	-8.56244000E-03
					-1.71717000E-03	 2.96261000E-02	 9.23753000E-03
					-1.42213000E-03	 3.11228000E-02	 9.27138000E-03
					-1.62347000E-03	 2.05786000E-02	 8.25524000E-03
					-8.83330000E-04	 2.94506000E-02	 4.52770000E-03
					-1.55724000E-03	 3.04132000E-02	 9.22558000E-03
					-1.30869000E-03	 2.19828000E-02	 8.27583000E-03
					-7.39428000E-04	 3.09761000E-02	 4.50224000E-03
					-3.46169000E-05	 3.21399000E-02	-2.15821000E-04
					 1.04413000E-03	 3.21656000E-02	-9.72375000E-03
					-4.02475000E-05	 3.15377000E-02	-2.19862000E-04
					 1.15752000E-03	 3.15647000E-02	-9.71212000E-03
					-1.44844000E-05	 2.28584000E-02	-1.34277000E-04
					 4.70763000E-04	 3.21007000E-02	-4.91223000E-03
					 9.02498000E-04	 2.29171000E-02	-8.52962000E-03
					-1.09958000E-03	 3.22655000E-02	 9.13051000E-03
					-1.26162000E-03	 3.17586000E-02	 9.22146000E-03
					-1.00084000E-03	 2.31003000E-02	 8.23477000E-03
					-5.89195000E-04	 3.21645000E-02	 4.39472000E-03
					-3.51887000E-05	 5.01017000E-02	-3.32737000E-04
					 1.66604000E-03	 4.99635000E-02	-1.11321000E-02
					-8.60135000E-05	 5.16706000E-02	-4.25177000E-04
					 1.46424000E-03	 5.16306000E-02	-1.12603000E-02
					-5.70216000E-05	 3.93991000E-02	-2.43309000E-04
					 7.57612000E-04	 5.00060000E-02	-5.68736000E-03
					 1.61741000E-03	 3.93557000E-02	-1.04836000E-02
					-4.72358000E-05	 5.08992000E-02	-3.48854000E-04
					 1.57308000E-03	 5.08380000E-02	-1.12258000E-02
					-3.76836000E-05	 4.09445000E-02	-3.06576000E-04
					 6.87525000E-04	 5.16491000E-02	-5.81608000E-03
					 1.36342000E-03	 4.09261000E-02	-1.05636000E-02
					-1.79047000E-03	 5.01554000E-02	 1.04490000E-02
					-1.63635000E-03	 5.18857000E-02	 1.03814000E-02
					-1.69030000E-03	 3.95919000E-02	 9.98907000E-03
					-9.15411000E-04	 5.01499000E-02	 5.00565000E-03
					-1.73371000E-03	 5.10789000E-02	 1.04172000E-02
					-1.48782000E-03	 4.11393000E-02	 9.92830000E-03
					-8.62900000E-04	 5.17573000E-02	 4.94582000E-03
					-8.06178000E-05	 5.31465000E-02	-5.24351000E-04
					 1.25300000E-03	 5.30838000E-02	-1.12823000E-02
					-8.95327000E-05	 5.24287000E-02	-4.84537000E-04
					 1.36713000E-03	 5.23795000E-02	-1.12816000E-02
					-5.53075000E-05	 4.22692000E-02	-3.92576000E-04
					 6.18969000E-04	 5.31108000E-02	-5.84146000E-03
					 1.19893000E-03	 4.22618000E-02	-1.06094000E-02
					-1.48295000E-03	 5.33914000E-02	 1.02926000E-02
					-1.56694000E-03	 5.26527000E-02	 1.03401000E-02
					-1.26045000E-03	 4.24380000E-02	 9.84898000E-03
					-7.64017000E-04	 5.32446000E-02	 4.84530000E-03
					-8.10351000E-05	 7.30706000E-02	-6.05096000E-04
					 9.52729000E-04	 7.29986000E-02	-1.15542000E-02
					-9.86460000E-05	 7.42110000E-02	-6.16304000E-04
					 1.04633000E-03	 7.40166000E-02	-1.16073000E-02
					-1.16570000E-04	 6.15003000E-02	-4.84239000E-04
					 4.55962000E-04	 7.30461000E-02	-6.03471000E-03
					 1.27417000E-03	 6.13869000E-02	-1.14877000E-02
					-1.09198000E-04	 7.36257000E-02	-6.31710000E-04
					 1.00248000E-03	 7.34579000E-02	-1.16415000E-02
					-1.11367000E-04	 6.28928000E-02	-5.44998000E-04
					 4.75995000E-04	 7.41067000E-02	-6.09835000E-03
					 1.27456000E-03	 6.27703000E-02	-1.15680000E-02
					-1.08742000E-03	 7.33240000E-02	 1.04559000E-02
					-1.24201000E-03	 7.42699000E-02	 1.03313000E-02
					-1.50030000E-03	 6.16959000E-02	 1.06027000E-02
					-6.46633000E-04	 7.31833000E-02	 4.82225000E-03
					-1.13541000E-03	 7.37339000E-02	 1.04592000E-02
					-1.50943000E-03	 6.30443000E-02	 1.05273000E-02
					-6.53994000E-04	 7.42262000E-02	 4.83390000E-03
					-5.50635000E-05	 7.53518000E-02	-6.70678000E-04
					 1.09499000E-03	 7.51772000E-02	-1.16297000E-02
					-8.90784000E-05	 7.47409000E-02	-6.43286000E-04
					 1.07777000E-03	 7.46110000E-02	-1.15754000E-02
					-1.01956000E-04	 6.42772000E-02	-5.91423000E-04
					 5.05014000E-04	 7.52674000E-02	-6.20414000E-03
					 1.30960000E-03	 6.41598000E-02	-1.16192000E-02
					-1.30174000E-03	 7.54662000E-02	 1.03725000E-02
					-1.26383000E-03	 7.48051000E-02	 1.02986000E-02
					-1.52308000E-03	 6.45118000E-02	 1.04925000E-02
					-6.52331000E-04	 7.54365000E-02	 4.87543000E-03
					-1.35471000E-04	 9.49999000E-02	-9.15860000E-04
					 5.29842000E-04	 9.49838000E-02	-1.16528000E-02
					-1.55648000E-04	 9.56991000E-02	-9.17670000E-04
					 5.07249000E-04	 9.56916000E-02	-1.15616000E-02
					-1.38279000E-04	 8.42206000E-02	-7.37025000E-04
					 2.10340000E-04	 9.49991000E-02	-6.25185000E-03
					 6.31466000E-04	 8.41456000E-02	-1.15380000E-02
					-1.33980000E-04	 9.53761000E-02	-9.43090000E-04
					 5.27652000E-04	 9.53284000E-02	-1.15656000E-02
					-1.23467000E-04	 8.50194000E-02	-7.54812000E-04
					 2.05966000E-04	 9.57068000E-02	-6.20721000E-03
					 7.13571000E-04	 8.49283000E-02	-1.15643000E-02
					-7.48237000E-04	 9.52262000E-02	 9.69855000E-03
					-7.78779000E-04	 9.57838000E-02	 9.74728000E-03
					-8.63964000E-04	 8.43520000E-02	 1.00396000E-02
					-4.57187000E-04	 9.51100000E-02	 4.39482000E-03
					-8.11696000E-04	 9.54931000E-02	 9.76221000E-03
					-9.77941000E-04	 8.51214000E-02	 1.00336000E-02
					-4.80836000E-04	 9.57838000E-02	 4.44322000E-03
					-1.67929000E-04	 9.63876000E-02	-8.84844000E-04
					 4.65937000E-04	 9.62110000E-02	-1.15569000E-02
					-1.54098000E-04	 9.60724000E-02	-8.86105000E-04
					 5.07819000E-04	 9.59101000E-02	-1.15755000E-02
					-1.18832000E-04	 8.59209000E-02	-7.51225000E-04
					 1.68646000E-04	 9.63261000E-02	-6.22950000E-03
					 7.54028000E-04	 8.57829000E-02	-1.15312000E-02
					-8.18606000E-04	 9.64434000E-02	 9.78964000E-03
					-8.15506000E-04	 9.61449000E-02	 9.77124000E-03
					-1.05530000E-03	 8.60299000E-02	 1.00016000E-02
					-4.91692000E-04	 9.63993000E-02	 4.43860000E-03
					-2.13234000E-04	 1.16280000E-01	-1.11108000E-03
					 4.37938000E-04	 1.16151000E-01	-1.14545000E-02
					-1.34516000E-04	 1.17133000E-01	-1.16380000E-03
					 7.00293000E-04	 1.16965000E-01	-1.15722000E-02
					-1.22231000E-04	 1.05766000E-01	-1.07469000E-03
					 1.52626000E-04	 1.16228000E-01	-6.27087000E-03
					 5.46538000E-04	 1.05648000E-01	-1.16145000E-02
					-1.53628000E-04	 1.16668000E-01	-1.09269000E-03
					 5.23708000E-04	 1.16516000E-01	-1.15574000E-02
					-1.04835000E-04	 1.06429000E-01	-1.02333000E-03
					 1.86752000E-04	 1.17020000E-01	-6.41384000E-03
					 6.08762000E-04	 1.06273000E-01	-1.16396000E-02
					-8.34623000E-04	 1.16464000E-01	 9.35327000E-03
					-8.56504000E-04	 1.17023000E-01	 9.29546000E-03
					-7.76798000E-04	 1.05834000E-01	 9.56617000E-03
					-4.56239000E-04	 1.16391000E-01	 4.15579000E-03
					-8.39412000E-04	 1.16717000E-01	 9.26971000E-03
					-7.64583000E-04	 1.06554000E-01	 9.58716000E-03
					-4.80342000E-04	 1.17076000E-01	 4.00356000E-03
					-6.18476000E-05	 1.17809000E-01	-1.30347000E-03
					 8.77696000E-04	 1.17535000E-01	-1.15684000E-02
					-1.16306000E-04	 1.17422000E-01	-1.19405000E-03
					 7.89927000E-04	 1.17256000E-01	-1.15761000E-02
					-1.22768000E-04	 1.07152000E-01	-1.10054000E-03
					 3.01104000E-04	 1.17650000E-01	-6.33851000E-03
					 6.23957000E-04	 1.07000000E-01	-1.16154000E-02
					-8.68930000E-04	 1.17863000E-01	 9.15121000E-03
					-8.42411000E-04	 1.17465000E-01	 9.13812000E-03
					-7.84941000E-04	 1.07160000E-01	 9.49990000E-03
					-5.60849000E-04	 1.17801000E-01	 4.03937000E-03
					-1.21002000E-04	 1.37151000E-01	-1.33682000E-03
					 1.87032000E-04	 1.37348000E-01	-1.18778000E-02
					 2.42957000E-04	 1.37306000E-01	-1.36835000E-03
					-8.21723000E-04	 1.36408000E-01	-1.14260000E-02
					-1.63411000E-04	 1.26873000E-01	-1.22321000E-03
					-7.82925000E-05	 1.37235000E-01	-6.51430000E-03
					 1.30590000E-04	 1.26641000E-01	-1.15505000E-02
					-1.96380000E-05	 1.37234000E-01	-1.35755000E-03
					-2.09866000E-04	 1.37251000E-01	-1.17339000E-02
					-1.81933000E-04	 1.27017000E-01	-1.30620000E-03
					 8.93618000E-05	 1.36972000E-01	-6.44264000E-03
					-1.80144000E-04	 1.26818000E-01	-1.14047000E-02
					-3.48883000E-04	 1.37383000E-01	 9.08186000E-03
					-3.08237000E-04	 1.36945000E-01	 8.64242000E-03
					-4.65535000E-04	 1.26791000E-01	 9.08610000E-03
					-2.64289000E-04	 1.37254000E-01	 3.70210000E-03
					-3.02759000E-04	 1.37189000E-01	 8.87395000E-03
					-4.92921000E-04	 1.27219000E-01	 8.92226000E-03
					-6.18596000E-05	 1.37119000E-01	 3.78458000E-03
					 1.55636000E-04	 1.36367000E-01	-1.09105000E-03
					-1.79440000E-03	 1.32248000E-01	-9.85370000E-03
					 3.26085000E-04	 1.36771000E-01	-1.35253000E-03
					-1.32205000E-03	 1.34057000E-01	-1.00926000E-02
					-2.76590000E-04	 1.27147000E-01	-1.41203000E-03
					-7.66237000E-04	 1.34456000E-01	-6.39747000E-03
					 1.55388000E-05	 1.27187000E-01	-1.11545000E-02
					-6.66199000E-04	 1.38221000E-01	 9.39695000E-03
					-5.12868000E-04	 1.37383000E-01	 8.95913000E-03
					-6.03296000E-04	 1.27387000E-01	 9.05952000E-03
					-3.43649000E-05	 1.37443000E-01	 4.04998000E-03
					 0.00000000E+00	 0.00000000E+00	 0.00000000E+00
					 0.00000000E+00	 0.00000000E+00	 0.00000000E+00
					 5.69385000E-07	-4.70120000E-03	 2.57705000E-04
					-4.84740000E-03	-5.30447000E-03	 9.27463000E-03
					 0.00000000E+00	 0.00000000E+00	 0.00000000E+00
					 0.00000000E+00	 0.00000000E+00	 0.00000000E+00
					 7.58077000E-05	-8.61504000E-03	 1.80033000E-04
					-3.20788000E-03	-9.37784000E-03	 9.09728000E-03
					 0.00000000E+00	 0.00000000E+00	 0.00000000E+00
					 5.70372000E-06	 2.63888000E-04	 1.61150000E-04
					-2.35184000E-03	-4.82821000E-03	 4.95512000E-03
					-2.95100000E-03	-5.72181000E-04	 4.42074000E-03
					 0.00000000E+00	 0.00000000E+00	 0.00000000E+00
					 0.00000000E+00	 0.00000000E+00	 0.00000000E+00
					 3.83856000E-05	-6.91195000E-03	 2.07481000E-04
					-4.01010000E-03	-7.67121000E-03	 8.94207000E-03
					 0.00000000E+00	 0.00000000E+00	 0.00000000E+00
					 3.96802000E-05	-1.93157000E-03	 6.73109000E-05
					-1.58082000E-03	-8.78339000E-03	 4.62010000E-03
					-1.56219000E-03	-2.78596000E-03	 4.19790000E-03
					 0.00000000E+00	 0.00000000E+00	 0.00000000E+00
					 4.60497000E-03	-5.10393000E-03	-8.71358000E-03
					 0.00000000E+00	 0.00000000E+00	 0.00000000E+00
					 3.16886000E-03	-9.15321000E-03	-8.90817000E-03
					 0.00000000E+00	 0.00000000E+00	 0.00000000E+00
					 2.97390000E-03	-4.09525000E-04	-4.16349000E-03
					 2.21729000E-03	-4.70753000E-03	-4.47170000E-03
					 0.00000000E+00	 0.00000000E+00	 0.00000000E+00
					 3.86575000E-03	-7.43181000E-03	-8.53932000E-03
					 0.00000000E+00	 0.00000000E+00	 0.00000000E+00
					 1.64035000E-03	-2.63927000E-03	-4.04721000E-03
					 1.63241000E-03	-8.66332000E-03	-4.31101000E-03
					 0.00000000E+00	 0.00000000E+00	 0.00000000E+00
					 0.00000000E+00	 0.00000000E+00	 0.00000000E+00
					 1.09406000E-04	-1.12373000E-02	 4.78091000E-05
					-1.84592000E-03	-1.20181000E-02	 9.03029000E-03
					 0.00000000E+00	 0.00000000E+00	 0.00000000E+00
					 0.00000000E+00	 0.00000000E+00	 0.00000000E+00
					 9.68932000E-05	-1.01809000E-02	 8.10964000E-05
					-2.52590000E-03	-1.08911000E-02	 9.32111000E-03
					 0.00000000E+00	 0.00000000E+00	 0.00000000E+00
					 4.81918000E-05	-2.94725000E-03	 5.54087000E-05
					-8.33705000E-04	-1.14008000E-02	 4.27966000E-03
					-1.69007000E-04	-3.75562000E-03	 4.35310000E-03
					 0.00000000E+00	 0.00000000E+00	 0.00000000E+00
					 1.94084000E-03	-1.17108000E-02	-8.94034000E-03
					 0.00000000E+00	 0.00000000E+00	 0.00000000E+00
					 2.54736000E-03	-1.06089000E-02	-9.17069000E-03
					 0.00000000E+00	 0.00000000E+00	 0.00000000E+00
					 3.20052000E-04	-3.65761000E-03	-4.27865000E-03
					 9.70552000E-04	-1.12397000E-02	-4.12326000E-03
					-4.05934000E-05	-3.04900000E-02	 1.39653000E-04
					-6.28155000E-03	-3.14311000E-02	 1.74891000E-02
					 1.21243000E-04	-3.62819000E-02	 9.15377000E-07
					-5.27076000E-03	-3.70745000E-02	 1.73802000E-02
					-2.58105000E-05	-1.53735000E-02	 2.63778000E-04
					-3.22934000E-03	-3.08156000E-02	 8.84672000E-03
					-5.60337000E-03	-1.62333000E-02	 1.36837000E-02
					 4.01134000E-05	-3.34904000E-02	 5.24419000E-05
					-5.77530000E-03	-3.42808000E-02	 1.73180000E-02
					-1.04062000E-05	-2.03252000E-02	 1.40185000E-04
					-2.53846000E-03	-3.65329000E-02	 8.59421000E-03
					-4.25279000E-03	-2.12136000E-02	 1.35776000E-02
					 6.44416000E-03	-3.05375000E-02	-1.72572000E-02
					 5.31619000E-03	-3.64811000E-02	-1.74346000E-02
					 5.70173000E-03	-1.56128000E-02	-1.31989000E-02
					 3.14453000E-03	-3.03932000E-02	-8.56127000E-03
					 5.88041000E-03	-3.36560000E-02	-1.72681000E-02
					 4.33799000E-03	-2.07069000E-02	-1.33711000E-02
					 2.72521000E-03	-3.62675000E-02	-8.60861000E-03
					 1.67870000E-04	-4.10218000E-02	-8.30362000E-05
					-4.29237000E-03	-4.19170000E-02	 1.71783000E-02
					 1.56806000E-04	-3.87399000E-02	-4.56587000E-05
					-4.78171000E-03	-3.96542000E-02	 1.74245000E-02
					 5.83473000E-05	-2.39650000E-02	 8.12249000E-05
					-2.08800000E-03	-4.13510000E-02	 8.27547000E-03
					-2.94463000E-03	-2.48462000E-02	 1.33986000E-02
					 4.28370000E-03	-4.10299000E-02	-1.74822000E-02
					 4.80272000E-03	-3.88970000E-02	-1.76139000E-02
					 3.14946000E-03	-2.44132000E-02	-1.33878000E-02
					 2.26618000E-03	-4.09153000E-02	-8.60192000E-03
					-5.32396000E-05	-7.02082000E-02	-4.15657000E-04
					-8.45695000E-03	-7.11014000E-02	 2.28527000E-02
					 9.60767000E-05	-7.81960000E-02	-8.32081000E-04
					-7.61626000E-03	-7.92167000E-02	 2.25751000E-02
					-2.04670000E-05	-4.88735000E-02	-3.76027000E-05
					-4.23708000E-03	-7.05381000E-02	 1.13338000E-02
					-7.32592000E-03	-4.99032000E-02	 2.04918000E-02
					 2.40752000E-05	-7.43152000E-02	-6.04835000E-04
					-8.00627000E-03	-7.52543000E-02	 2.25301000E-02
					 5.07171000E-05	-5.57858000E-02	-3.47563000E-04
					-3.82046000E-03	-7.86059000E-02	 1.08149000E-02
					-6.42764000E-03	-5.67617000E-02	 2.02632000E-02
					 8.30712000E-03	-6.99745000E-02	-2.36713000E-02
					 7.77382000E-03	-7.79680000E-02	-2.40680000E-02
					 7.32306000E-03	-4.88730000E-02	-2.06430000E-02
					 4.21442000E-03	-6.99879000E-02	-1.22030000E-02
					 8.03494000E-03	-7.40567000E-02	-2.36634000E-02
					 6.59212000E-03	-5.57577000E-02	-2.09399000E-02
					 3.91233000E-03	-7.79916000E-02	-1.24023000E-02
					 1.03876000E-04	-8.54875000E-02	-1.13735000E-03
					-6.99725000E-03	-8.66045000E-02	 2.20530000E-02
					 1.14329000E-04	-8.19387000E-02	-9.74832000E-04
					-7.30757000E-03	-8.28692000E-02	 2.24903000E-02
					 9.10190000E-05	-6.18751000E-02	-5.53552000E-04
					-3.37057000E-03	-8.59364000E-02	 1.02068000E-02
					-5.55284000E-03	-6.27874000E-02	 1.99465000E-02
					 6.98767000E-03	-8.52030000E-02	-2.44825000E-02
					 7.37360000E-03	-8.16714000E-02	-2.44953000E-02
					 5.70494000E-03	-6.17989000E-02	-2.11373000E-02
					 3.53010000E-03	-8.52581000E-02	-1.25309000E-02
					 1.50976000E-04	-1.20083000E-01	-1.40128000E-03
					-1.02810000E-02	-1.20798000E-01	 2.59494000E-02