# vtk DataFile Version 3.0

ASCII
DATASET UNSTRUCTURED_GRID

POINTS 522 double
	 1.00000000E+00	 1.00000000E+00	-5.96046000E-08
	 1.00000000E+00	 5.00000000E-01	-5.96046000E-08
	 1.00000000E+00	 5.00000000E-01	 1.00000000E+00
	 1.00000000E+00	 1.00000000E+00	 1.00000000E+00
	 5.00000000E-01	 1.00000000E+00	-5.96046000E-08
	 5.00000000E-01	 5.00000000E-01	-5.96046000E-08
	 5.00000000E-01	 5.00000000E-01	 1.00000000E+00
	 5.00000000E-01	 1.00000000E+00	 1.00000000E+00
	 1.00000000E+00	 7.50000000E-01	-5.96046000E-08
	 1.00000000E+00	 5.00000000E-01	 5.00000000E-01
	 1.00000000E+00	 7.50000000E-01	 1.00000000E+00
	 1.00000000E+00	 1.00000000E+00	 5.00000000E-01
	 7.50000000E-01	 1.00000000E+00	-5.96046000E-08
	 7.50000000E-01	 5.00000000E-01	-5.96046000E-08
	 7.50000000E-01	 5.00000000E-01	 1.00000000E+00
	 7.50000000E-01	 1.00000000E+00	 1.00000000E+00
	 5.00000000E-01	 7.50000000E-01	-5.96046000E-08
	 5.00000000E-01	 5.00000000E-01	 5.00000000E-01
	 5.00000000E-01	 7.50000000E-01	 1.00000000E+00
	 5.00000000E-01	 1.00000000E+00	 5.00000000E-01
	 1.00000000E+00	-1.49012000E-08	-5.96046000E-08
	 1.00000000E+00	-1.49012000E-08	 1.00000000E+00
	 5.00000000E-01	-1.49012000E-08	-5.96046000E-08
	 5.00000000E-01	-1.49012000E-08	 1.00000000E+00
	 1.00000000E+00	 2.50000000E-01	-5.96046000E-08
	 1.00000000E+00	-1.49012000E-08	 5.00000000E-01
	 1.00000000E+00	 2.50000000E-01	 1.00000000E+00
	 7.50000000E-01	-1.49012000E-08	-5.96046000E-08
	 7.50000000E-01	-1.49012000E-08	 1.00000000E+00
	 5.00000000E-01	 2.50000000E-01	-5.96046000E-08
	 5.00000000E-01	-1.49012000E-08	 5.00000000E-01
	 5.00000000E-01	 2.50000000E-01	 1.00000000E+00
	-7.45058000E-09	 1.00000000E+00	-5.96046000E-08
	-7.45058000E-09	 5.00000000E-01	-5.96046000E-08
	-7.45058000E-09	 5.00000000E-01	 1.00000000E+00
	-7.45058000E-09	 1.00000000E+00	 1.00000000E+00
	 2.50000000E-01	 1.00000000E+00	-5.96046000E-08
	 2.50000000E-01	 5.00000000E-01	-5.96046000E-08
	 2.50000000E-01	 5.00000000E-01	 1.00000000E+00
	 2.50000000E-01	 1.00000000E+00	 1.00000000E+00
	-7.45058000E-09	 7.50000000E-01	-5.96046000E-08
	-7.45058000E-09	 5.00000000E-01	 5.00000000E-01
	-7.45058000E-09	 7.50000000E-01	 1.00000000E+00
	-7.45058000E-09	 1.00000000E+00	 5.00000000E-01
	-7.45058000E-09	-1.49012000E-08	-5.96046000E-08
	-7.45058000E-09	-1.49012000E-08	 1.00000000E+00
	 2.50000000E-01	-1.49012000E-08	-5.96046000E-08
	 2.50000000E-01	-1.49012000E-08	 1.00000000E+00
	-7.45058000E-09	 2.50000000E-01	-5.96046000E-08
	-7.45058000E-09	-1.49012000E-08	 5.00000000E-01
	-7.45058000E-09	 2.50000000E-01	 1.00000000E+00
	 1.00000000E+00	 5.00000000E-01	 2.00000000E+00
	 1.00000000E+00	 1.00000000E+00	 2.00000000E+00
	 5.00000000E-01	 5.00000000E-01	 2.00000000E+00
	 5.00000000E-01	 1.00000000E+00	 2.00000000E+00
	 1.00000000E+00	 5.00000000E-01	 1.50000000E+00
	 1.00000000E+00	 7.50000000E-01	 2.00000000E+00
	 1.00000000E+00	 1.00000000E+00	 1.50000000E+00
	 7.50000000E-01	 5.00000000E-01	 2.00000000E+00
	 7.50000000E-01	 1.00000000E+00	 2.00000000E+00
	 5.00000000E-01	 5.00000000E-01	 1.50000000E+00
	 5.00000000E-01	 7.50000000E-01	 2.00000000E+00
	 5.00000000E-01	 1.00000000E+00	 1.50000000E+00
	 1.00000000E+00	-1.49012000E-08	 2.00000000E+00
	 5.00000000E-01	-1.49012000E-08	 2.00000000E+00
	 1.00000000E+00	-1.49012000E-08	 1.50000000E+00
	 1.00000000E+00	 2.50000000E-01	 2.00000000E+00
	 7.50000000E-01	-1.49012000E-08	 2.00000000E+00
	 5.00000000E-01	-1.49012000E-08	 1.50000000E+00
	 5.00000000E-01	 2.50000000E-01	 2.00000000E+00
	-7.45058000E-09	 5.00000000E-01	 2.00000000E+00
	-7.45058000E-09	 1.00000000E+00	 2.00000000E+00
	 2.50000000E-01	 5.00000000E-01	 2.00000000E+00
	 2.50000000E-01	 1.00000000E+00	 2.00000000E+00
	-7.45058000E-09	 5.00000000E-01	 1.50000000E+00
	-7.45058000E-09	 7.50000000E-01	 2.00000000E+00
	-7.45058000E-09	 1.00000000E+00	 1.50000000E+00
	-7.45058000E-09	-1.49012000E-08	 2.00000000E+00
	 2.50000000E-01	-1.49012000E-08	 2.00000000E+00
	-7.45058000E-09	-1.49012000E-08	 1.50000000E+00
	-7.45058000E-09	 2.50000000E-01	 2.00000000E+00
	 1.00000000E+00	 5.00000000E-01	 3.00000000E+00
	 1.00000000E+00	 1.00000000E+00	 3.00000000E+00
	 5.00000000E-01	 5.00000000E-01	 3.00000000E+00
	 5.00000000E-01	 1.00000000E+00	 3.00000000E+00
	 1.00000000E+00	 5.00000000E-01	 2.50000000E+00
	 1.00000000E+00	 7.50000000E-01	 3.00000000E+00
	 1.00000000E+00	 1.00000000E+00	 2.50000000E+00
	 7.50000000E-01	 5.00000000E-01	 3.00000000E+00
	 7.50000000E-01	 1.00000000E+00	 3.00000000E+00
	 5.00000000E-01	 5.00000000E-01	 2.50000000E+00
	 5.00000000E-01	 7.50000000E-01	 3.00000000E+00
	 5.00000000E-01	 1.00000000E+00	 2.50000000E+00
	 1.00000000E+00	-1.49012000E-08	 3.00000000E+00
	 5.00000000E-01	-1.49012000E-08	 3.00000000E+00
	 1.00000000E+00	-1.49012000E-08	 2.50000000E+00
	 1.00000000E+00	 2.50000000E-01	 3.00000000E+00
	 7.50000000E-01	-1.49012000E-08	 3.00000000E+00
	 5.00000000E-01	-1.49012000E-08	 2.50000000E+00
	 5.00000000E-01	 2.50000000E-01	 3.00000000E+00
	-7.45058000E-09	 5.00000000E-01	 3.00000000E+00
	-7.45058000E-09	 1.00000000E+00	 3.00000000E+00
	 2.50000000E-01	 5.00000000E-01	 3.00000000E+00
	 2.50000000E-01	 1.00000000E+00	 3.00000000E+00
	-7.45058000E-09	 5.00000000E-01	 2.50000000E+00
	-7.45058000E-09	 7.50000000E-01	 3.00000000E+00
	-7.45058000E-09	 1.00000000E+00	 2.50000000E+00
	-7.45058000E-09	-1.49012000E-08	 3.00000000E+00
	 2.50000000E-01	-1.49012000E-08	 3.00000000E+00
	-7.45058000E-09	-1.49012000E-08	 2.50000000E+00
	-7.45058000E-09	 2.50000000E-01	 3.00000000E+00
	 1.00000000E+00	 5.00000000E-01	 4.00000000E+00
	 1.00000000E+00	 1.00000000E+00	 4.00000000E+00
	 5.00000000E-01	 5.00000000E-01	 4.00000000E+00
	 5.00000000E-01	 1.00000000E+00	 4.00000000E+00
	 1.00000000E+00	 5.00000000E-01	 3.50000000E+00
	 1.00000000E+00	 7.50000000E-01	 4.00000000E+00
	 1.00000000E+00	 1.00000000E+00	 3.50000000E+00
	 7.50000000E-01	 5.00000000E-01	 4.00000000E+00
	 7.50000000E-01	 1.00000000E+00	 4.00000000E+00
	 5.00000000E-01	 5.00000000E-01	 3.50000000E+00
	 5.00000000E-01	 7.50000000E-01	 4.00000000E+00
	 5.00000000E-01	 1.00000000E+00	 3.50000000E+00
	 1.00000000E+00	-1.49012000E-08	 4.00000000E+00
	 5.00000000E-01	-1.49012000E-08	 4.00000000E+00
	 1.00000000E+00	-1.49012000E-08	 3.50000000E+00
	 1.00000000E+00	 2.50000000E-01	 4.00000000E+00
	 7.50000000E-01	-1.49012000E-08	 4.00000000E+00
	 5.00000000E-01	-1.49012000E-08	 3.50000000E+00
	 5.00000000E-01	 2.50000000E-01	 4.00000000E+00
	-7.45058000E-09	 5.00000000E-01	 4.00000000E+00
	-7.45058000E-09	 1.00000000E+00	 4.00000000E+00
	 2.50000000E-01	 5.00000000E-01	 4.00000000E+00
	 2.50000000E-01	 1.00000000E+00	 4.00000000E+00
	-7.45058000E-09	 5.00000000E-01	 3.50000000E+00
	-7.45058000E-09	 7.50000000E-01	 4.00000000E+00
	-7.45058000E-09	 1.00000000E+00	 3.50000000E+00
	-7.45058000E-09	-1.49012000E-08	 4.00000000E+00
	 2.50000000E-01	-1.49012000E-08	 4.00000000E+00
	-7.45058000E-09	-1.49012000E-08	 3.50000000E+00
	-7.45058000E-09	 2.50000000E-01	 4.00000000E+00
	 1.00000000E+00	 5.00000000E-01	 5.00000000E+00
	 1.00000000E+00	 1.00000000E+00	 5.00000000E+00
	 5.00000000E-01	 5.00000000E-01	 5.00000000E+00
	 5.00000000E-01	 1.00000000E+00	 5.00000000E+00
	 1.00000000E+00	 5.00000000E-01	 4.50000000E+00
	 1.00000000E+00	 7.50000000E-01	 5.00000000E+00
	 1.00000000E+00	 1.00000000E+00	 4.50000000E+00
	 7.50000000E-01	 5.00000000E-01	 5.00000000E+00
	 7.50000000E-01	 1.00000000E+00	 5.00000000E+00
	 5.00000000E-01	 5.00000000E-01	 4.50000000E+00
	 5.00000000E-01	 7.50000000E-01	 5.00000000E+00
	 5.00000000E-01	 1.00000000E+00	 4.50000000E+00
	 1.00000000E+00	-1.49012000E-08	 5.00000000E+00
	 5.00000000E-01	-1.49012000E-08	 5.00000000E+00
	 1.00000000E+00	-1.49012000E-08	 4.50000000E+00
	 1.00000000E+00	 2.50000000E-01	 5.00000000E+00
	 7.50000000E-01	-1.49012000E-08	 5.00000000E+00
	 5.00000000E-01	-1.49012000E-08	 4.50000000E+00
	 5.00000000E-01	 2.50000000E-01	 5.00000000E+00
	-7.45058000E-09	 5.00000000E-01	 5.00000000E+00
	-7.45058000E-09	 1.00000000E+00	 5.00000000E+00
	 2.50000000E-01	 5.00000000E-01	 5.00000000E+00
	 2.50000000E-01	 1.00000000E+00	 5.00000000E+00
	-7.45058000E-09	 5.00000000E-01	 4.50000000E+00
	-7.45058000E-09	 7.50000000E-01	 5.00000000E+00
	-7.45058000E-09	 1.00000000E+00	 4.50000000E+00
	-7.45058000E-09	-1.49012000E-08	 5.00000000E+00
	 2.50000000E-01	-1.49012000E-08	 5.00000000E+00
	-7.45058000E-09	-1.49012000E-08	 4.50000000E+00
	-7.45058000E-09	 2.50000000E-01	 5.00000000E+00
	 1.00000000E+00	 5.00000000E-01	 6.00000000E+00
	 1.00000000E+00	 1.00000000E+00	 6.00000000E+00
	 5.00000000E-01	 5.00000000E-01	 6.00000000E+00
	 5.00000000E-01	 1.00000000E+00	 6.00000000E+00
	 1.00000000E+00	 5.00000000E-01	 5.50000000E+00
	 1.00000000E+00	 7.50000000E-01	 6.00000000E+00
	 1.00000000E+00	 1.00000000E+00	 5.50000000E+00
	 7.50000000E-01	 5.00000000E-01	 6.00000000E+00
	 7.50000000E-01	 1.00000000E+00	 6.00000000E+00
	 5.00000000E-01	 5.00000000E-01	 5.50000000E+00
	 5.00000000E-01	 7.50000000E-01	 6.00000000E+00
	 5.00000000E-01	 1.00000000E+00	 5.50000000E+00
	 1.00000000E+00	-1.49012000E-08	 6.00000000E+00
	 5.00000000E-01	-1.49012000E-08	 6.00000000E+00
	 1.00000000E+00	-1.49012000E-08	 5.50000000E+00
	 1.00000000E+00	 2.50000000E-01	 6.00000000E+00
	 7.50000000E-01	-1.49012000E-08	 6.00000000E+00
	 5.00000000E-01	-1.49012000E-08	 5.50000000E+00
	 5.00000000E-01	 2.50000000E-01	 6.00000000E+00
	-7.45058000E-09	 5.00000000E-01	 6.00000000E+00
	-7.45058000E-09	 1.00000000E+00	 6.00000000E+00
	 2.50000000E-01	 5.00000000E-01	 6.00000000E+00
	 2.50000000E-01	 1.00000000E+00	 6.00000000E+00
	-7.45058000E-09	 5.00000000E-01	 5.50000000E+00
	-7.45058000E-09	 7.50000000E-01	 6.00000000E+00
	-7.45058000E-09	 1.00000000E+00	 5.50000000E+00
	-7.45058000E-09	-1.49012000E-08	 6.00000000E+00
	 2.50000000E-01	-1.49012000E-08	 6.00000000E+00
	-7.45058000E-09	-1.49012000E-08	 5.50000000E+00
	-7.45058000E-09	 2.50000000E-01	 6.00000000E+00
	 1.00000000E+00	 5.00000000E-01	 7.00000000E+00
[...]
POINT_DATA 522
FIELD U 1
	U 3 522 double
		 0.00000000E+00	 0.00000000E+00	 0.00000000E+00
		 0.00000000E+00	 0.00000000E+00	 0.00000000E+00
		-2.37165000E-05	 1.43146000E-03	 3.49005000E-05
		-1.47476000E-04	 1.43153000E-03	-6.63785000E-04
		 0.00000000E+00	 0.00000000E+00	 0.00000000E+00
		 0.00000000E+00	 0.00000000E+00	 0.00000000E+00
		-2.01500000E-05	 1.30330000E-03	 2.34722000E-05
		-1.54970000E-04	 1.30228000E-03	-7.00413000E-04
		 0.00000000E+00	 0.00000000E+00	 0.00000000E+00
		-1.04416000E-05	 5.09070000E-04	 1.78054000E-05
		-8.49609000E-05	 1.42240000E-03	-2.57832000E-04
		-4.89336000E-06	 5.54279000E-04	-4.28207000E-04
		 0.00000000E+00	 0.00000000E+00	 0.00000000E+00
		 0.00000000E+00	 0.00000000E+00	 0.00000000E+00
		-2.18940000E-05	 1.37600000E-03	 2.85087000E-05
		-1.52391000E-04	 1.37399000E-03	-6.95799000E-04
		 0.00000000E+00	 0.00000000E+00	 0.00000000E+00
		-5.84679000E-06	 4.46678000E-04	 1.01985000E-05
		-8.84051000E-05	 1.29256000E-03	-2.92160000E-04
		-1.08847000E-04	 4.99129000E-04	-4.34577000E-04
		 0.00000000E+00	 0.00000000E+00	 0.00000000E+00
		 1.02506000E-04	 1.44360000E-03	 7.33371000E-04
		 0.00000000E+00	 0.00000000E+00	 0.00000000E+00
		 1.17438000E-04	 1.31188000E-03	 7.47695000E-04
		 0.00000000E+00	 0.00000000E+00	 0.00000000E+00
		-1.36456000E-05	 5.66858000E-04	 4.65826000E-04
		 3.81763000E-05	 1.42882000E-03	 3.27436000E-04
		 0.00000000E+00	 0.00000000E+00	 0.00000000E+00
		 1.11353000E-04	 1.38470000E-03	 7.52895000E-04
		 0.00000000E+00	 0.00000000E+00	 0.00000000E+00
		 9.99534000E-05	 5.07147000E-04	 4.56551000E-04
		 4.89606000E-05	 1.29736000E-03	 3.39039000E-04
		 0.00000000E+00	 0.00000000E+00	 0.00000000E+00
		 0.00000000E+00	 0.00000000E+00	 0.00000000E+00
		-1.62970000E-05	 1.15846000E-03	 1.06337000E-05
		-1.75923000E-04	 1.14791000E-03	-6.87478000E-04
		 0.00000000E+00	 0.00000000E+00	 0.00000000E+00
		 0.00000000E+00	 0.00000000E+00	 0.00000000E+00
		-1.81284000E-05	 1.23787000E-03	 1.78450000E-05
		-1.64690000E-04	 1.23444000E-03	-6.99719000E-04
		 0.00000000E+00	 0.00000000E+00	 0.00000000E+00
		-2.75092000E-06	 2.99887000E-04	 3.86326000E-06
		-9.46320000E-05	 1.14372000E-03	-2.88272000E-04
		-2.13580000E-04	 3.50468000E-04	-4.42308000E-04
		 0.00000000E+00	 0.00000000E+00	 0.00000000E+00
		 1.46011000E-04	 1.15379000E-03	 7.09656000E-04
		 0.00000000E+00	 0.00000000E+00	 0.00000000E+00
		 1.31300000E-04	 1.24249000E-03	 7.35987000E-04
		 0.00000000E+00	 0.00000000E+00	 0.00000000E+00
		 2.11055000E-04	 3.53490000E-04	 4.51097000E-04
		 6.26390000E-05	 1.14630000E-03	 3.09634000E-04
		-4.77740000E-05	 2.65400000E-03	 5.49094000E-05
		 1.50917000E-04	 2.60081000E-03	-2.83158000E-04
		-4.63839000E-05	 2.92055000E-03	 4.44724000E-05
		 2.76550000E-04	 2.85814000E-03	-3.04029000E-04
		-3.73172000E-05	 2.26655000E-03	 4.58814000E-05
		 5.40862000E-05	 2.64408000E-03	-1.54469000E-04
		-1.18548000E-04	 2.25678000E-03	-5.83096000E-04
		-4.71098000E-05	 2.77251000E-03	 4.98812000E-05
		 2.13563000E-04	 2.71118000E-03	-2.31974000E-04
		-3.52803000E-05	 2.23075000E-03	 3.46866000E-05
		 1.13700000E-04	 2.90626000E-03	-1.08100000E-04
		-4.31269000E-05	 2.20435000E-03	-6.09729000E-04
		-2.45112000E-04	 2.60984000E-03	 3.91531000E-04
		-3.67238000E-04	 2.86623000E-03	 3.91767000E-04
		 4.56308000E-05	 2.26783000E-03	 6.74684000E-04
		-1.49144000E-04	 2.64948000E-03	 2.63840000E-04
		-3.05802000E-04	 2.71951000E-03	 3.30258000E-04
		-2.49044000E-05	 2.21384000E-03	 6.79094000E-04
		-2.05523000E-04	 2.91054000E-03	 1.96671000E-04
		-4.34506000E-05	 3.29881000E-03	 3.50077000E-05
		 3.84845000E-04	 3.22877000E-03	-3.02882000E-04
		-4.54220000E-05	 3.09305000E-03	 3.94684000E-05
		 3.29314000E-04	 3.02931000E-03	-3.74704000E-04
		-3.23451000E-05	 2.24850000E-03	 2.22549000E-05
		 1.71931000E-04	 3.27999000E-03	-4.15042000E-05
		 2.01357000E-06	 2.20993000E-03	-6.06865000E-04
		-4.69904000E-04	 3.23548000E-03	 3.71707000E-04
		-4.18029000E-04	 3.03710000E-03	 4.52686000E-04
		-6.43334000E-05	 2.21738000E-03	 6.51489000E-04
		-2.58130000E-04	 3.28289000E-03	 1.11032000E-04
		-6.58463000E-05	 1.66430000E-03	 6.84464000E-05
		 1.09097000E-03	 1.55565000E-03	 8.13922000E-04
		-6.03656000E-05	 2.93256000E-03	 6.25930000E-05
		 1.31204000E-03	 2.82130000E-03	 7.97266000E-04
		-5.71937000E-05	 2.45609000E-03	 6.30112000E-05
		 5.12380000E-04	 1.63717000E-03	 3.88033000E-04
		 5.95604000E-04	 2.37442000E-03	 1.87802000E-04
		-6.37351000E-05	 2.27153000E-03	 6.55096000E-05
		 1.20172000E-03	 2.16200000E-03	 8.81253000E-04
		-5.40740000E-05	 3.19322000E-03	 5.35928000E-05
		 6.26030000E-04	 2.90447000E-03	 4.54087000E-04
		 7.61592000E-04	 3.10758000E-03	 1.67830000E-04
		-1.22183000E-03	 1.56271000E-03	-6.78837000E-04
		-1.43358000E-03	 2.82877000E-03	-6.73570000E-04
		-7.08787000E-04	 2.38146000E-03	-6.40923000E-05
		-6.43781000E-04	 1.64025000E-03	-2.51442000E-04
		-1.32874000E-03	 2.16902000E-03	-7.52316000E-04
		-8.68880000E-04	 3.11403000E-03	-6.25550000E-05
		-7.46806000E-04	 2.90763000E-03	-3.29352000E-04
		-5.30040000E-05	 4.41050000E-03	 5.82102000E-05
		 1.53288000E-03	 4.29786000E-03	 8.04643000E-04
		-5.65048000E-05	 3.64531000E-03	 6.01489000E-05
		 1.42202000E-03	 3.53278000E-03	 7.11237000E-04
		-4.93396000E-05	 4.08763000E-03	 4.66848000E-05
		 7.39550000E-04	 4.38148000E-03	 5.43705000E-04
		 9.21252000E-04	 3.99860000E-03	 1.72397000E-04
		-1.64152000E-03	 4.30998000E-03	-6.89365000E-04
		-1.53710000E-03	 3.54206000E-03	-5.91561000E-04
		-1.01990000E-03	 4.00593000E-03	-8.06153000E-05
		-8.46122000E-04	 4.38731000E-03	-4.28159000E-04
		-7.77573000E-05	-2.40003000E-03	 6.31466000E-05
		 2.09895000E-03	-2.53794000E-03	 2.51309000E-03
		-6.94777000E-05	-8.28103000E-05	 7.35694000E-05
		 2.37535000E-03	-2.27884000E-04	 2.52827000E-03
		-7.31511000E-05	 1.13115000E-04	 6.87650000E-05
		 1.01263000E-03	-2.43306000E-03	 1.20326000E-03
		 1.59089000E-03	-1.36343000E-05	 1.62865000E-03
		-7.45408000E-05	-1.27566000E-03	 6.84279000E-05
		 2.23661000E-03	-1.41897000E-03	 2.59687000E-03
		-6.65770000E-05	 1.90828000E-03	 6.97022000E-05
		 1.15327000E-03	-1.18778000E-04	 1.29174000E-03
		 1.85253000E-03	 1.77854000E-03	 1.62343000E-03
		-2.25395000E-03	-2.51422000E-03	-2.38724000E-03
		-2.51687000E-03	-2.01371000E-04	-2.38194000E-03
		-1.73698000E-03	-1.95782000E-06	-1.49183000E-03
		-1.16797000E-03	-2.42188000E-03	-1.07701000E-03
		-2.38582000E-03	-1.39401000E-03	-2.46075000E-03
		-1.98782000E-03	 1.79235000E-03	-1.48454000E-03
		-1.29263000E-03	-1.06240000E-04	-1.14483000E-03
		-5.71285000E-05	 2.49238000E-03	 8.52290000E-05
		 2.65409000E-03	 2.34642000E-03	 2.53531000E-03
		-6.34138000E-05	 1.17044000E-03	 7.90392000E-05
		 2.51419000E-03	 1.02417000E-03	 2.45983000E-03
		-5.68925000E-05	 3.95393000E-03	 7.11829000E-05
		 1.29752000E-03	 2.45463000E-03	 1.37335000E-03
		 2.12125000E-03	 3.82629000E-03	 1.63183000E-03
		-2.77433000E-03	 2.38341000E-03	-2.36604000E-03
		-2.64608000E-03	 1.05453000E-03	-2.30260000E-03
		-2.23986000E-03	 3.84869000E-03	-1.48972000E-03
		-1.41306000E-03	 2.47367000E-03	-1.20336000E-03
		-8.18516000E-05	-1.04256000E-02	 3.72669000E-05
		 3.35494000E-03	-1.05196000E-02	 3.91311000E-03
		-6.57289000E-05	-6.91864000E-03	 6.73833000E-05
		 3.50910000E-03	-7.01508000E-03	 3.96257000E-03
		-7.93266000E-05	-5.97855000E-03	 5.27248000E-05
		 1.63773000E-03	-1.04533000E-02	 1.83616000E-03
		 2.68854000E-03	-6.09343000E-03	 3.31603000E-03
		-7.46528000E-05	-8.68958000E-03	 5.22523000E-05
		 3.43125000E-03	-8.78668000E-03	 4.03825000E-03
		-6.76345000E-05	-3.09679000E-03	 7.31043000E-05
		 1.72165000E-03	-6.94780000E-03	 1.97449000E-03
		 2.91995000E-03	-3.21948000E-03	 3.35084000E-03
		-3.51603000E-03	-1.04615000E-02	-3.84018000E-03
		-3.64054000E-03	-6.95720000E-03	-3.82985000E-03
		-2.84513000E-03	-6.05230000E-03	-3.21180000E-03
		-1.80061000E-03	-1.04263000E-02	-1.76166000E-03
		-3.57848000E-03	-8.72791000E-03	-3.93576000E-03
		-3.05654000E-03	-3.17731000E-03	-3.20660000E-03
		-1.85270000E-03	-6.92032000E-03	-1.84001000E-03
		-4.67445000E-05	-3.27638000E-03	 9.85275000E-05
		 3.66459000E-03	-3.37406000E-03	 3.97417000E-03
		-5.62213000E-05	-5.11538000E-03	 8.25839000E-05
		 3.58669000E-03	-5.21179000E-03	 3.89063000E-03
		-5.24030000E-05	-2.39480000E-06	 9.52869000E-05
		 1.80884000E-03	-3.30717000E-03	 2.07541000E-03
		 3.14778000E-03	-1.28637000E-04	 3.35821000E-03
		-3.76139000E-03	-3.31073000E-03	-3.77940000E-03
		-3.70128000E-03	-5.15300000E-03	-3.72763000E-03
		-3.25768000E-03	-7.82587000E-05	-3.17028000E-03
		-1.90289000E-03	-3.27557000E-03	-1.87871000E-03
		-8.19942000E-05	-2.04615000E-02	 3.80023000E-08
		 4.74678000E-03	-2.04846000E-02	 4.10932000E-03
		-5.52213000E-05	-1.56798000E-02	 4.56294000E-05
		 4.70024000E-03	-1.56900000E-02	 4.17217000E-03
		-8.37423000E-05	-1.54103000E-02	 1.71791000E-05
		 2.32909000E-03	-2.04825000E-02	 1.92985000E-03
		 4.06584000E-03	-1.54672000E-02	 4.16492000E-03
		-6.85504000E-05	-1.80619000E-02	 2.39863000E-05
		 4.72384000E-03	-1.80760000E-02	 4.23282000E-03
		-6.22228000E-05	-1.12472000E-02	 5.69936000E-05
		 2.32296000E-03	-1.56954000E-02	 2.07289000E-03
		 4.11991000E-03	-1.13007000E-02	 4.22814000E-03
		-4.90757000E-03	-2.03952000E-02	-4.10277000E-03
		-4.80726000E-03	-1.56060000E-02	-4.07520000E-03
		-4.23106000E-03	-1.53948000E-02	-4.12930000E-03
		-2.49211000E-03	-2.04405000E-02	-1.92798000E-03
		-4.85748000E-03	-1.79878000E-02	-4.17852000E-03
		-4.24316000E-03	-1.12298000E-02	-4.11326000E-03
		-2.43237000E-03	-1.56545000E-02	-1.98005000E-03
		-3.01621000E-05	-1.09563000E-02	 8.68939000E-05
		 4.66276000E-03	-1.09629000E-02	 4.19599000E-03
		-4.22224000E-05	-1.33085000E-02	 6.59938000E-05
		 4.68235000E-03	-1.33164000E-02	 4.11331000E-03
		-3.98005000E-05	-7.04751000E-03	 9.56496000E-05
		 2.31686000E-03	-1.09698000E-02	 2.17806000E-03
		 4.17830000E-03	-7.10084000E-03	 4.24365000E-03
		-4.71977000E-03	-1.08845000E-02	-4.01746000E-03
		-4.76338000E-03	-1.32360000E-02	-3.97692000E-03
		-4.25855000E-03	-7.02865000E-03	-4.05179000E-03
		-2.37647000E-03	-1.09305000E-02	-2.00228000E-03
		-8.79234000E-05	-2.89656000E-02	 2.81924000E-06
		 5.62070000E-03	-2.89801000E-02	 3.37305000E-03
		-5.80920000E-05	-2.33288000E-02	 3.51658000E-05
		 5.53378000E-03	-2.33254000E-02	 3.39110000E-03
		-8.11567000E-05	-2.50674000E-02	-3.71194000E-06
		 2.76368000E-03	-2.89896000E-02	 1.67226000E-03
		 5.28639000E-03	-2.50880000E-02	 3.76994000E-03
		-7.17907000E-05	-2.61321000E-02	 1.85712000E-05
		 5.57998000E-03	-2.61347000E-02	 3.41639000E-03
		-5.25402000E-05	-1.97779000E-02	 3.83215000E-05
		 2.73957000E-03	-2.33440000E-02	 1.73077000E-03
		 5.18926000E-03	-1.97789000E-02	 3.81546000E-03
		-5.79001000E-03	-2.88689000E-02	-3.37111000E-03
		-5.64164000E-03	-2.32254000E-02	-3.32445000E-03
		-5.44541000E-03	-2.49839000E-02	-3.77084000E-03
		-2.93799000E-03	-2.89304000E-02	-1.66909000E-03
		-5.71542000E-03	-2.60290000E-02	-3.38202000E-03
		-5.28826000E-03	-1.96830000E-02	-3.73311000E-03
		-2.85308000E-03	-2.32911000E-02	-1.66223000E-03
		-3.00610000E-05	-1.77962000E-02	 6.77125000E-05
		 5.46044000E-03	-1.77810000E-02	 3.42410000E-03
		-4.47248000E-05	-2.05489000E-02	 5.24507000E-05
		 5.49713000E-03	-2.05402000E-02	 3.36343000E-03
		-2.62800000E-05	-1.45964000E-02	 7.48037000E-05
		 2.71483000E-03	-1.78050000E-02	 1.80451000E-03
		 5.10760000E-03	-1.45880000E-02	 3.84568000E-03
		-5.51202000E-03	-1.76928000E-02	-3.29229000E-03
		-5.57821000E-03	-2.04462000E-02	-3.26187000E-03
		-5.15218000E-03	-1.45042000E-02	-3.69125000E-03
		-2.77242000E-03	-1.77581000E-02	-1.67137000E-03
		-1.22629000E-04	-3.52460000E-02	 7.22807000E-06
		 5.71310000E-03	-3.52809000E-02	 3.06512000E-03
		-7.39393000E-05	-2.93890000E-02	 2.34225000E-05
		 5.74809000E-03	-2.94041000E-02	 3.04174000E-03
		-1.00874000E-04	-3.22138000E-02	 9.68017000E-06
		 2.78592000E-03	-3.52618000E-02	 1.55915000E-03
		 5.74095000E-03	-3.22566000E-02	 3.14197000E-03
		-1.00268000E-04	-3.23252000E-02	 1.28509000E-05
		 5.73161000E-03	-3.23429000E-02	 3.04684000E-03
		-6.61005000E-05	-2.64112000E-02	 3.15944000E-05
		 2.83137000E-03	-2.93923000E-02	 1.54836000E-03
		 5.71450000E-03	-2.64314000E-02	 3.13218000E-03
		-5.93516000E-03	-3.52061000E-02	-3.08030000E-03
		-5.88888000E-03	-2.93508000E-02	-3.02102000E-03
		-5.92659000E-03	-3.21507000E-02	-3.14349000E-03
		-3.02466000E-03	-3.52254000E-02	-1.55370000E-03
		-5.91457000E-03	-3.22839000E-02	-3.04881000E-03
		-5.83923000E-03	-2.63443000E-02	-3.08853000E-03
		-2.97618000E-03	-2.93699000E-02	-1.50868000E-03
		-2.46227000E-05	-2.35559000E-02	 6.12453000E-05
		 5.78984000E-03	-2.35607000E-02	 3.06629000E-03
		-4.78970000E-05	-2.64661000E-02	 3.99526000E-05
		 5.76863000E-03	-2.64782000E-02	 3.04485000E-03
		-3.14156000E-05	-2.06619000E-02	 6.71063000E-05
		 2.87969000E-03	-2.35549000E-02	 1.58081000E-03
		 5.69779000E-03	-2.06704000E-02	 3.16225000E-03
		-5.84909000E-03	-2.34967000E-02	-2.96715000E-03
		-5.86758000E-03	-2.64230000E-02	-2.98838000E-03
		-5.76253000E-03	-2.05834000E-02	-3.04644000E-03
		-2.93092000E-03	-2.35261000E-02	-1.46529000E-03
		 0.00000000E+00	 0.00000000E+00	 0.00000000E+00
		 0.00000000E+00	 0.00000000E+00	 0.00000000E+00
		 1.12300000E-04	-3.51802000E-03	-2.65231000E-04
		-3.01532000E-04	-3.64756000E-03	 2.78048000E-03
		 0.00000000E+00	 0.00000000E+00	 0.00000000E+00
		 0.00000000E+00	 0.00000000E+00	 0.00000000E+00
		 7.84493000E-05	-3.75786000E-03	-2.03526000E-04
		 5.37351000E-06	-3.90185000E-03	 2.88779000E-03
		 0.00000000E+00	 0.00000000E+00	 0.00000000E+00
		 5.88528000E-05	-8.61050000E-04	-1.23819000E-04
		-9.57184000E-05	-3.51813000E-03	 1.20767000E-03
		-4.00446000E-04	-1.08079000E-03	 1.47482000E-03
		 0.00000000E+00	 0.00000000E+00	 0.00000000E+00
		 0.00000000E+00	 0.00000000E+00	 0.00000000E+00
		 9.38627000E-05	-3.70052000E-03	-2.32354000E-04
		-1.46231000E-04	-3.83499000E-03	 2.82790000E-03
		 0.00000000E+00	 0.00000000E+00	 0.00000000E+00
		 2.33503000E-05	-1.05788000E-03	-8.67996000E-05
		 4.25542000E-05	-3.76217000E-03	 1.27965000E-03
		 2.38333000E-05	-1.28961000E-03	 1.47549000E-03
		 0.00000000E+00	 0.00000000E+00	 0.00000000E+00
		 5.17116000E-04	-3.69846000E-03	-3.31057000E-03
		 0.00000000E+00	 0.00000000E+00	 0.00000000E+00
		 1.46980000E-04	-3.93982000E-03	-3.29711000E-03
		 0.00000000E+00	 0.00000000E+00	 0.00000000E+00
		 5.09721000E-04	-1.15063000E-03	-1.73546000E-03
		 3.18161000E-04	-3.54373000E-03	-1.73635000E-03
		 0.00000000E+00	 0.00000000E+00	 0.00000000E+00
		 3.27325000E-04	-3.87850000E-03	-3.29352000E-03
		 0.00000000E+00	 0.00000000E+00	 0.00000000E+00
		 1.60871000E-05	-1.34153000E-03	-1.66096000E-03
		 1.13047000E-04	-3.78142000E-03	-1.68655000E-03
		 0.00000000E+00	 0.00000000E+00	 0.00000000E+00
		 0.00000000E+00	 0.00000000E+00	 0.00000000E+00
		 5.16821000E-05	-3.65862000E-03	-1.40002000E-04
		 3.31366000E-04	-3.79066000E-03	 2.90441000E-03
		 0.00000000E+00	 0.00000000E+00	 0.00000000E+00
		 0.00000000E+00	 0.00000000E+00	 0.00000000E+00
		 6.37587000E-05	-3.76960000E-03	-1.73167000E-04
		 1.64371000E-04	-3.90294000E-03	 2.91796000E-03
		 0.00000000E+00	 0.00000000E+00	 0.00000000E+00
		-1.22453000E-06	-8.52312000E-04	-5.91374000E-05
		 1.93105000E-04	-3.65938000E-03	 1.29981000E-03
		 4.63188000E-04	-1.08553000E-03	 1.54031000E-03
		 0.00000000E+00	 0.00000000E+00	 0.00000000E+00
		-2.34352000E-04	-3.81123000E-03	-3.18848000E-03
		 0.00000000E+00	 0.00000000E+00	 0.00000000E+00
		-4.27922000E-05	-3.93770000E-03	-3.26741000E-03
		 0.00000000E+00	 0.00000000E+00	 0.00000000E+00
		-4.74788000E-04	-1.11724000E-03	-1.66961000E-03
		-8.94449000E-05	-3.67088000E-03	-1.58034000E-03
		 2.91789000E-04	-1.15444000E-02	-5.38520000E-04
		-6.57709000E-04	-1.16326000E-02	 4.28810000E-03
		 2.58150000E-04	-1.24154000E-02	-4.55818000E-04
		-5.21956000E-04	-1.24893000E-02	 4.38592000E-03
		 1.95015000E-04	-7.21859000E-03	-4.02365000E-04
		-1.85947000E-04	-1.15724000E-02	 1.92053000E-03
		-3.65035000E-04	-7.36236000E-03	 3.68311000E-03
		 2.74735000E-04	-1.19992000E-02	-4.97031000E-04
		-5.88502000E-04	-1.20733000E-02	 4.26083000E-03
		 1.58902000E-04	-7.66830000E-03	-3.22894000E-04
		-1.24580000E-04	-1.24336000E-02	 1.93545000E-03
		-1.57470000E-04	-7.79379000E-03	 3.78310000E-03
		 1.24473000E-03	-1.16465000E-02	-5.36833000E-03
		 1.03522000E-03	-1.25120000E-02	-5.30053000E-03
		 7.53141000E-04	-7.39635000E-03	-4.49178000E-03
		 7.69975000E-04	-1.15772000E-02	-3.00004000E-03
		 1.14062000E-03	-1.20978000E-02	-5.25480000E-03
		 4.73130000E-04	-7.82347000E-03	-4.43377000E-03
		 6.45014000E-04	-1.24452000E-02	-2.84543000E-03
		 2.21038000E-04	-1.31052000E-02	-3.69470000E-04
		-3.42735000E-04	-1.31495000E-02	 4.45422000E-03
		 2.39021000E-04	-1.27741000E-02	-4.13361000E-04
		-4.30965000E-04	-1.28710000E-02	 4.51059000E-03
		 1.27618000E-04	-7.85303000E-03	-2.43305000E-04
		-7.12614000E-05	-1.31044000E-02	 1.92262000E-03
		 9.41463000E-05	-7.96091000E-03	 3.84115000E-03
		 8.09959000E-04	-1.31898000E-02	-5.19816000E-03
		 9.21031000E-04	-1.28731000E-02	-5.34521000E-03
		 1.67074000E-04	-7.99149000E-03	-4.33263000E-03
		 5.20122000E-04	-1.31264000E-02	-2.65821000E-03
		 4.89800000E-04	-2.13800000E-02	-7.93640000E-04
		-1.68698000E-03	-2.13424000E-02	 4.70618000E-03
		 4.70297000E-04	-2.35225000E-02	-7.23602000E-04
		-1.68121000E-03	-2.35864000E-02	 4.79737000E-03
		 3.92932000E-04	-1.62917000E-02	-6.68883000E-04
		-5.93690000E-04	-2.13589000E-02	 1.99856000E-03
		-1.13748000E-03	-1.63373000E-02	 4.64070000E-03
		 4.81737000E-04	-2.24553000E-02	-7.53525000E-04
		-1.68703000E-03	-2.24822000E-02	 4.65211000E-03
		 3.64381000E-04	-1.77682000E-02	-5.92827000E-04
		-6.30212000E-04	-2.35567000E-02	 1.96504000E-03
		-1.05861000E-03	-1.78179000E-02	 4.73823000E-03
		 2.63641000E-03	-2.13729000E-02	-6.27467000E-03
		 2.62427000E-03	-2.35369000E-02	-6.26063000E-03
		 1.92172000E-03	-1.63410000E-02	-5.97814000E-03
		 1.56249000E-03	-2.13764000E-02	-3.57390000E-03
		 2.62997000E-03	-2.24541000E-02	-6.16898000E-03
		 1.79313000E-03	-1.78147000E-02	-5.92579000E-03
		 1.54810000E-03	-2.35354000E-02	-3.43165000E-03
		 4.38579000E-04	-2.56722000E-02	-6.51907000E-04
		-1.77843000E-03	-2.58490000E-02	 4.84425000E-03
		 4.56081000E-04	-2.46121000E-02	-6.92447000E-04
		-1.73069000E-03	-2.46027000E-02	 4.95603000E-03
		 3.39709000E-04	-1.91407000E-02	-5.11203000E-04
		-6.38805000E-04	-2.57675000E-02	 1.88281000E-03
		-1.00119000E-03	-1.92058000E-02	 4.79915000E-03
		 2.61480000E-03	-2.57176000E-02	-6.19129000E-03
		 2.62007000E-03	-2.46220000E-02	-6.35814000E-03
		 1.64432000E-03	-1.91790000E-02	-5.82743000E-03
		 1.51819000E-03	-2.57093000E-02	-3.23072000E-03
		 6.85876000E-04	-3.10230000E-02	-9.92543000E-04
		-2.67238000E-03	-3.08246000E-02	 3.59621000E-03
		 6.75771000E-04	-3.45602000E-02	-9.36599000E-04
		-3.03774000E-03	-3.48048000E-02	 3.65513000E-03
		 5.57995000E-04	-2.64619000E-02	-9.01548000E-04
		-9.96460000E-04	-3.09550000E-02	 1.36769000E-03
		-2.20494000E-03	-2.64319000E-02	 4.29717000E-03
		 6.82468000E-04	-3.27270000E-02	-9.64437000E-04
		-2.84432000E-03	-3.26931000E-02	 3.55496000E-03
		 5.38294000E-04	-2.93414000E-02	-8.84479000E-04
		-1.05838000E-03	-3.46996000E-02	 1.35337000E-03
		-2.41418000E-03	-2.92466000E-02	 4.41544000E-03
		 3.88747000E-03	-3.09135000E-02	-5.57355000E-03
		 4.10057000E-03	-3.42996000E-02	-5.51935000E-03
		 3.30528000E-03	-2.63941000E-02	-6.09106000E-03
		 2.28607000E-03	-3.10050000E-02	-3.35051000E-03
		 3.99793000E-03	-3.25709000E-02	-5.47606000E-03
		 3.42936000E-03	-2.92398000E-02	-6.07374000E-03
		 2.37494000E-03	-3.44403000E-02	-3.22498000E-03
		 5.20281000E-04	-3.83485000E-02	-8.78976000E-04
		-3.27207000E-03	-3.89508000E-02	 3.71109000E-03
		 6.01103000E-04	-3.63861000E-02	-9.08623000E-04
		-3.15292000E-03	-3.73308000E-02	 3.75611000E-03
		 4.87732000E-04	-3.23611000E-02	-8.91945000E-04
		-1.49320000E-03	-3.86509000E-02	 1.33545000E-03
		-2.47721000E-03	-3.21513000E-02	 4.44130000E-03
		 4.31969000E-03	-3.79390000E-02	-5.45880000E-03