<?xml version="1.0"?>
<VTKFile type="UnstructuredGrid" version="0.1" byte_order="LittleEndian">
	<UnstructuredGrid>
		<Piece NumberOfPoints="522" NumberOfCells="64">
			<Points>
				<DataArray type="Float64" NumberOfComponents="3" format="ascii">
					 1.00000000E+00	 1.00000000E+00	-5.96046000E-08
					 1.00000000E+00	 5.00000000E-01	-5.96046000E-08
					 1.00000000E+00	 5.00000000E-01	 1.00000000E+00
					 1.00000000E+00	 1.00000000E+00	 1.00000000E+00
					 5.00000000E-01	 1.00000000E+00	-5.96046000E-08
					 5.00000000E-01	 5.00000000E-01	-5.96046000E-08
					 5.00000000E-01	 5.00000000E-01	 1.00000000E+00
					 5.00000000E-01	 1.00000000E+00	 1.00000000E+00
					 1.00000000E+00	 7.50000000E-01	-5.96046000E-08
					 1.00000000E+00	 5.00000000E-01	 5.00000000E-01
					 1.00000000E+00	 7.50000000E-01	 1.00000000E+00
					 1.00000000E+00	 1.00000000E+00	 5.00000000E-01
					 7.50000000E-01	 1.00000000E+00	-5.96046000E-08
					 7.50000000E-01	 5.00000000E-01	-5.96046000E-08
					 7.50000000E-01	 5.00000000E-01	 1.00000000E+00
					 7.50000000E-01	 1.00000000E+00	 1.00000000E+00
					 5.00000000E-01	 7.50000000E-01	-5.96046000E-08
					 5.00000000E-01	 5.00000000E-01	 5.00000000E-01
					 5.00000000E-01	 7.50000000E-01	 1.00000000E+00
					 5.00000000E-01	 1.00000000E+00	 5.00000000E-01
					 1.00000000E+00	-1.49012000E-08	-5.96046000E-08
					 1.00000000E+00	-1.49012000E-08	 1.00000000E+00
					 5.00000000E-01	-1.49012000E-08	-5.96046000E-08
					 5.00000000E-01	-1.49012000E-08	 1.00000000E+00
					 1.00000000E+00	 2.50000000E-01	-5.96046000E-08
					 1.00000000E+00	-1.49012000E-08	 5.00000000E-01
					 1.00000000E+00	 2.50000000E-01	 1.00000000E+00
					 7.50000000E-01	-1.49012000E-08	-5.96046000E-08
					 7.50000000E-01	-1.49012000E-08	 1.00000000E+00
					 5.00000000E-01	 2.50000000E-01	-5.96046000E-08
					 5.00000000E-01	-1.49012000E-08	 5.00000000E-01
					 5.00000000E-01	 2.50000000E-01	 1.00000000E+00
					-7.45058000E-09	 1.00000000E+00	-5.96046000E-08
					-7.45058000E-09	 5.00000000E-01	-5.96046000E-08
					-7.45058000E-09	 5.00000000E-01	 1.00000000E+00
					-7.45058000E-09	 1.00000000E+00	 1.00000000E+00
					 2.50000000E-01	 1.00000000E+00	-5.96046000E-08
					 2.50000000E-01	 5.00000000E-01	-5.96046000E-08
					 2.50000000E-01	 5.00000000E-01	 1.00000000E+00
					 2.50000000E-01	 1.00000000E+00	 1.00000000E+00
					-7.45058000E-09	 7.50000000E-01	-5.96046000E-08
					-7.45058000E-09	 5.00000000E-01	 5.00000000E-01
					-7.45058000E-09	 7.50000000E-01	 1.00000000E+00
					-7.45058000E-09	 1.00000000E+00	 5.00000000E-01
					-7.45058000E-09	-1.49012000E-08	-5.96046000E-08
					-7.45058000E-09	-1.49012000E-08	 1.00000000E+00
					 2.50000000E-01	-1.49012000E-08	-5.96046000E-08
					 2.50000000E-01	-1.49012000E-08	 1.00000000E+00
					-7.45058000E-09	 2.50000000E-01	-5.96046000E-08
					-7.45058000E-09	-1.49012000E-08	 5.00000000E-01
					-7.45058000E-09	 2.50000000E-01	 1.00000000E+00
					 1.00000000E+00	 5.00000000E-01	 2.00000000E+00
					 1.00000000E+00	 1.00000000E+00	 2.00000000E+00
					 5.00000000E-01	 5.00000000E-01	 2.00000000E+00
					 5.00000000E-01	 1.00000000E+00	 2.00000000E+00
					 1.00000000E+00	 5.00000000E-01	 1.50000000E+00
					 1.00000000E+00	 7.50000000E-01	 2.00000000E+00
					 1.00000000E+00	 1.00000000E+00	 1.50000000E+00
					 7.50000000E-01	 5.00000000E-01	 2.00000000E+00
					 7.50000000E-01	 1.00000000E+00	 2.00000000E+00
					 5.00000000E-01	 5.00000000E-01	 1.50000000E+00
					 5.00000000E-01	 7.50000000E-01	 2.00000000E+00
					 5.00000000E-01	 1.00000000E+00	 1.50000000E+00
					 1.00000000E+00	-1.49012000E-08	 2.00000000E+00
					 5.00000000E-01	-1.49012000E-08	 2.00000000E+00
					 1.00000000E+00	-1.49012000E-08	 1.50000000E+00
					 1.00000000E+00	 2.50000000E-01	 2.00000000E+00
					 7.50000000E-01	-1.49012000E-08	 2.00000000E+00
					 5.00000000E-01	-1.49012000E-08	 1.50000000E+00
					 5.00000000E-01	 2.50000000E-01	 2.00000000E+00
					-7.45058000E-09	 5.00000000E-01	 2.00000000E+00
					-7.45058000E-09	 1.00000000E+00	 2.00000000E+00
					 2.50000000E-01	 5.00000000E-01	 2.00000000E+00
					 2.50000000E-01	 1.00000000E+00	 2.00000000E+00
					-7.45058000E-09	 5.00000000E-01	 1.50000000E+00
					-7.45058000E-09	 7.50000000E-01	 2.00000000E+00
					-7.45058000E-09	 1.00000000E+00	 1.50000000E+00
					-7.45058000E-09	-1.49012000E-08	 2.00000000E+00
					 2.50000000E-01	-1.49012000E-08	 2.00000000E+00
					-7.45058000E-09	-1.49012000E-08	 1.50000000E+00
					-7.45058000E-09	 2.50000000E-01	 2.00000000E+00
					 1.00000000E+00	 5.00000000E-01	 3.00000000E+00
					 1.00000000E+00	 1.00000000E+00	 3.00000000E+00
					 5.00000000E-01	 5.00000000E-01	 3.00000000E+00
					 5.00000000E-01	 1.00000000E+00	 3.00000000E+00
					 1.00000000E+00	 5.00000000E-01	 2.50000000E+00
					 1.00000000E+00	 7.50000000E-01	 3.00000000E+00
					 1.00000000E+00	 1.00000000E+00	 2.50000000E+00
					 7.50000000E-01	 5.00000000E-01	 3.00000000E+00
					 7.50000000E-01	 1.00000000E+00	 3.00000000E+00
					 5.00000000E-01	 5.00000000E-01	 2.50000000E+00
					 5.00000000E-01	 7.50000000E-01	 3.00000000E+00
					 5.00000000E-01	 1.00000000E+00	 2.50000000E+00
					 1.00000000E+00	-1.49012000E-08	 3.00000000E+00
					 5.00000000E-01	-1.49012000E-08	 3.00000000E+00
					 1.00000000E+00	-1.49012000E-08	 2.50000000E+00
					 1.00000000E+00	 2.50000000E-01	 3.00000000E+00
					 7.50000000E-01	-1.49012000E-08	 3.00000000E+00
					 5.00000000E-01	-1.49012000E-08	 2.50000000E+00
					 5.00000000E-01	 2.50000000E-01	 3.00000000E+00
					-7.45058000E-09	 5.00000000E-01	 3.00000000E+00
					-7.45058000E-09	 1.00000000E+00	 3.00000000E+00
					 2.50000000E-01	 5.00000000E-01	 3.00000000E+00
					 2.50000000E-01	 1.00000000E+00	 3.00000000E+00
					-7.45058000E-09	 5.00000000E-01	 2.50000000E+00
					-7.45058000E-09	 7.50000000E-01	 3.00000000E+00
					-7.45058000E-09	 1.00000000E+00	 2.50000000E+00
					-7.45058000E-09	-1.49012000E-08	 3.00000000E+00
					 2.50000000E-01	-1.49012000E-08	 3.00000000E+00
					-7.45058000E-09	-1.49012000E-08	 2.50000000E+00
					-7.45058000E-09	 2.50000000E-01	 3.00000000E+00
					 1.00000000E+00	 5.00000000E-01	 4.00000000E+00
					 1.00000000E+00	 1.00000000E+00	 4.00000000E+00
					 5.00000000E-01	 5.00000000E-01	 4.00000000E+00
					 5.00000000E-01	 1.00000000E+00	 4.00000000E+00
					 1.00000000E+00	 5.00000000E-01	 3.50000000E+00
					 1.00000000E+00	 7.50000000E-01	 4.00000000E+00
					 1.00000000E+00	 1.00000000E+00	 3.50000000E+00
					 7.50000000E-01	 5.00000000E-01	 4.00000000E+00
					 7.50000000E-01	 1.00000000E+00	 4.00000000E+00
					 5.00000000E-01	 5.00000000E-01	 3.50000000E+00
					 5.00000000E-01	 7.50000000E-01	 4.00000000E+00
					 5.00000000E-01	 1.00000000E+00	 3.50000000E+00
					 1.00000000E+00	-1.49012000E-08	 4.00000000E+00
					 5.00000000E-01	-1.49012000E-08	 4.00000000E+00
					 1.00000000E+00	-1.49012000E-08	 3.50000000E+00
					 1.00000000E+00	 2.50000000E-01	 4.00000000E+00
					 7.50000000E-01	-1.49012000E-08	 4.00000000E+00
					 5.00000000E-01	-1.49012000E-08	 3.50000000E+00
					 5.00000000E-01	 2.50000000E-01	 4.00000000E+00
					-7.45058000E-09	 5.00000000E-01	 4.00000000E+00
					-7.45058000E-09	 1.00000000E+00	 4.00000000E+00
					 2.50000000E-01	 5.00000000E-01	 4.00000000E+00
					 2.50000000E-01	 1.00000000E+00	 4.00000000E+00
					-7.45058000E-09	 5.00000000E-01	 3.50000000E+00
					-7.45058000E-09	 7.50000000E-01	 4.00000000E+00
					-7.45058000E-09	 1.00000000E+00	 3.50000000E+00
					-7.45058000E-09	-1.49012000E-08	 4.00000000E+00
					 2.50000000E-01	-1.49012000E-08	 4.00000000E+00
					-7.45058000E-09	-1.49012000E-08	 3.50000000E+00
					-7.45058000E-09	 2.50000000E-01	 4.00000000E+00
					 1.00000000E+00	 5.00000000E-01	 5.00000000E+00
					 1.00000000E+00	 1.00000000E+00	 5.00000000E+00
					 5.00000000E-01	 5.00000000E-01	 5.00000000E+00
					 5.00000000E-01	 1.00000000E+00	 5.00000000E+00
					 1.00000000E+00	 5.00000000E-01	 4.50000000E+00
					 1.00000000E+00	 7.50000000E-01	 5.00000000E+00
					 1.00000000E+00	 1.00000000E+00	 4.50000000E+00
					 7.50000000E-01	 5.00000000E-01	 5.00000000E+00
					 7.50000000E-01	 1.00000000E+00	 5.00000000E+00
					 5.00000000E-01	 5.00000000E-01	 4.50000000E+00
					 5.00000000E-01	 7.50000000E-01	 5.00000000E+00
					 5.00000000E-01	 1.00000000E+00	 4.50000000E+00
					 1.00000000E+00	-1.49012000E-08	 5.00000000E+00
					 5.00000000E-01	-1.49012000E-08	 5.00000000E+00
					 1.00000000E+00	-1.49012000E-08	 4.50000000E+00
					 1.00000000E+00	 2.50000000E-01	 5.00000000E+00
					 7.50000000E-01	-1.49012000E-08	 5.00000000E+00
					 5.00000000E-01	-1.49012000E-08	 4.50000000E+00
					 5.00000000E-01	 2.50000000E-01	 5.00000000E+00
					-7.45058000E-09	 5.00000000E-01	 5.00000000E+00
					-7.45058000E-09	 1.00000000E+00	 5.00000000E+00
					 2.50000000E-01	 5.00000000E-01	 5.00000000E+00
					 2.50000000E-01	 1.00000000E+00	 5.00000000E+00
					-7.45058000E-09	 5.00000000E-01	 4.50000000E+00
					-7.45058000E-09	 7.50000000E-01	 5.00000000E+00
					-7.45058000E-09	 1.00000000E+00	 4.50000000E+00
					-7.45058000E-09	-1.49012000E-08	 5.00000000E+00
					 2.50000000E-01	-1.49012000E-08	 5.00000000E+00
					-7.45058000E-09	-1.49012000E-08	 4.50000000E+00
					-7.45058000E-09	 2.50000000E-01	 5.00000000E+00
					 1.00000000E+00	 5.00000000E-01	 6.00000000E+00
					 1.00000000E+00	 1.00000000E+00	 6.00000000E+00
					 5.00000000E-01	 5.00000000E-01	 6.00000000E+00
					 5.00000000E-01	 1.00000000E+00	 6.00000000E+00
					 1.00000000E+00	 5.00000000E-01	 5.50000000E+00
					 1.00000000E+00	 7.50000000E-01	 6.00000000E+00
					 1.00000000E+00	 1.00000000E+00	 5.50000000E+00
					 7.50000000E-01	 5.00000000E-01	 6.00000000E+00
					 7.50000000E-01	 1.00000000E+00	 6.00000000E+00
					 5.00000000E-01	 5.00000000E-01	 5.50000000E+00
					 5.00000000E-01	 7.50000000E-01	 6.00000000E+00
					 5.00000000E-01	 1.00000000E+00	 5.50000000E+00
					 1.00000000E+00	-1.49012000E-08	 6.00000000E+00
[...]
			<PointData>
				<DataArray type="Float32" Name="U" NumberOfComponents="3" ComponentName0="D1" ComponentName1="D2" ComponentName2="D3" format="ascii">
					 0.00000000E+00	 0.00000000E+00	 0.00000000E+00
					 0.00000000E+00	 0.00000000E+00	 0.00000000E+00
					-2.94196000E-05	 7.26673000E-03	-3.35108000E-05
					-8.97318000E-04	 7.42939000E-03	-4.62254000E-03
					 0.00000000E+00	 0.00000000E+00	 0.00000000E+00
					 0.00000000E+00	 0.00000000E+00	 0.00000000E+00
					-2.99196000E-05	 6.15789000E-03	-3.47191000E-05
					-1.37491000E-03	 6.34491000E-03	-4.70058000E-03
					 0.00000000E+00	 0.00000000E+00	 0.00000000E+00
					-9.91040000E-06	 2.25829000E-03	-6.48648000E-06
					-4.65276000E-04	 7.25589000E-03	-2.07999000E-03
					 5.85110000E-05	 2.59940000E-03	-2.51091000E-03
					 0.00000000E+00	 0.00000000E+00	 0.00000000E+00
					 0.00000000E+00	 0.00000000E+00	 0.00000000E+00
					-2.99031000E-05	 6.79876000E-03	-3.62969000E-05
					-1.13907000E-03	 6.97634000E-03	-4.80535000E-03
					 0.00000000E+00	 0.00000000E+00	 0.00000000E+00
					-1.28708000E-05	 1.90367000E-03	-1.21926000E-05
					-7.00802000E-04	 6.15469000E-03	-2.25411000E-03
					-6.67810000E-04	 2.28232000E-03	-2.46715000E-03
					 0.00000000E+00	 0.00000000E+00	 0.00000000E+00
					 8.34078000E-04	 7.47467000E-03	 4.54985000E-03
					 0.00000000E+00	 0.00000000E+00	 0.00000000E+00
					 1.31356000E-03	 6.39620000E-03	 4.62423000E-03
					 0.00000000E+00	 0.00000000E+00	 0.00000000E+00
					-7.94859000E-05	 2.61701000E-03	 2.49435000E-03
					 4.04572000E-04	 7.27489000E-03	 2.01253000E-03
					 0.00000000E+00	 0.00000000E+00	 0.00000000E+00
					 1.07690000E-03	 7.02749000E-03	 4.72491000E-03
					 0.00000000E+00	 0.00000000E+00	 0.00000000E+00
					 6.42249000E-04	 2.29868000E-03	 2.43916000E-03
					 6.40417000E-04	 6.17920000E-03	 2.18259000E-03
					 0.00000000E+00	 0.00000000E+00	 0.00000000E+00
					 0.00000000E+00	 0.00000000E+00	 0.00000000E+00
					-2.74953000E-05	 4.57816000E-03	-2.95276000E-05
					-1.83494000E-03	 4.75127000E-03	-4.61868000E-03
					 0.00000000E+00	 0.00000000E+00	 0.00000000E+00
					 0.00000000E+00	 0.00000000E+00	 0.00000000E+00
					-2.90947000E-05	 5.45750000E-03	-3.18588000E-05
					-1.60093000E-03	 5.63378000E-03	-4.54919000E-03
					 0.00000000E+00	 0.00000000E+00	 0.00000000E+00
					-1.55958000E-05	 9.48163000E-04	-1.36860000E-05
					-9.34665000E-04	 4.57208000E-03	-2.32744000E-03
					-1.34033000E-03	 1.34299000E-03	-2.51895000E-03
					 0.00000000E+00	 0.00000000E+00	 0.00000000E+00
					 1.78158000E-03	 4.80465000E-03	 4.55362000E-03
					 0.00000000E+00	 0.00000000E+00	 0.00000000E+00
					 1.54228000E-03	 5.68533000E-03	 4.48018000E-03
					 0.00000000E+00	 0.00000000E+00	 0.00000000E+00
					 1.31134000E-03	 1.35956000E-03	 2.48643000E-03
					 8.80148000E-04	 4.59927000E-03	 2.26584000E-03
					-5.88272000E-05	 2.12431000E-02	-1.42431000E-04
					-2.44428000E-03	 2.13206000E-02	-7.07342000E-03
					-5.23735000E-05	 1.87551000E-02	-1.12398000E-04
					-2.66558000E-03	 1.88156000E-02	-7.05821000E-03
					-4.67640000E-05	 1.37934000E-02	-8.21795000E-05
					-1.24467000E-03	 2.12653000E-02	-3.50019000E-03
					-1.74384000E-03	 1.39703000E-02	-6.05725000E-03
					-5.60586000E-05	 2.00235000E-02	-1.27704000E-04
					-2.55552000E-03	 2.00838000E-02	-7.14578000E-03
					-4.42604000E-05	 1.19460000E-02	-6.85355000E-05
					-1.36023000E-03	 1.87687000E-02	-3.55770000E-03
					-2.07014000E-03	 1.21005000E-02	-6.07400000E-03
					 2.32274000E-03	 2.14279000E-02	 6.78475000E-03
					 2.55753000E-03	 1.89303000E-02	 6.82969000E-03
					 1.64455000E-03	 1.40458000E-02	 5.88620000E-03
					 1.12618000E-03	 2.13154000E-02	 3.21420000E-03
					 2.43982000E-03	 2.01976000E-02	 6.88684000E-03
					 1.97879000E-03	 1.21842000E-02	 5.93040000E-03
					 1.25482000E-03	 1.88250000E-02	 3.33193000E-03
					-4.24916000E-05	 1.60203000E-02	-7.79801000E-05
					-2.90650000E-03	 1.60678000E-02	-7.00870000E-03
					-4.79308000E-05	 1.74085000E-02	-9.59350000E-05
					-2.78825000E-03	 1.74662000E-02	-6.96896000E-03
					-3.88491000E-05	 9.74449000E-03	-4.95823000E-05
					-1.47392000E-03	 1.60234000E-02	-3.58046000E-03
					-2.41512000E-03	 9.89365000E-03	-6.02430000E-03
					 2.81846000E-03	 1.61892000E-02	 6.84918000E-03
					 2.68928000E-03	 1.75822000E-02	 6.77361000E-03
					 2.33689000E-03	 9.98207000E-03	 5.91888000E-03
					 1.38843000E-03	 1.60849000E-02	 3.42367000E-03
					-6.93271000E-05	 3.74364000E-02	-2.69426000E-04
					-3.16947000E-03	 3.74532000E-02	-8.52497000E-03
					-5.72945000E-05	 3.42627000E-02	-2.19397000E-04
					-3.31994000E-03	 3.42680000E-02	-8.48071000E-03
					-6.47354000E-05	 2.91444000E-02	-2.04481000E-04
					-1.61757000E-03	 3.74222000E-02	-4.36784000E-03
					-2.91482000E-03	 2.91956000E-02	-7.85142000E-03
					-6.35486000E-05	 3.58735000E-02	-2.44976000E-04
					-3.24517000E-03	 3.58819000E-02	-8.52304000E-03
					-5.49632000E-05	 2.62126000E-02	-1.62269000E-04
					-1.68908000E-03	 3.42417000E-02	-4.33966000E-03
					-3.09093000E-03	 2.62436000E-02	-7.81657000E-03
					 3.02783000E-03	 3.76117000E-02	 7.98308000E-03
					 3.20270000E-03	 3.44314000E-02	 8.03920000E-03
					 2.78207000E-03	 2.93304000E-02	 7.43940000E-03
					 1.47794000E-03	 3.75005000E-02	 3.82821000E-03
					 3.11528000E-03	 3.60436000E-02	 8.03015000E-03
					 2.97815000E-03	 2.63840000E-02	 7.48909000E-03
					 1.57370000E-03	 3.43232000E-02	 3.90014000E-03
					-4.30298000E-05	 3.09144000E-02	-1.66054000E-04
					-3.48526000E-03	 3.09092000E-02	-8.42120000E-03
					-5.03743000E-05	 3.26110000E-02	-1.92989000E-04
					-3.40338000E-03	 3.26133000E-02	-8.43645000E-03
					-4.24166000E-05	 2.30758000E-02	-1.16276000E-04
					-1.76254000E-03	 3.08878000E-02	-4.29875000E-03
					-3.29004000E-03	 2.30958000E-02	-7.76312000E-03
					 3.39730000E-03	 3.10772000E-02	 8.08674000E-03
					 3.30024000E-03	 3.27787000E-02	 8.04792000E-03
					 3.20278000E-03	 2.32414000E-02	 7.52753000E-03
					 1.67597000E-03	 3.09721000E-02	 3.96602000E-03
					-7.39092000E-05	 5.51402000E-02	-4.20751000E-04
					-3.21652000E-03	 5.51180000E-02	-9.69783000E-03
					-6.21201000E-05	 5.19346000E-02	-3.57755000E-04
					-3.34096000E-03	 5.19044000E-02	-9.63624000E-03
					-7.33538000E-05	 4.60961000E-02	-3.40543000E-04
					-1.64398000E-03	 5.51127000E-02	-5.06859000E-03
					-3.24631000E-03	 4.60930000E-02	-9.13407000E-03
					-6.85294000E-05	 5.35545000E-02	-3.89755000E-04
					-3.27939000E-03	 5.35275000E-02	-9.65598000E-03
					-6.10595000E-05	 4.28561000E-02	-2.84415000E-04
					-1.70128000E-03	 5.19035000E-02	-4.99489000E-03
					-3.38048000E-03	 4.28428000E-02	-9.08174000E-03
					 3.06490000E-03	 5.53101000E-02	 8.85332000E-03
					 3.21319000E-03	 5.21038000E-02	 8.91803000E-03
					 3.09625000E-03	 4.62694000E-02	 8.44950000E-03
					 1.49524000E-03	 5.52091000E-02	 4.22633000E-03
					 3.13871000E-03	 5.37229000E-02	 8.87362000E-03
					 3.25531000E-03	 4.30253000E-02	 8.51002000E-03
					 1.57620000E-03	 5.20031000E-02	 4.27868000E-03
					-4.67831000E-05	 4.85873000E-02	-2.92292000E-04
					-3.46886000E-03	 4.85508000E-02	-9.56894000E-03
					-5.49073000E-05	 5.02775000E-02	-3.25118000E-04
					-3.40545000E-03	 5.02443000E-02	-9.61464000E-03
					-4.59282000E-05	 3.94613000E-02	-2.25404000E-04
					-1.75728000E-03	 4.85528000E-02	-4.91647000E-03
					-3.52405000E-03	 3.94399000E-02	-9.01827000E-03
					 3.37175000E-03	 4.87575000E-02	 8.98189000E-03
					 3.29210000E-03	 5.04477000E-02	 8.96187000E-03
					 3.42952000E-03	 3.96281000E-02	 8.56512000E-03
					 1.66294000E-03	 4.86556000E-02	 4.33123000E-03
					-5.15980000E-05	 7.44879000E-02	-6.07658000E-04
					-3.02766000E-03	 7.44446000E-02	-1.08318000E-02
					-4.09567000E-05	 7.14409000E-02	-5.31705000E-04
					-3.15934000E-03	 7.13959000E-02	-1.07594000E-02
					-6.63233000E-05	 6.45799000E-02	-5.10234000E-04
					-1.54007000E-03	 7.44467000E-02	-5.72676000E-03
					-3.12986000E-03	 6.45457000E-02	-1.02588000E-02
					-4.65780000E-05	 7.29833000E-02	-5.69480000E-04
					-3.09381000E-03	 7.29398000E-02	-1.07832000E-02
					-5.51165000E-05	 6.14476000E-02	-4.39525000E-04
					-1.59998000E-03	 7.13985000E-02	-5.64044000E-03
					-3.26062000E-03	 6.14103000E-02	-1.01873000E-02
					 2.92192000E-03	 7.46731000E-02	 9.61356000E-03
					 3.07508000E-03	 7.16292000E-02	 9.69264000E-03
					 2.99369000E-03	 6.47548000E-02	 9.23578000E-03
					 1.43624000E-03	 7.45613000E-02	 4.51060000E-03
					 2.99822000E-03	 7.31703000E-02	 9.64137000E-03
					 3.14714000E-03	 6.16260000E-02	 9.30533000E-03
					 1.51750000E-03	 7.15151000E-02	 4.57628000E-03
					-2.80698000E-05	 6.82552000E-02	-4.53397000E-04
					-3.29314000E-03	 6.82028000E-02	-1.06778000E-02
					-3.48248000E-05	 6.98665000E-02	-4.93388000E-04
					-3.22672000E-03	 6.98190000E-02	-1.07335000E-02
					-4.08918000E-05	 5.81736000E-02	-3.66490000E-04
					-1.65887000E-03	 6.82098000E-02	-5.54639000E-03
					-3.38889000E-03	 5.81322000E-02	-1.01153000E-02
					 3.23486000E-03	 6.84407000E-02	 9.76743000E-03
					 3.15478000E-03	 7.00552000E-02	 9.74296000E-03
					 3.30384000E-03	 5.83547000E-02	 9.37908000E-03
					 1.60227000E-03	 6.83281000E-02	 4.63902000E-03
					-2.07161000E-05	 9.57627000E-02	-8.25854000E-04
					-2.78821000E-03	 9.56585000E-02	-1.17588000E-02
					-1.16073000E-05	 9.29765000E-02	-7.52836000E-04
					-2.82127000E-03	 9.28698000E-02	-1.17000000E-02
					-3.51631000E-05	 8.49286000E-02	-7.12982000E-04
					-1.40377000E-03	 9.57056000E-02	-6.28639000E-03
					-2.92262000E-03	 8.48558000E-02	-1.13686000E-02
					-1.61467000E-05	 9.43753000E-02	-7.89190000E-04
					-2.80491000E-03	 9.42693000E-02	-1.17066000E-02
					-2.52102000E-05	 8.19895000E-02	-6.36717000E-04
					-1.41675000E-03	 9.29186000E-02	-6.19582000E-03
					-3.01832000E-03	 8.19140000E-02	-1.13040000E-02
					 2.74663000E-03	 9.59155000E-02	 1.01054000E-02
					 2.79772000E-03	 9.31275000E-02	 1.01925000E-02
					 2.85115000E-03	 8.51022000E-02	 9.93996000E-03
					 1.36222000E-03	 9.58338000E-02	 4.63412000E-03
					 2.77241000E-03	 9.45257000E-02	 1.01266000E-02
					 2.96670000E-03	 8.21630000E-02	 1.00277000E-02
					 1.39339000E-03	 9.30461000E-02	 4.68968000E-03
					-2.46065000E-06	 9.01457000E-02	-6.79045000E-04
					-2.85782000E-03	 9.00376000E-02	-1.16122000E-02
					-6.99901000E-06	 9.15662000E-02	-7.16278000E-04
					-2.83967000E-03	 9.14586000E-02	-1.16976000E-02
					-1.41228000E-05	 7.89455000E-02	-5.58587000E-04
					-1.42970000E-03	 9.00877000E-02	-6.07583000E-03
					-3.12114000E-03	 7.88621000E-02	-1.12144000E-02
					 2.85253000E-03	 9.02952000E-02	 1.02521000E-02
					 2.82524000E-03	 9.17181000E-02	 1.02630000E-02
					 3.09186000E-03	 7.91130000E-02	 1.00943000E-02
					 1.42467000E-03	 9.02135000E-02	 4.71733000E-03
					 3.16024000E-06	 1.17465000E-01	-1.05185000E-03
					-2.40044000E-03	 1.17321000E-01	-1.19067000E-02
					 1.00809000E-05	 1.15080000E-01	-9.92194000E-04
					-2.35795000E-03	 1.14938000E-01	-1.18472000E-02
					-7.83659000E-06	 1.06689000E-01	-9.40539000E-04
					-1.19842000E-03	 1.17398000E-01	-6.51017000E-03
					-2.60970000E-03	 1.06564000E-01	-1.18977000E-02
					 6.75370000E-06	 1.16267000E-01	-1.02176000E-03
					-2.37899000E-03	 1.16124000E-01	-1.18457000E-02
					 1.94943000E-07	 1.04099000E-01	-8.73407000E-04
					-1.17382000E-03	 1.15016000E-01	-6.41986000E-03
					-2.58608000E-03	 1.03970000E-01	-1.18400000E-02
					 2.40811000E-03	 1.17571000E-01	 9.80379000E-03
					 2.37922000E-03	 1.15185000E-01	 9.86352000E-03
					 2.59479000E-03	 1.06820000E-01	 1.00161000E-02
					 1.20506000E-03	 1.17524000E-01	 4.40666000E-03
					 2.39371000E-03	 1.16371000E-01	 9.80290000E-03
					 2.58695000E-03	 1.04225000E-01	 1.00926000E-02
					 1.19420000E-03	 1.15139000E-01	 4.43558000E-03
					 1.56773000E-05	 1.12730000E-01	-9.33799000E-04
					-2.30980000E-03	 1.12595000E-01	-1.17885000E-02
					 1.31029000E-05	 1.13900000E-01	-9.62931000E-04
					-2.33337000E-03	 1.13759000E-01	-1.18477000E-02
					 7.50162000E-06	 1.01518000E-01	-8.06726000E-04
					-1.14911000E-03	 1.12669000E-01	-6.33087000E-03
					-2.56274000E-03	 1.01394000E-01	-1.17641000E-02
					 2.34214000E-03	 1.12840000E-01	 9.92121000E-03
					 2.36062000E-03	 1.14006000E-01	 9.92238000E-03
					 2.57799000E-03	 1.01648000E-01	 1.01497000E-02
					 1.18064000E-03	 1.12790000E-01	 4.46330000E-03
					 1.48119000E-05	 1.38703000E-01	-1.27174000E-03
					-2.12177000E-03	 1.38568000E-01	-1.19939000E-02
					 1.88197000E-05	 1.36555000E-01	-1.22171000E-03
					-2.12380000E-03	 1.36429000E-01	-1.19383000E-02
					 1.03992000E-05	 1.28065000E-01	-1.16029000E-03
					-1.05324000E-03	 1.38635000E-01	-6.64613000E-03
					-2.21097000E-03	 1.27932000E-01	-1.19217000E-02
					 1.69689000E-05	 1.37629000E-01	-1.24681000E-03
					-2.12294000E-03	 1.37499000E-01	-1.19592000E-02
					 1.57079000E-05	 1.25851000E-01	-1.10732000E-03
					-1.05189000E-03	 1.36491000E-01	-6.58673000E-03
					-2.18910000E-03	 1.25722000E-01	-1.18634000E-02
					 2.15109000E-03	 1.38808000E-01	 9.45183000E-03
					 2.16181000E-03	 1.36670000E-01	 9.49622000E-03
					 2.23227000E-03	 1.28175000E-01	 9.60206000E-03
					 1.08281000E-03	 1.38755000E-01	 4.10338000E-03
					 2.15680000E-03	 1.37739000E-01	 9.46670000E-03
					 2.22125000E-03	 1.25963000E-01	 9.64980000E-03
					 1.08968000E-03	 1.36612000E-01	 4.14379000E-03
					 2.22721000E-05	 1.34417000E-01	-1.17325000E-03
					-2.10839000E-03	 1.34299000E-01	-1.18936000E-02
					 2.04593000E-05	 1.35486000E-01	-1.19710000E-03
					-2.11549000E-03	 1.35363000E-01	-1.19169000E-02
					 2.03411000E-05	 1.23656000E-01	-1.05593000E-03
					-1.04468000E-03	 1.34358000E-01	-6.53809000E-03
					-2.15689000E-03	 1.23535000E-01	-1.18161000E-02
					 2.15405000E-03	 1.34539000E-01	 9.54853000E-03
					 2.15728000E-03	 1.35603000E-01	 9.52429000E-03
					 2.19877000E-03	 1.23775000E-01	 9.70524000E-03
					 1.08946000E-03	 1.34478000E-01	 4.19188000E-03
					 0.00000000E+00	 0.00000000E+00	 0.00000000E+00
					 0.00000000E+00	 0.00000000E+00	 0.00000000E+00
					 3.62129000E-05	-1.16745000E-02	-3.13839000E-04
					-1.10981000E-03	-1.22914000E-02	 9.83602000E-03
					 0.00000000E+00	 0.00000000E+00	 0.00000000E+00
					 0.00000000E+00	 0.00000000E+00	 0.00000000E+00
					 2.19442000E-07	-1.21899000E-02	-3.34491000E-04
					 9.27804000E-05	-1.28542000E-02	 9.94413000E-03
					 0.00000000E+00	 0.00000000E+00	 0.00000000E+00
					 4.58978000E-05	-2.84002000E-03	-1.25722000E-04
					-5.37985000E-04	-1.17568000E-02	 4.59045000E-03
					-1.45065000E-03	-3.69504000E-03	 5.15106000E-03
					 0.00000000E+00	 0.00000000E+00	 0.00000000E+00
					 0.00000000E+00	 0.00000000E+00	 0.00000000E+00
					 1.89358000E-05	-1.21459000E-02	-3.27199000E-04
					-4.98438000E-04	-1.27885000E-02	 9.90783000E-03
					 0.00000000E+00	 0.00000000E+00	 0.00000000E+00
					 1.25163000E-06	-3.46651000E-03	-1.30075000E-04
					 4.50288000E-05	-1.22886000E-02	 4.64502000E-03
					 5.16989000E-05	-4.33704000E-03	 5.01673000E-03
					 0.00000000E+00	 0.00000000E+00	 0.00000000E+00
					 1.16451000E-03	-1.21202000E-02	-1.04939000E-02
					 0.00000000E+00	 0.00000000E+00	 0.00000000E+00
					-9.06626000E-05	-1.26775000E-02	-1.06492000E-02
					 0.00000000E+00	 0.00000000E+00	 0.00000000E+00
					 1.53221000E-03	-3.67743000E-03	-5.42754000E-03
					 6.03610000E-04	-1.16749000E-02	-5.22515000E-03
					 0.00000000E+00	 0.00000000E+00	 0.00000000E+00
					 5.30384000E-04	-1.26089000E-02	-1.05963000E-02
					 0.00000000E+00	 0.00000000E+00	 0.00000000E+00
					-4.83478000E-05	-4.32307000E-03	-5.29900000E-03
					-4.54668000E-05	-1.22017000E-02	-5.32469000E-03
					 0.00000000E+00	 0.00000000E+00	 0.00000000E+00
					 0.00000000E+00	 0.00000000E+00	 0.00000000E+00
					-3.73803000E-05	-1.14898000E-02	-3.22553000E-04
					 1.29436000E-03	-1.21064000E-02	 9.82743000E-03
					 0.00000000E+00	 0.00000000E+00	 0.00000000E+00
					 0.00000000E+00	 0.00000000E+00	 0.00000000E+00
					-1.87952000E-05	-1.20543000E-02	-3.33470000E-04
					 6.83516000E-04	-1.26885000E-02	 9.88505000E-03
					 0.00000000E+00	 0.00000000E+00	 0.00000000E+00
					-4.42214000E-05	-2.73921000E-03	-1.27673000E-04
					 6.31051000E-04	-1.15733000E-02	 4.59785000E-03
					 1.54683000E-03	-3.59979000E-03	 5.14859000E-03
					 0.00000000E+00	 0.00000000E+00	 0.00000000E+00
					-1.35248000E-03	-1.19351000E-02	-1.05043000E-02
					 0.00000000E+00	 0.00000000E+00	 0.00000000E+00
					-7.14871000E-04	-1.25167000E-02	-1.05860000E-02
					 0.00000000E+00	 0.00000000E+00	 0.00000000E+00
					-1.62651000E-03	-3.58213000E-03	-5.43048000E-03
					-6.98966000E-04	-1.14904000E-02	-5.25131000E-03
					 2.82206000E-06	-4.09534000E-02	-9.35654000E-04
					-8.78312000E-04	-4.16712000E-02	 1.63441000E-02
					-2.53120000E-05	-4.14072000E-02	-9.87641000E-04
					-4.42521000E-05	-4.21082000E-02	 1.63243000E-02
					 2.88724000E-05	-2.46348000E-02	-5.80638000E-04
					-4.43747000E-04	-4.12203000E-02	 7.65084000E-03
					-9.32425000E-04	-2.53904000E-02	 1.34790000E-02
					-1.06535000E-05	-4.12759000E-02	-9.66060000E-04
					-4.60157000E-04	-4.19778000E-02	 1.63258000E-02
					-6.91770000E-06	-2.50797000E-02	-6.12223000E-04
					-2.83661000E-05	-4.16667000E-02	 7.61158000E-03
					 8.33322000E-05	-2.58167000E-02	 1.34971000E-02
					 8.86469000E-04	-4.11057000E-02	-1.82510000E-02
					-6.12924000E-06	-4.15593000E-02	-1.83349000E-02
					 9.79218000E-04	-2.50374000E-02	-1.46831000E-02
					 4.48913000E-04	-4.09417000E-02	-9.53206000E-03
					 4.42299000E-04	-4.14244000E-02	-1.82897000E-02
					-9.45951000E-05	-2.54647000E-02	-1.47648000E-02
					-1.77298000E-05	-4.13964000E-02	-9.59287000E-03
					-6.49088000E-05	-4.09891000E-02	-1.00593000E-03
					 8.26305000E-04	-4.16518000E-02	 1.62723000E-02
					-4.45250000E-05	-4.12878000E-02	-1.00063000E-03
					 3.94205000E-04	-4.20063000E-02	 1.63347000E-02
					-4.71928000E-05	-2.44579000E-02	-6.10414000E-04
					 3.72023000E-04	-4.12227000E-02	 7.53689000E-03
					 1.11752000E-03	-2.51814000E-02	 1.34490000E-02
					-9.21972000E-04	-4.11338000E-02	-1.83204000E-02
					-4.65430000E-04	-4.14421000E-02	-1.83751000E-02
					-1.18632000E-03	-2.48509000E-02	-1.47118000E-02
					-4.92006000E-04	-4.09699000E-02	-9.55318000E-03
					-1.01808000E-04	-8.09811000E-02	-1.88993000E-03
					-1.52244000E-03	-8.17243000E-02	 2.03127000E-02
					-1.23833000E-04	-8.20638000E-02	-2.00872000E-03
					-9.15197000E-04	-8.29006000E-02	 2.02210000E-02
					-3.66170000E-05	-5.98474000E-02	-1.36945000E-03
					-8.09344000E-04	-8.12722000E-02	 9.22701000E-03
					-1.07285000E-03	-6.06091000E-02	 1.85807000E-02
					-1.10130000E-04	-8.16067000E-02	-1.94906000E-03
					-1.21962000E-03	-8.24052000E-02	 2.01845000E-02
					-6.36159000E-05	-6.05189000E-02	-1.45302000E-03
					-5.43840000E-04	-8.24023000E-02	 9.03090000E-03
					-3.64386000E-04	-6.12677000E-02	 1.85297000E-02
					 1.28734000E-03	-8.08169000E-02	-2.41051000E-02
					 6.74381000E-04	-8.19149000E-02	-2.42855000E-02
					 9.96625000E-04	-5.98535000E-02	-2.13522000E-02
					 5.94278000E-04	-8.08197000E-02	-1.30034000E-02
					 9.80549000E-04	-8.14434000E-02	-2.41228000E-02
					 2.46277000E-04	-6.05108000E-02	-2.14679000E-02
					 2.74886000E-04	-8.19166000E-02	-1.30748000E-02
					-1.62202000E-04	-8.25479000E-02	-2.10063000E-03
					-4.02642000E-04	-8.34815000E-02	 2.00979000E-02
					-1.41272000E-04	-8.23976000E-02	-2.06098000E-03
					-6.59692000E-04	-8.31607000E-02	 2.02723000E-02
					-9.32730000E-05	-6.04472000E-02	-1.50468000E-03
					-2.54596000E-04	-8.29355000E-02	 8.80414000E-03
					 3.33529000E-04	-6.12009000E-02	 1.84491000E-02
					 4.55612000E-05	-8.24265000E-02	-2.43730000E-02
					 3.60747000E-04	-8.22417000E-02	-2.44447000E-02
					-5.48556000E-04	-6.04329000E-02	-2.14930000E-02
					-6.57185000E-05	-8.24269000E-02	-1.30544000E-02
					-2.41165000E-04	-1.28403000E-01	-3.15597000E-03
					-2.69381000E-03	-1.29070000E-01	 2.20055000E-02