<?xml version="1.0"?>
<VTKFile type="UnstructuredGrid" version="0.1" byte_order="LittleEndian">
	<UnstructuredGrid>
		<Piece NumberOfPoints="522" NumberOfCells="64">
			<Points>
				<DataArray type="Float64" NumberOfComponents="3" format="ascii">
					 1.00000000E+00	 1.00000000E+00	-5.96046000E-08
					 1.00000000E+00	 5.00000000E-01	-5.96046000E-08
					 1.00000000E+00	 5.00000000E-01	 1.00000000E+00
					 1.00000000E+00	 1.00000000E+00	 1.00000000E+00
					 5.00000000E-01	 1.00000000E+00	-5.96046000E-08
					 5.00000000E-01	 5.00000000E-01	-5.96046000E-08
					 5.00000000E-01	 5.00000000E-01	 1.00000000E+00
					 5.00000000E-01	 1.00000000E+00	 1.00000000E+00
					 1.00000000E+00	 7.50000000E-01	-5.96046000E-08
					 1.00000000E+00	 5.00000000E-01	 5.00000000E-01
					 1.00000000E+00	 7.50000000E-01	 1.00000000E+00
					 1.00000000E+00	 1.00000000E+00	 5.00000000E-01
					 7.50000000E-01	 1.00000000E+00	-5.96046000E-08
					 7.50000000E-01	 5.00000000E-01	-5.96046000E-08
					 7.50000000E-01	 5.00000000E-01	 1.00000000E+00
					 7.50000000E-01	 1.00000000E+00	 1.00000000E+00
					 5.00000000E-01	 7.50000000E-01	-5.96046000E-08
					 5.00000000E-01	 5.00000000E-01	 5.00000000E-01
					 5.00000000E-01	 7.50000000E-01	 1.00000000E+00
					 5.00000000E-01	 1.00000000E+00	 5.00000000E-01
					 1.00000000E+00	-1.49012000E-08	-5.96046000E-08
					 1.00000000E+00	-1.49012000E-08	 1.00000000E+00
					 5.00000000E-01	-1.49012000E-08	-5.96046000E-08
					 5.00000000E-01	-1.49012000E-08	 1.00000000E+00
					 1.00000000E+00	 2.50000000E-01	-5.96046000E-08
					 1.00000000E+00	-1.49012000E-08	 5.00000000E-01
					 1.00000000E+00	 2.50000000E-01	 1.00000000E+00
					 7.50000000E-01	-1.49012000E-08	-5.96046000E-08
					 7.50000000E-01	-1.49012000E-08	 1.00000000E+00
					 5.00000000E-01	 2.50000000E-01	-5.96046000E-08
					 5.00000000E-01	-1.49012000E-08	 5.00000000E-01
					 5.00000000E-01	 2.50000000E-01	 1.00000000E+00
					-7.45058000E-09	 1.00000000E+00	-5.96046000E-08
					-7.45058000E-09	 5.00000000E-01	-5.96046000E-08
					-7.45058000E-09	 5.00000000E-01	 1.00000000E+00
					-7.45058000E-09	 1.00000000E+00	 1.00000000E+00
					 2.50000000E-01	 1.00000000E+00	-5.96046000E-08
					 2.50000000E-01	 5.00000000E-01	-5.96046000E-08
					 2.50000000E-01	 5.00000000E-01	 1.00000000E+00
					 2.50000000E-01	 1.00000000E+00	 1.00000000E+00
					-7.45058000E-09	 7.50000000E-01	-5.96046000E-08
					-7.45058000E-09	 5.00000000E-01	 5.00000000E-01
					-7.45058000E-09	 7.50000000E-01	 1.00000000E+00
					-7.45058000E-09	 1.00000000E+00	 5.00000000E-01
					-7.45058000E-09	-1.49012000E-08	-5.96046000E-08
					-7.45058000E-09	-1.49012000E-08	 1.00000000E+00
					 2.50000000E-01	-1.49012000E-08	-5.96046000E-08
					 2.50000000E-01	-1.49012000E-08	 1.00000000E+00
					-7.45058000E-09	 2.50000000E-01	-5.96046000E-08
					-7.45058000E-09	-1.49012000E-08	 5.00000000E-01
					-7.45058000E-09	 2.50000000E-01	 1.00000000E+00
					 1.00000000E+00	 5.00000000E-01	 2.00000000E+00
					 1.00000000E+00	 1.00000000E+00	 2.00000000E+00
					 5.00000000E-01	 5.00000000E-01	 2.00000000E+00
					 5.00000000E-01	 1.00000000E+00	 2.00000000E+00
					 1.00000000E+00	 5.00000000E-01	 1.50000000E+00
					 1.00000000E+00	 7.50000000E-01	 2.00000000E+00
					 1.00000000E+00	 1.00000000E+00	 1.50000000E+00
					 7.50000000E-01	 5.00000000E-01	 2.00000000E+00
					 7.50000000E-01	 1.00000000E+00	 2.00000000E+00
					 5.00000000E-01	 5.00000000E-01	 1.50000000E+00
					 5.00000000E-01	 7.50000000E-01	 2.00000000E+00
					 5.00000000E-01	 1.00000000E+00	 1.50000000E+00
					 1.00000000E+00	-1.49012000E-08	 2.00000000E+00
					 5.00000000E-01	-1.49012000E-08	 2.00000000E+00
					 1.00000000E+00	-1.49012000E-08	 1.50000000E+00
					 1.00000000E+00	 2.50000000E-01	 2.00000000E+00
					 7.50000000E-01	-1.49012000E-08	 2.00000000E+00
					 5.00000000E-01	-1.49012000E-08	 1.50000000E+00
					 5.00000000E-01	 2.50000000E-01	 2.00000000E+00
					-7.45058000E-09	 5.00000000E-01	 2.00000000E+00
					-7.45058000E-09	 1.00000000E+00	 2.00000000E+00
					 2.50000000E-01	 5.00000000E-01	 2.00000000E+00
					 2.50000000E-01	 1.00000000E+00	 2.00000000E+00
					-7.45058000E-09	 5.00000000E-01	 1.50000000E+00
					-7.45058000E-09	 7.50000000E-01	 2.00000000E+00
					-7.45058000E-09	 1.00000000E+00	 1.50000000E+00
					-7.45058000E-09	-1.49012000E-08	 2.00000000E+00
					 2.50000000E-01	-1.49012000E-08	 2.00000000E+00
					-7.45058000E-09	-1.49012000E-08	 1.50000000E+00
					-7.45058000E-09	 2.50000000E-01	 2.00000000E+00
					 1.00000000E+00	 5.00000000E-01	 3.00000000E+00
					 1.00000000E+00	 1.00000000E+00	 3.00000000E+00
					 5.00000000E-01	 5.00000000E-01	 3.00000000E+00
					 5.00000000E-01	 1.00000000E+00	 3.00000000E+00
					 1.00000000E+00	 5.00000000E-01	 2.50000000E+00
					 1.00000000E+00	 7.50000000E-01	 3.00000000E+00
					 1.00000000E+00	 1.00000000E+00	 2.50000000E+00
					 7.50000000E-01	 5.00000000E-01	 3.00000000E+00
					 7.50000000E-01	 1.00000000E+00	 3.00000000E+00
					 5.00000000E-01	 5.00000000E-01	 2.50000000E+00
					 5.00000000E-01	 7.50000000E-01	 3.00000000E+00
					 5.00000000E-01	 1.00000000E+00	 2.50000000E+00
					 1.00000000E+00	-1.49012000E-08	 3.00000000E+00
					 5.00000000E-01	-1.49012000E-08	 3.00000000E+00
					 1.00000000E+00	-1.49012000E-08	 2.50000000E+00
					 1.00000000E+00	 2.50000000E-01	 3.00000000E+00
					 7.50000000E-01	-1.49012000E-08	 3.00000000E+00
					 5.00000000E-01	-1.49012000E-08	 2.50000000E+00
					 5.00000000E-01	 2.50000000E-01	 3.00000000E+00
					-7.45058000E-09	 5.00000000E-01	 3.00000000E+00
					-7.45058000E-09	 1.00000000E+00	 3.00000000E+00
					 2.50000000E-01	 5.00000000E-01	 3.00000000E+00
					 2.50000000E-01	 1.00000000E+00	 3.00000000E+00
					-7.45058000E-09	 5.00000000E-01	 2.50000000E+00
					-7.45058000E-09	 7.50000000E-01	 3.00000000E+00
					-7.45058000E-09	 1.00000000E+00	 2.50000000E+00
					-7.45058000E-09	-1.49012000E-08	 3.00000000E+00
					 2.50000000E-01	-1.49012000E-08	 3.00000000E+00
					-7.45058000E-09	-1.49012000E-08	 2.50000000E+00
					-7.45058000E-09	 2.50000000E-01	 3.00000000E+00
					 1.00000000E+00	 5.00000000E-01	 4.00000000E+00
					 1.00000000E+00	 1.00000000E+00	 4.00000000E+00
					 5.00000000E-01	 5.00000000E-01	 4.00000000E+00
					 5.00000000E-01	 1.00000000E+00	 4.00000000E+00
					 1.00000000E+00	 5.00000000E-01	 3.50000000E+00
					 1.00000000E+00	 7.50000000E-01	 4.00000000E+00
					 1.00000000E+00	 1.00000000E+00	 3.50000000E+00
					 7.50000000E-01	 5.00000000E-01	 4.00000000E+00
					 7.50000000E-01	 1.00000000E+00	 4.00000000E+00
					 5.00000000E-01	 5.00000000E-01	 3.50000000E+00
					 5.00000000E-01	 7.50000000E-01	 4.00000000E+00
					 5.00000000E-01	 1.00000000E+00	 3.50000000E+00
					 1.00000000E+00	-1.49012000E-08	 4.00000000E+00
					 5.00000000E-01	-1.49012000E-08	 4.00000000E+00
					 1.00000000E+00	-1.49012000E-08	 3.50000000E+00
					 1.00000000E+00	 2.50000000E-01	 4.00000000E+00
					 7.50000000E-01	-1.49012000E-08	 4.00000000E+00
					 5.00000000E-01	-1.49012000E-08	 3.50000000E+00
					 5.00000000E-01	 2.50000000E-01	 4.00000000E+00
					-7.45058000E-09	 5.00000000E-01	 4.00000000E+00
					-7.45058000E-09	 1.00000000E+00	 4.00000000E+00
					 2.50000000E-01	 5.00000000E-01	 4.00000000E+00
					 2.50000000E-01	 1.00000000E+00	 4.00000000E+00
					-7.45058000E-09	 5.00000000E-01	 3.50000000E+00
					-7.45058000E-09	 7.50000000E-01	 4.00000000E+00
					-7.45058000E-09	 1.00000000E+00	 3.50000000E+00
					-7.45058000E-09	-1.49012000E-08	 4.00000000E+00
					 2.50000000E-01	-1.49012000E-08	 4.00000000E+00
					-7.45058000E-09	-1.49012000E-08	 3.50000000E+00
					-7.45058000E-09	 2.50000000E-01	 4.00000000E+00
					 1.00000000E+00	 5.00000000E-01	 5.00000000E+00
					 1.00000000E+00	 1.00000000E+00	 5.00000000E+00
					 5.00000000E-01	 5.00000000E-01	 5.00000000E+00
					 5.00000000E-01	 1.00000000E+00	 5.00000000E+00
					 1.00000000E+00	 5.00000000E-01	 4.50000000E+00
					 1.00000000E+00	 7.50000000E-01	 5.00000000E+00
					 1.00000000E+00	 1.00000000E+00	 4.50000000E+00
					 7.50000000E-01	 5.00000000E-01	 5.00000000E+00
					 7.50000000E-01	 1.00000000E+00	 5.00000000E+00
					 5.00000000E-01	 5.00000000E-01	 4.50000000E+00
					 5.00000000E-01	 7.50000000E-01	 5.00000000E+00
					 5.00000000E-01	 1.00000000E+00	 4.50000000E+00
					 1.00000000E+00	-1.49012000E-08	 5.00000000E+00
					 5.00000000E-01	-1.49012000E-08	 5.00000000E+00
					 1.00000000E+00	-1.49012000E-08	 4.50000000E+00
					 1.00000000E+00	 2.50000000E-01	 5.00000000E+00
					 7.50000000E-01	-1.49012000E-08	 5.00000000E+00
					 5.00000000E-01	-1.49012000E-08	 4.50000000E+00
					 5.00000000E-01	 2.50000000E-01	 5.00000000E+00
					-7.45058000E-09	 5.00000000E-01	 5.00000000E+00
					-7.45058000E-09	 1.00000000E+00	 5.00000000E+00
					 2.50000000E-01	 5.00000000E-01	 5.00000000E+00
					 2.50000000E-01	 1.00000000E+00	 5.00000000E+00
					-7.45058000E-09	 5.00000000E-01	 4.50000000E+00
					-7.45058000E-09	 7.50000000E-01	 5.00000000E+00
					-7.45058000E-09	 1.00000000E+00	 4.50000000E+00
					-7.45058000E-09	-1.49012000E-08	 5.00000000E+00
					 2.50000000E-01	-1.49012000E-08	 5.00000000E+00
					-7.45058000E-09	-1.49012000E-08	 4.50000000E+00
					-7.45058000E-09	 2.50000000E-01	 5.00000000E+00
					 1.00000000E+00	 5.00000000E-01	 6.00000000E+00
					 1.00000000E+00	 1.00000000E+00	 6.00000000E+00
					 5.00000000E-01	 5.00000000E-01	 6.00000000E+00
					 5.00000000E-01	 1.00000000E+00	 6.00000000E+00
					 1.00000000E+00	 5.00000000E-01	 5.50000000E+00
					 1.00000000E+00	 7.50000000E-01	 6.00000000E+00
					 1.00000000E+00	 1.00000000E+00	 5.50000000E+00
					 7.50000000E-01	 5.00000000E-01	 6.00000000E+00
					 7.50000000E-01	 1.00000000E+00	 6.00000000E+00
					 5.00000000E-01	 5.00000000E-01	 5.50000000E+00
					 5.00000000E-01	 7.50000000E-01	 6.00000000E+00
					 5.00000000E-01	 1.00000000E+00	 5.50000000E+00
					 1.00000000E+00	-1.49012000E-08	 6.00000000E+00
[...]
			<PointData>
				<DataArray type="Float32" Name="U" NumberOfComponents="3" ComponentName0="D1" ComponentName1="D2" ComponentName2="D3" format="ascii">
					 0.00000000E+00	 0.00000000E+00	 0.00000000E+00
					 0.00000000E+00	 0.00000000E+00	 0.00000000E+00
					 3.21498000E-05	-5.49345000E-03	-5.76581000E-05
					-6.65055000E-04	-5.69513000E-03	 4.28483000E-03
					 0.00000000E+00	 0.00000000E+00	 0.00000000E+00
					 0.00000000E+00	 0.00000000E+00	 0.00000000E+00
					 2.40807000E-05	-5.97641000E-03	-5.22480000E-05
					-2.31208000E-04	-6.19085000E-03	 4.35301000E-03
					 0.00000000E+00	 0.00000000E+00	 0.00000000E+00
					 2.25298000E-05	-1.53317000E-03	-2.41698000E-05
					-3.17910000E-04	-5.50666000E-03	 2.03601000E-03
					-7.53226000E-04	-1.90030000E-03	 2.36595000E-03
					 0.00000000E+00	 0.00000000E+00	 0.00000000E+00
					 0.00000000E+00	 0.00000000E+00	 0.00000000E+00
					 2.89036000E-05	-5.81852000E-03	-5.57146000E-05
					-4.43666000E-04	-6.02517000E-03	 4.30515000E-03
					 0.00000000E+00	 0.00000000E+00	 0.00000000E+00
					 1.40989000E-05	-1.93532000E-03	-1.75672000E-05
					-1.02866000E-04	-5.99284000E-03	 2.05278000E-03
					-1.06695000E-04	-2.30918000E-03	 2.32618000E-03
					 0.00000000E+00	 0.00000000E+00	 0.00000000E+00
					 7.23304000E-04	-5.66319000E-03	-4.40328000E-03
					 0.00000000E+00	 0.00000000E+00	 0.00000000E+00
					 2.80076000E-04	-6.15483000E-03	-4.46380000E-03
					 0.00000000E+00	 0.00000000E+00	 0.00000000E+00
					 7.89650000E-04	-1.89778000E-03	-2.41999000E-03
					 3.80749000E-04	-5.49173000E-03	-2.15289000E-03
					 0.00000000E+00	 0.00000000E+00	 0.00000000E+00
					 4.98518000E-04	-5.98968000E-03	-4.41954000E-03
					 0.00000000E+00	 0.00000000E+00	 0.00000000E+00
					 1.30545000E-04	-2.29838000E-03	-2.36650000E-03
					 1.51504000E-04	-5.97521000E-03	-2.15900000E-03
					 0.00000000E+00	 0.00000000E+00	 0.00000000E+00
					 0.00000000E+00	 0.00000000E+00	 0.00000000E+00
					 1.57376000E-05	-6.00538000E-03	-3.97860000E-05
					 2.11745000E-04	-6.19696000E-03	 4.29860000E-03
					 0.00000000E+00	 0.00000000E+00	 0.00000000E+00
					 0.00000000E+00	 0.00000000E+00	 0.00000000E+00
					 1.89645000E-05	-6.07365000E-03	-4.68592000E-05
					-1.36822000E-05	-6.27841000E-03	 4.36000000E-03
					 0.00000000E+00	 0.00000000E+00	 0.00000000E+00
					 6.82449000E-06	-1.77058000E-03	-1.03719000E-05
					 1.13538000E-04	-6.01266000E-03	 2.00147000E-03
					 5.50666000E-04	-2.13269000E-03	 2.37788000E-03
					 0.00000000E+00	 0.00000000E+00	 0.00000000E+00
					-1.73778000E-04	-6.16664000E-03	-4.38560000E-03
					 0.00000000E+00	 0.00000000E+00	 0.00000000E+00
					 5.56579000E-05	-6.24335000E-03	-4.46230000E-03
					 0.00000000E+00	 0.00000000E+00	 0.00000000E+00
					-5.38536000E-04	-2.11767000E-03	-2.40426000E-03
					-7.98906000E-05	-5.99928000E-03	-2.08221000E-03
					 4.69149000E-05	-1.69305000E-02	-1.42983000E-04
					-1.03010000E-03	-1.71711000E-02	 6.83492000E-03
					 4.67117000E-05	-1.78407000E-02	-1.48790000E-04
					-6.78062000E-04	-1.80679000E-02	 6.83283000E-03
					 3.98381000E-05	-1.06771000E-02	-9.81382000E-05
					-4.96957000E-04	-1.70177000E-02	 3.38647000E-03
					-7.87464000E-04	-1.09461000E-02	 5.66028000E-03
					 4.56658000E-05	-1.74241000E-02	-1.46282000E-04
					-8.54481000E-04	-1.76528000E-02	 6.78818000E-03
					 3.47580000E-05	-1.13275000E-02	-9.73771000E-05
					-3.15617000E-04	-1.79201000E-02	 3.33898000E-03
					-4.10369000E-04	-1.15791000E-02	 5.67220000E-03
					 1.13686000E-03	-1.70581000E-02	-7.12803000E-03
					 7.78952000E-04	-1.79714000E-02	-7.13627000E-03
					 8.73658000E-04	-1.08737000E-02	-5.85978000E-03
					 5.93707000E-04	-1.69574000E-02	-3.67452000E-03
					 9.58648000E-04	-1.75516000E-02	-7.08748000E-03
					 4.87800000E-04	-1.15161000E-02	-5.87182000E-03
					 4.11442000E-04	-1.78729000E-02	-3.63826000E-03
					 4.67651000E-05	-1.83880000E-02	-1.47251000E-04
					-3.14413000E-04	-1.86081000E-02	 6.83036000E-03
					 4.76374000E-05	-1.81522000E-02	-1.49285000E-04
					-4.95114000E-04	-1.83753000E-02	 6.87511000E-03
					 3.04080000E-05	-1.15766000E-02	-8.66580000E-05
					-1.31798000E-04	-1.84615000E-02	 3.29168000E-03
					-2.31720000E-05	-1.18278000E-02	 5.66802000E-03
					 4.08496000E-04	-1.85140000E-02	-7.12931000E-03
					 5.92683000E-04	-1.82797000E-02	-7.17783000E-03
					 9.32543000E-05	-1.17741000E-02	-5.84824000E-03
					 2.25454000E-04	-1.84165000E-02	-3.58800000E-03
					 6.12313000E-05	-3.25772000E-02	-2.68422000E-04
					-1.87227000E-03	-3.28312000E-02	 9.05055000E-03
					 6.48814000E-05	-3.43408000E-02	-2.98060000E-04
					-1.53648000E-03	-3.45946000E-02	 9.03061000E-03
					 5.56093000E-05	-2.42144000E-02	-1.97730000E-04
					-9.04320000E-04	-3.26586000E-02	 4.45535000E-03
					-1.39479000E-03	-2.44662000E-02	 7.97380000E-03
					 6.41412000E-05	-3.35049000E-02	-2.84421000E-04
					-1.70385000E-03	-3.37573000E-02	 8.96038000E-03
					 5.63836000E-05	-2.54977000E-02	-2.13071000E-04
					-7.34988000E-04	-3.44210000E-02	 4.35076000E-03
					-1.04901000E-03	-2.57369000E-02	 7.96265000E-03
					 1.98822000E-03	-3.26581000E-02	-9.59731000E-03
					 1.66078000E-03	-3.44177000E-02	-9.63488000E-03
					 1.50968000E-03	-2.43261000E-02	-8.38154000E-03
					 1.02473000E-03	-3.25721000E-02	-4.99470000E-03
					 1.82511000E-03	-3.35840000E-02	-9.53927000E-03
					 1.16211000E-03	-2.56036000E-02	-8.39749000E-03
					 8.62471000E-04	-3.43328000E-02	-4.94930000E-03
					 6.31656000E-05	-3.57723000E-02	-3.18643000E-04
					-1.19159000E-03	-3.60153000E-02	 9.00137000E-03
					 6.46130000E-05	-3.51002000E-02	-3.09333000E-04
					-1.36270000E-03	-3.53547000E-02	 9.10074000E-03
					 5.50366000E-05	-2.64249000E-02	-2.22110000E-04
					-5.68094000E-04	-3.58463000E-02	 4.24121000E-03
					-6.88290000E-04	-2.66577000E-02	 7.95169000E-03
					 1.31681000E-03	-3.58379000E-02	-9.64540000E-03
					 1.48835000E-03	-3.51744000E-02	-9.72681000E-03
					 7.96073000E-04	-2.65228000E-02	-8.40116000E-03
					 6.94384000E-04	-3.57596000E-02	-4.88009000E-03
					 4.70839000E-05	-5.24329000E-02	-4.59483000E-04
					-3.04267000E-03	-5.26412000E-02	 1.06525000E-02
					 6.01433000E-05	-5.54282000E-02	-5.25756000E-04
					-2.85822000E-03	-5.56425000E-02	 1.06133000E-02
					 5.75600000E-05	-4.20206000E-02	-3.54151000E-04
					-1.49671000E-03	-5.25156000E-02	 5.13855000E-03
					-2.43907000E-03	-4.22581000E-02	 9.99151000E-03
					 5.36227000E-05	-5.39519000E-02	-4.94338000E-04
					-2.95112000E-03	-5.41629000E-02	 1.05413000E-02
					 6.68742000E-05	-4.43757000E-02	-4.02652000E-04
					-1.39989000E-03	-5.55124000E-02	 4.99358000E-03
					-2.15783000E-03	-4.46152000E-02	 9.96161000E-03
					 3.13163000E-03	-5.23838000E-02	-1.15739000E-02
					 2.97199000E-03	-5.53813000E-02	-1.16690000E-02
					 2.54544000E-03	-4.20422000E-02	-1.07058000E-02
					 1.58895000E-03	-5.23869000E-02	-6.05818000E-03
					 3.05204000E-03	-5.39066000E-02	-1.15318000E-02
					 2.28332000E-03	-4.43929000E-02	-1.07732000E-02
					 1.51710000E-03	-5.53845000E-02	-6.04565000E-03
					 6.82573000E-05	-5.82584000E-02	-5.92973000E-04
					-2.68322000E-03	-5.84742000E-02	 1.05187000E-02
					 6.55137000E-05	-5.68640000E-02	-5.58047000E-04
					-2.76972000E-03	-5.70813000E-02	 1.06893000E-02
					 6.99875000E-05	-4.64589000E-02	-4.43543000E-04
					-1.30744000E-03	-5.83416000E-02	 4.79336000E-03
					-1.87142000E-03	-4.66894000E-02	 9.90189000E-03
					 2.81330000E-03	-5.82095000E-02	-1.17095000E-02
					 2.89365000E-03	-5.68140000E-02	-1.18111000E-02
					 2.00554000E-03	-4.64646000E-02	-1.07955000E-02
					 1.44183000E-03	-5.82162000E-02	-5.97974000E-03
					 4.65446000E-05	-7.48024000E-02	-7.19381000E-04
					-3.96115000E-03	-7.49066000E-02	 1.06466000E-02
					 5.72756000E-05	-7.88436000E-02	-8.12877000E-04
					-4.02644000E-03	-7.89541000E-02	 1.05723000E-02
					 4.38330000E-05	-6.35145000E-02	-5.86452000E-04
					-1.95727000E-03	-7.48663000E-02	 4.97657000E-03
					-3.56914000E-03	-6.36686000E-02	 1.08430000E-02
					 5.27033000E-05	-7.68109000E-02	-7.64517000E-04
					-3.99260000E-03	-7.69185000E-02	 1.05612000E-02
					 5.54499000E-05	-6.70969000E-02	-6.66458000E-04
					-1.98571000E-03	-7.89104000E-02	 4.84108000E-03
					-3.51550000E-03	-6.72606000E-02	 1.07931000E-02
					 4.04895000E-03	-7.46173000E-02	-1.20775000E-02
					 4.14008000E-03	-7.86587000E-02	-1.21906000E-02
					 3.65371000E-03	-6.33873000E-02	-1.20121000E-02
					 2.04879000E-03	-7.47204000E-02	-6.41283000E-03
					 4.09431000E-03	-7.66274000E-02	-1.20832000E-02
					 3.62417000E-03	-6.69766000E-02	-1.21245000E-02
					 2.09991000E-03	-7.87636000E-02	-6.46534000E-03
					 6.81068000E-05	-8.29658000E-02	-9.11608000E-04
					-4.10791000E-03	-8.30862000E-02	 1.04555000E-02
					 6.16963000E-05	-8.08941000E-02	-8.62685000E-04
					-4.06960000E-03	-8.10069000E-02	 1.05837000E-02
					 6.44318000E-05	-7.06491000E-02	-7.53515000E-04
					-2.01621000E-03	-8.30359000E-02	 4.66562000E-03
					-3.48522000E-03	-7.08246000E-02	 1.06764000E-02
					 4.24822000E-03	-8.27950000E-02	-1.22727000E-02
					 4.19508000E-03	-8.07093000E-02	-1.23023000E-02
					 3.61429000E-03	-7.05414000E-02	-1.21838000E-02
					 2.15362000E-03	-8.28951000E-02	-6.48777000E-03
					 3.17154000E-05	-9.63715000E-02	-9.53960000E-04
					-4.51348000E-03	-9.64324000E-02	 9.53478000E-03
					 4.72811000E-05	-1.00983000E-01	-1.05973000E-03
					-4.63790000E-03	-1.01048000E-01	 9.42658000E-03
					 4.23778000E-05	-8.58368000E-02	-8.42366000E-04
					-2.24178000E-03	-9.64241000E-02	 4.32870000E-03
					-4.26235000E-03	-8.59187000E-02	 1.01403000E-02
					 4.01111000E-05	-9.86596000E-02	-1.00718000E-03
					-4.57608000E-03	-9.87209000E-02	 9.44639000E-03
					 5.53041000E-05	-9.02009000E-02	-9.45430000E-04
					-2.29609000E-03	-1.01038000E-01	 4.18856000E-03
					-4.37615000E-03	-9.02888000E-02	 1.00432000E-02
					 4.56807000E-03	-9.61685000E-02	-1.14462000E-02
					 4.73018000E-03	-1.00772000E-01	-1.15499000E-02
					 4.33948000E-03	-8.56368000E-02	-1.18209000E-02
					 2.30232000E-03	-9.62884000E-02	-6.23854000E-03
					 4.65010000E-03	-9.84517000E-02	-1.14640000E-02
					 4.48453000E-03	-8.99964000E-02	-1.19292000E-02
					 2.39027000E-03	-1.00897000E-01	-6.30952000E-03
					 6.64647000E-05	-1.05730000E-01	-1.16455000E-03
					-4.76503000E-03	-1.05801000E-01	 9.32362000E-03
					 5.53693000E-05	-1.03337000E-01	-1.11182000E-03
					-4.70201000E-03	-1.03405000E-01	 9.40452000E-03
					 7.08218000E-05	-9.46939000E-02	-1.05056000E-03
					-2.34882000E-03	-1.05786000E-01	 4.05571000E-03
					-4.50141000E-03	-9.47916000E-02	 9.93185000E-03
					 4.90192000E-03	-1.05526000E-01	-1.16570000E-02
					 4.81441000E-03	-1.03127000E-01	-1.16321000E-02
					 4.64602000E-03	-9.45009000E-02	-1.20280000E-02
					 2.48357000E-03	-1.05648000E-01	-6.38672000E-03
					 7.11976000E-06	-1.15817000E-01	-1.15479000E-03
					-5.11113000E-03	-1.15886000E-01	 8.56731000E-03
					 3.50857000E-05	-1.20948000E-01	-1.26091000E-03
					-5.13593000E-03	-1.21032000E-01	 8.46523000E-03
					 1.90676000E-05	-1.06315000E-01	-1.05662000E-03
					-2.54999000E-03	-1.15859000E-01	 3.76173000E-03
					-4.79888000E-03	-1.06382000E-01	 8.98997000E-03
					 2.12866000E-05	-1.18377000E-01	-1.20716000E-03
					-5.12722000E-03	-1.18456000E-01	 8.47173000E-03
					 4.10638000E-05	-1.11180000E-01	-1.16375000E-03
					-2.55400000E-03	-1.20999000E-01	 3.61912000E-03
					-4.88589000E-03	-1.11249000E-01	 8.87663000E-03
					 5.10349000E-03	-1.15666000E-01	-1.08657000E-02
					 5.20324000E-03	-1.20791000E-01	-1.09749000E-02
					 4.82756000E-03	-1.06141000E-01	-1.11087000E-02
					 2.55830000E-03	-1.15752000E-01	-6.06409000E-03
					 5.15275000E-03	-1.18222000E-01	-1.08772000E-02
					 4.96673000E-03	-1.10999000E-01	-1.12101000E-02
					 2.62272000E-03	-1.20879000E-01	-6.13573000E-03
					 6.27658000E-05	-1.26141000E-01	-1.37490000E-03
					-5.16829000E-03	-1.26221000E-01	 8.37486000E-03
					 4.87919000E-05	-1.23533000E-01	-1.31852000E-03
					-5.15034000E-03	-1.23619000E-01	 8.45130000E-03
					 6.47247000E-05	-1.16150000E-01	-1.26756000E-03
					-2.55750000E-03	-1.26186000E-01	 3.48930000E-03
					-4.96946000E-03	-1.16217000E-01	 8.78467000E-03
					 5.30868000E-03	-1.25996000E-01	-1.11112000E-02
					 5.25844000E-03	-1.23381000E-01	-1.10770000E-02
					 5.10532000E-03	-1.15971000E-01	-1.13265000E-02
					 2.68651000E-03	-1.26079000E-01	-6.23135000E-03
					 3.75272000E-05	-1.34548000E-01	-1.34892000E-03
					-5.40545000E-03	-1.34662000E-01	 8.18260000E-03
					 1.82176000E-05	-1.39986000E-01	-1.43424000E-03
					-5.38838000E-03	-1.40157000E-01	 8.13428000E-03
					 9.72504000E-06	-1.25145000E-01	-1.25394000E-03
					-2.66805000E-03	-1.34605000E-01	 3.41698000E-03
					-5.34850000E-03	-1.25225000E-01	 8.31893000E-03
					 3.50441000E-05	-1.37257000E-01	-1.38345000E-03
					-5.39457000E-03	-1.37413000E-01	 8.15471000E-03
					 2.79094000E-05	-1.30484000E-01	-1.34911000E-03
					-2.67515000E-03	-1.40078000E-01	 3.34722000E-03
					-5.33216000E-03	-1.30604000E-01	 8.24908000E-03
					 5.40203000E-03	-1.34392000E-01	-1.08175000E-02
					 5.41740000E-03	-1.39810000E-01	-1.09428000E-02
					 5.31324000E-03	-1.25009000E-01	-1.07825000E-02
					 2.72185000E-03	-1.34466000E-01	-6.09494000E-03
					 5.41030000E-03	-1.37087000E-01	-1.08629000E-02
					 5.38191000E-03	-1.30334000E-01	-1.09021000E-02
					 2.70883000E-03	-1.39888000E-01	-6.19923000E-03
					-1.07699000E-06	-1.45443000E-01	-1.58027000E-03
					-5.37761000E-03	-1.45600000E-01	 8.04689000E-03
					 2.02358000E-06	-1.42726000E-01	-1.50197000E-03
					-5.38587000E-03	-1.42892000E-01	 8.10132000E-03
					 4.43316000E-05	-1.35852000E-01	-1.48410000E-03
					-2.68852000E-03	-1.45524000E-01	 3.23157000E-03
					-5.31935000E-03	-1.35962000E-01	 8.15785000E-03
					 5.44085000E-03	-1.45310000E-01	-1.11445000E-02
					 5.42925000E-03	-1.42557000E-01	-1.10454000E-02
					 5.45101000E-03	-1.35732000E-01	-1.10771000E-02
					 2.70388000E-03	-1.45371000E-01	-6.37298000E-03
					 0.00000000E+00	 0.00000000E+00	 0.00000000E+00
					 0.00000000E+00	 0.00000000E+00	 0.00000000E+00
					 1.98211000E-05	-8.27116000E-03	 7.07833000E-06
					-2.83131000E-03	-9.04380000E-03	 1.00859000E-02
					 0.00000000E+00	 0.00000000E+00	 0.00000000E+00
					 0.00000000E+00	 0.00000000E+00	 0.00000000E+00
					 2.23221000E-05	-1.03786000E-02	-7.26569000E-06
					-1.39737000E-03	-1.12059000E-02	 1.01734000E-02
					 0.00000000E+00	 0.00000000E+00	 0.00000000E+00
					 7.45319000E-06	-1.08147000E-03	 2.40194000E-05
					-1.40700000E-03	-8.41756000E-03	 5.10320000E-03
					-2.19281000E-03	-2.01308000E-03	 4.97170000E-03
					 0.00000000E+00	 0.00000000E+00	 0.00000000E+00
					 0.00000000E+00	 0.00000000E+00	 0.00000000E+00
					 2.28189000E-05	-9.55885000E-03	-4.70244000E-06
					-2.10274000E-03	-1.03563000E-02	 9.99085000E-03
					 0.00000000E+00	 0.00000000E+00	 0.00000000E+00
					 7.02080000E-06	-2.45740000E-03	 1.75625000E-05
					-6.87280000E-04	-1.05412000E-02	 5.00062000E-03
					-6.85815000E-04	-3.37491000E-03	 4.81507000E-03
					 0.00000000E+00	 0.00000000E+00	 0.00000000E+00
					 2.84657000E-03	-8.78069000E-03	-1.01129000E-02
					 0.00000000E+00	 0.00000000E+00	 0.00000000E+00
					 1.44285000E-03	-1.09283000E-02	-1.02336000E-02
					 0.00000000E+00	 0.00000000E+00	 0.00000000E+00
					 2.18682000E-03	-1.90760000E-03	-4.92849000E-03
					 1.43918000E-03	-8.27925000E-03	-5.10476000E-03
					 0.00000000E+00	 0.00000000E+00	 0.00000000E+00
					 2.13786000E-03	-1.00837000E-02	-1.00399000E-02
					 0.00000000E+00	 0.00000000E+00	 0.00000000E+00
					 6.96374000E-04	-3.26253000E-03	-4.77684000E-03
					 7.31183000E-04	-1.03978000E-02	-5.03133000E-03
					 0.00000000E+00	 0.00000000E+00	 0.00000000E+00
					 0.00000000E+00	 0.00000000E+00	 0.00000000E+00
					 2.49146000E-05	-1.11109000E-02	 9.78298000E-06
					 4.61705000E-05	-1.18759000E-02	 1.00924000E-02
					 0.00000000E+00	 0.00000000E+00	 0.00000000E+00
					 0.00000000E+00	 0.00000000E+00	 0.00000000E+00
					 2.22391000E-05	-1.09766000E-02	-3.40497000E-06
					-6.85689000E-04	-1.17742000E-02	 1.02529000E-02
					 0.00000000E+00	 0.00000000E+00	 0.00000000E+00
					 6.38317000E-06	-2.46326000E-03	 2.87686000E-05
					 3.41574000E-05	-1.12483000E-02	 4.84825000E-03
					 8.73264000E-04	-3.34779000E-03	 4.98176000E-03
					 0.00000000E+00	 0.00000000E+00	 0.00000000E+00
					 2.29342000E-05	-1.16065000E-02	-1.01124000E-02
					 0.00000000E+00	 0.00000000E+00	 0.00000000E+00
					 7.38255000E-04	-1.14975000E-02	-1.03060000E-02
					 0.00000000E+00	 0.00000000E+00	 0.00000000E+00
					-8.51736000E-04	-3.23055000E-03	-4.92280000E-03
					 2.32449000E-05	-1.11159000E-02	-4.84019000E-03
					 1.29070000E-04	-3.77896000E-02	-4.02696000E-04
					-3.59112000E-03	-3.86172000E-02	 1.80465000E-02
					 1.46623000E-04	-4.10149000E-02	-4.35207000E-04
					-2.59876000E-03	-4.18499000E-02	 1.80737000E-02
					 6.10706000E-05	-2.07570000E-02	-1.28561000E-04
					-1.72889000E-03	-3.80940000E-02	 8.74614000E-03
					-3.33101000E-03	-2.16191000E-02	 1.45545000E-02
					 1.36035000E-04	-3.95095000E-02	-4.24486000E-04
					-3.09554000E-03	-4.03415000E-02	 1.80166000E-02
					 6.65525000E-05	-2.35072000E-02	-1.54377000E-04
					-1.22233000E-03	-4.13204000E-02	 8.70174000E-03
					-2.05878000E-03	-2.43799000E-02	 1.45901000E-02
					 3.85982000E-03	-3.78657000E-02	-1.89041000E-02
					 2.89459000E-03	-4.11186000E-02	-1.89959000E-02
					 3.44529000E-03	-2.11235000E-02	-1.48654000E-02
					 1.98787000E-03	-3.77199000E-02	-9.56406000E-03
					 3.38000000E-03	-3.96101000E-02	-1.89153000E-02
					 2.19910000E-03	-2.38892000E-02	-1.49559000E-02
					 1.52133000E-03	-4.09645000E-02	-9.58131000E-03
					 1.60134000E-04	-4.32866000E-02	-4.29353000E-04
					-1.60251000E-03	-4.40994000E-02	 1.80201000E-02
					 1.54239000E-04	-4.22573000E-02	-4.36461000E-04
					-2.09995000E-03	-4.31172000E-02	 1.81585000E-02
					 7.23769000E-05	-2.50186000E-02	-1.37182000E-04
					-7.29083000E-04	-4.35738000E-02	 8.56772000E-03
					-7.99284000E-04	-2.58808000E-02	 1.45461000E-02
					 1.95074000E-03	-4.33906000E-02	-1.89295000E-02
					 2.42190000E-03	-4.23609000E-02	-1.90851000E-02
					 9.75219000E-04	-2.54126000E-02	-1.48763000E-02
					 1.05791000E-03	-4.32369000E-02	-9.43431000E-03
					 3.86934000E-04	-8.08510000E-02	-1.32568000E-03
					-3.69620000E-03	-8.15476000E-02	 2.16333000E-02
					 4.07361000E-04	-8.46910000E-02	-1.33937000E-03
					-3.24194000E-03	-8.55075000E-02	 2.16686000E-02
					 2.42417000E-04	-5.81562000E-02	-8.07096000E-04
					-1.64988000E-03	-8.11414000E-02	 1.00714000E-02
					-3.70696000E-03	-5.89552000E-02	 2.03271000E-02
					 3.99054000E-04	-8.28253000E-02	-1.33177000E-03
					-3.47134000E-03	-8.35948000E-02	 2.16239000E-02
					 2.58992000E-04	-6.17544000E-02	-8.37303000E-04
					-1.44115000E-03	-8.50470000E-02	 1.00442000E-02
					-3.00133000E-03	-6.25707000E-02	 2.03644000E-02
					 4.42131000E-03	-8.05155000E-02	-2.42934000E-02
					 4.04514000E-03	-8.43630000E-02	-2.43902000E-02
					 4.18438000E-03	-5.80249000E-02	-2.19871000E-02
					 2.40859000E-03	-8.06392000E-02	-1.27179000E-02
					 4.23130000E-03	-8.24856000E-02	-2.43261000E-02
					 3.51936000E-03	-6.16235000E-02	-2.20821000E-02
					 2.22938000E-03	-8.44875000E-02	-1.27497000E-02
					 4.21432000E-04	-8.81324000E-02	-1.33360000E-03
					-2.90312000E-03	-8.90828000E-02	 2.16193000E-02
					 4.14483000E-04	-8.64773000E-02	-1.34096000E-03
					-3.07672000E-03	-8.72292000E-02	 2.17292000E-02
					 2.82434000E-04	-6.46759000E-02	-8.40113000E-04
					-1.20421000E-03	-8.85579000E-02	 9.93511000E-03
					-2.34151000E-03	-6.55304000E-02	 2.02997000E-02
					 3.69631000E-03	-8.78411000E-02	-2.43574000E-02
					 3.87166000E-03	-8.61403000E-02	-2.44557000E-02
					 2.86429000E-03	-6.45514000E-02	-2.20224000E-02
					 2.04664000E-03	-8.79580000E-02	-1.26530000E-02
					 8.12945000E-04	-1.29367000E-01	-2.50893000E-03
					-3.20097000E-03	-1.29888000E-01	 2.16912000E-02