<?xml version="1.0"?>
<VTKFile type="UnstructuredGrid" version="0.1" byte_order="LittleEndian">
	<UnstructuredGrid>
		<Piece NumberOfPoints="522" NumberOfCells="64">
			<Points>
				<DataArray type="Float64" NumberOfComponents="3" format="ascii">
					 1.00000000E+00	 1.00000000E+00	-5.96046000E-08
					 1.00000000E+00	 5.00000000E-01	-5.96046000E-08
					 1.00000000E+00	 5.00000000E-01	 1.00000000E+00
					 1.00000000E+00	 1.00000000E+00	 1.00000000E+00
					 5.00000000E-01	 1.00000000E+00	-5.96046000E-08
					 5.00000000E-01	 5.00000000E-01	-5.96046000E-08
					 5.00000000E-01	 5.00000000E-01	 1.00000000E+00
					 5.00000000E-01	 1.00000000E+00	 1.00000000E+00
					 1.00000000E+00	 7.50000000E-01	-5.96046000E-08
					 1.00000000E+00	 5.00000000E-01	 5.00000000E-01
					 1.00000000E+00	 7.50000000E-01	 1.00000000E+00
					 1.00000000E+00	 1.00000000E+00	 5.00000000E-01
					 7.50000000E-01	 1.00000000E+00	-5.96046000E-08
					 7.50000000E-01	 5.00000000E-01	-5.96046000E-08
					 7.50000000E-01	 5.00000000E-01	 1.00000000E+00
					 7.50000000E-01	 1.00000000E+00	 1.00000000E+00
					 5.00000000E-01	 7.50000000E-01	-5.96046000E-08
					 5.00000000E-01	 5.00000000E-01	 5.00000000E-01
					 5.00000000E-01	 7.50000000E-01	 1.00000000E+00
					 5.00000000E-01	 1.00000000E+00	 5.00000000E-01
					 1.00000000E+00	-1.49012000E-08	-5.96046000E-08
					 1.00000000E+00	-1.49012000E-08	 1.00000000E+00
					 5.00000000E-01	-1.49012000E-08	-5.96046000E-08
					 5.00000000E-01	-1.49012000E-08	 1.00000000E+00
					 1.00000000E+00	 2.50000000E-01	-5.96046000E-08
					 1.00000000E+00	-1.49012000E-08	 5.00000000E-01
					 1.00000000E+00	 2.50000000E-01	 1.00000000E+00
					 7.50000000E-01	-1.49012000E-08	-5.96046000E-08
					 7.50000000E-01	-1.49012000E-08	 1.00000000E+00
					 5.00000000E-01	 2.50000000E-01	-5.96046000E-08
					 5.00000000E-01	-1.49012000E-08	 5.00000000E-01
					 5.00000000E-01	 2.50000000E-01	 1.00000000E+00
					-7.45058000E-09	 1.00000000E+00	-5.96046000E-08
					-7.45058000E-09	 5.00000000E-01	-5.96046000E-08
					-7.45058000E-09	 5.00000000E-01	 1.00000000E+00
					-7.45058000E-09	 1.00000000E+00	 1.00000000E+00
					 2.50000000E-01	 1.00000000E+00	-5.96046000E-08
					 2.50000000E-01	 5.00000000E-01	-5.96046000E-08
					 2.50000000E-01	 5.00000000E-01	 1.00000000E+00
					 2.50000000E-01	 1.00000000E+00	 1.00000000E+00
					-7.45058000E-09	 7.50000000E-01	-5.96046000E-08
					-7.45058000E-09	 5.00000000E-01	 5.00000000E-01
					-7.45058000E-09	 7.50000000E-01	 1.00000000E+00
					-7.45058000E-09	 1.00000000E+00	 5.00000000E-01
					-7.45058000E-09	-1.49012000E-08	-5.96046000E-08
					-7.45058000E-09	-1.49012000E-08	 1.00000000E+00
					 2.50000000E-01	-1.49012000E-08	-5.96046000E-08
					 2.50000000E-01	-1.49012000E-08	 1.00000000E+00
					-7.45058000E-09	 2.50000000E-01	-5.96046000E-08
					-7.45058000E-09	-1.49012000E-08	 5.00000000E-01
					-7.45058000E-09	 2.50000000E-01	 1.00000000E+00
					 1.00000000E+00	 5.00000000E-01	 2.00000000E+00
					 1.00000000E+00	 1.00000000E+00	 2.00000000E+00
					 5.00000000E-01	 5.00000000E-01	 2.00000000E+00
					 5.00000000E-01	 1.00000000E+00	 2.00000000E+00
					 1.00000000E+00	 5.00000000E-01	 1.50000000E+00
					 1.00000000E+00	 7.50000000E-01	 2.00000000E+00
					 1.00000000E+00	 1.00000000E+00	 1.50000000E+00
					 7.50000000E-01	 5.00000000E-01	 2.00000000E+00
					 7.50000000E-01	 1.00000000E+00	 2.00000000E+00
					 5.00000000E-01	 5.00000000E-01	 1.50000000E+00
					 5.00000000E-01	 7.50000000E-01	 2.00000000E+00
					 5.00000000E-01	 1.00000000E+00	 1.50000000E+00
					 1.00000000E+00	-1.49012000E-08	 2.00000000E+00
					 5.00000000E-01	-1.49012000E-08	 2.00000000E+00
					 1.00000000E+00	-1.49012000E-08	 1.50000000E+00
					 1.00000000E+00	 2.50000000E-01	 2.00000000E+00
					 7.50000000E-01	-1.49012000E-08	 2.00000000E+00
					 5.00000000E-01	-1.49012000E-08	 1.50000000E+00
					 5.00000000E-01	 2.50000000E-01	 2.00000000E+00
					-7.45058000E-09	 5.00000000E-01	 2.00000000E+00
					-7.45058000E-09	 1.00000000E+00	 2.00000000E+00
					 2.50000000E-01	 5.00000000E-01	 2.00000000E+00
					 2.50000000E-01	 1.00000000E+00	 2.00000000E+00
					-7.45058000E-09	 5.00000000E-01	 1.50000000E+00
					-7.45058000E-09	 7.50000000E-01	 2.00000000E+00
					-7.45058000E-09	 1.00000000E+00	 1.50000000E+00
					-7.45058000E-09	-1.49012000E-08	 2.00000000E+00
					 2.50000000E-01	-1.49012000E-08	 2.00000000E+00
					-7.45058000E-09	-1.49012000E-08	 1.50000000E+00
					-7.45058000E-09	 2.50000000E-01	 2.00000000E+00
					 1.00000000E+00	 5.00000000E-01	 3.00000000E+00
					 1.00000000E+00	 1.00000000E+00	 3.00000000E+00
					 5.00000000E-01	 5.00000000E-01	 3.00000000E+00
					 5.00000000E-01	 1.00000000E+00	 3.00000000E+00
					 1.00000000E+00	 5.00000000E-01	 2.50000000E+00
					 1.00000000E+00	 7.50000000E-01	 3.00000000E+00
					 1.00000000E+00	 1.00000000E+00	 2.50000000E+00
					 7.50000000E-01	 5.00000000E-01	 3.00000000E+00
					 7.50000000E-01	 1.00000000E+00	 3.00000000E+00
					 5.00000000E-01	 5.00000000E-01	 2.50000000E+00
					 5.00000000E-01	 7.50000000E-01	 3.00000000E+00
					 5.00000000E-01	 1.00000000E+00	 2.50000000E+00
					 1.00000000E+00	-1.49012000E-08	 3.00000000E+00
					 5.00000000E-01	-1.49012000E-08	 3.00000000E+00
					 1.00000000E+00	-1.49012000E-08	 2.50000000E+00
					 1.00000000E+00	 2.50000000E-01	 3.00000000E+00
					 7.50000000E-01	-1.49012000E-08	 3.00000000E+00
					 5.00000000E-01	-1.49012000E-08	 2.50000000E+00
					 5.00000000E-01	 2.50000000E-01	 3.00000000E+00
					-7.45058000E-09	 5.00000000E-01	 3.00000000E+00
					-7.45058000E-09	 1.00000000E+00	 3.00000000E+00
					 2.50000000E-01	 5.00000000E-01	 3.00000000E+00
					 2.50000000E-01	 1.00000000E+00	 3.00000000E+00
					-7.45058000E-09	 5.00000000E-01	 2.50000000E+00
					-7.45058000E-09	 7.50000000E-01	 3.00000000E+00
					-7.45058000E-09	 1.00000000E+00	 2.50000000E+00
					-7.45058000E-09	-1.49012000E-08	 3.00000000E+00
					 2.50000000E-01	-1.49012000E-08	 3.00000000E+00
					-7.45058000E-09	-1.49012000E-08	 2.50000000E+00
					-7.45058000E-09	 2.50000000E-01	 3.00000000E+00
					 1.00000000E+00	 5.00000000E-01	 4.00000000E+00
					 1.00000000E+00	 1.00000000E+00	 4.00000000E+00
					 5.00000000E-01	 5.00000000E-01	 4.00000000E+00
					 5.00000000E-01	 1.00000000E+00	 4.00000000E+00
					 1.00000000E+00	 5.00000000E-01	 3.50000000E+00
					 1.00000000E+00	 7.50000000E-01	 4.00000000E+00
					 1.00000000E+00	 1.00000000E+00	 3.50000000E+00
					 7.50000000E-01	 5.00000000E-01	 4.00000000E+00
					 7.50000000E-01	 1.00000000E+00	 4.00000000E+00
					 5.00000000E-01	 5.00000000E-01	 3.50000000E+00
					 5.00000000E-01	 7.50000000E-01	 4.00000000E+00
					 5.00000000E-01	 1.00000000E+00	 3.50000000E+00
					 1.00000000E+00	-1.49012000E-08	 4.00000000E+00
					 5.00000000E-01	-1.49012000E-08	 4.00000000E+00
					 1.00000000E+00	-1.49012000E-08	 3.50000000E+00
					 1.00000000E+00	 2.50000000E-01	 4.00000000E+00
					 7.50000000E-01	-1.49012000E-08	 4.00000000E+00
					 5.00000000E-01	-1.49012000E-08	 3.50000000E+00
					 5.00000000E-01	 2.50000000E-01	 4.00000000E+00
					-7.45058000E-09	 5.00000000E-01	 4.00000000E+00
					-7.45058000E-09	 1.00000000E+00	 4.00000000E+00
					 2.50000000E-01	 5.00000000E-01	 4.00000000E+00
					 2.50000000E-01	 1.00000000E+00	 4.00000000E+00
					-7.45058000E-09	 5.00000000E-01	 3.50000000E+00
					-7.45058000E-09	 7.50000000E-01	 4.00000000E+00
					-7.45058000E-09	 1.00000000E+00	 3.50000000E+00
					-7.45058000E-09	-1.49012000E-08	 4.00000000E+00
					 2.50000000E-01	-1.49012000E-08	 4.00000000E+00
					-7.45058000E-09	-1.49012000E-08	 3.50000000E+00
					-7.45058000E-09	 2.50000000E-01	 4.00000000E+00
					 1.00000000E+00	 5.00000000E-01	 5.00000000E+00
					 1.00000000E+00	 1.00000000E+00	 5.00000000E+00
					 5.00000000E-01	 5.00000000E-01	 5.00000000E+00
					 5.00000000E-01	 1.00000000E+00	 5.00000000E+00
					 1.00000000E+00	 5.00000000E-01	 4.50000000E+00
					 1.00000000E+00	 7.50000000E-01	 5.00000000E+00
					 1.00000000E+00	 1.00000000E+00	 4.50000000E+00
					 7.50000000E-01	 5.00000000E-01	 5.00000000E+00
					 7.50000000E-01	 1.00000000E+00	 5.00000000E+00
					 5.00000000E-01	 5.00000000E-01	 4.50000000E+00
					 5.00000000E-01	 7.50000000E-01	 5.00000000E+00
					 5.00000000E-01	 1.00000000E+00	 4.50000000E+00
					 1.00000000E+00	-1.49012000E-08	 5.00000000E+00
					 5.00000000E-01	-1.49012000E-08	 5.00000000E+00
					 1.00000000E+00	-1.49012000E-08	 4.50000000E+00
					 1.00000000E+00	 2.50000000E-01	 5.00000000E+00
					 7.50000000E-01	-1.49012000E-08	 5.00000000E+00
					 5.00000000E-01	-1.49012000E-08	 4.50000000E+00
					 5.00000000E-01	 2.50000000E-01	 5.00000000E+00
					-7.45058000E-09	 5.00000000E-01	 5.00000000E+00
					-7.45058000E-09	 1.00000000E+00	 5.00000000E+00
					 2.50000000E-01	 5.00000000E-01	 5.00000000E+00
					 2.50000000E-01	 1.00000000E+00	 5.00000000E+00
					-7.45058000E-09	 5.00000000E-01	 4.50000000E+00
					-7.45058000E-09	 7.50000000E-01	 5.00000000E+00
					-7.45058000E-09	 1.00000000E+00	 4.50000000E+00
					-7.45058000E-09	-1.49012000E-08	 5.00000000E+00
					 2.50000000E-01	-1.49012000E-08	 5.00000000E+00
					-7.45058000E-09	-1.49012000E-08	 4.50000000E+00
					-7.45058000E-09	 2.50000000E-01	 5.00000000E+00
					 1.00000000E+00	 5.00000000E-01	 6.00000000E+00
					 1.00000000E+00	 1.00000000E+00	 6.00000000E+00
					 5.00000000E-01	 5.00000000E-01	 6.00000000E+00
					 5.00000000E-01	 1.00000000E+00	 6.00000000E+00
					 1.00000000E+00	 5.00000000E-01	 5.50000000E+00
					 1.00000000E+00	 7.50000000E-01	 6.00000000E+00
					 1.00000000E+00	 1.00000000E+00	 5.50000000E+00
					 7.50000000E-01	 5.00000000E-01	 6.00000000E+00
					 7.50000000E-01	 1.00000000E+00	 6.00000000E+00
					 5.00000000E-01	 5.00000000E-01	 5.50000000E+00
					 5.00000000E-01	 7.50000000E-01	 6.00000000E+00
					 5.00000000E-01	 1.00000000E+00	 5.50000000E+00
					 1.00000000E+00	-1.49012000E-08	 6.00000000E+00
[...]
			<PointData>
				<DataArray type="Float32" Name="U" NumberOfComponents="3" ComponentName0="D1" ComponentName1="D2" ComponentName2="D3" format="ascii">
					 0.00000000E+00	 0.00000000E+00	 0.00000000E+00
					 0.00000000E+00	 0.00000000E+00	 0.00000000E+00
					 2.15395000E-06	-1.55527000E-06	-8.97422000E-06
					 1.73376000E-05	 1.38749000E-05	-2.66302000E-05
					 0.00000000E+00	 0.00000000E+00	 0.00000000E+00
					 0.00000000E+00	 0.00000000E+00	 0.00000000E+00
					-7.16119000E-07	-3.90355000E-06	-3.05573000E-05
					 1.10925000E-05	-1.65923000E-06	-2.84405000E-05
					 0.00000000E+00	 0.00000000E+00	 0.00000000E+00
					-4.67560000E-06	-5.68095000E-06	-3.05585000E-05
					-4.38135000E-05	-6.98060000E-06	-3.52265000E-05
					-2.47825000E-05	 6.37364000E-06	 3.15285000E-05
					 0.00000000E+00	 0.00000000E+00	 0.00000000E+00
					 0.00000000E+00	 0.00000000E+00	 0.00000000E+00
					 4.58946000E-06	 1.13073000E-05	-3.08424000E-05
					 2.37677000E-05	 4.18411000E-06	-1.89901000E-05
					 0.00000000E+00	 0.00000000E+00	 0.00000000E+00
					-2.44573000E-08	 9.20988000E-07	-6.00998000E-06
					-1.60093000E-05	-4.49399000E-06	-3.63796000E-05
					 1.42290000E-06	 1.07934000E-05	 7.13522000E-07
					 0.00000000E+00	 0.00000000E+00	 0.00000000E+00
					-9.97907000E-06	-7.21945000E-06	-3.30980000E-05
					 0.00000000E+00	 0.00000000E+00	 0.00000000E+00
					-5.94088000E-06	-7.57984000E-06	-3.96071000E-05
					 0.00000000E+00	 0.00000000E+00	 0.00000000E+00
					 2.18811000E-05	-4.11331000E-06	-1.91736000E-05
					 3.36789000E-05	-2.10638000E-05	-3.66933000E-05
					 0.00000000E+00	 0.00000000E+00	 0.00000000E+00
					-1.79487000E-05	 1.67436000E-05	-1.47200000E-05
					 0.00000000E+00	 0.00000000E+00	 0.00000000E+00
					-1.62149000E-05	-1.53628000E-06	 9.51419000E-06
					 1.20054000E-05	 2.52000000E-06	-3.61515000E-05
					 0.00000000E+00	 0.00000000E+00	 0.00000000E+00
					 0.00000000E+00	 0.00000000E+00	 0.00000000E+00
					-5.71059000E-06	 9.15910000E-06	-3.65664000E-05
					-3.80413000E-06	-1.51568000E-05	-2.56947000E-05
					 0.00000000E+00	 0.00000000E+00	 0.00000000E+00
					 0.00000000E+00	 0.00000000E+00	 0.00000000E+00
					-4.10684000E-06	-2.20087000E-05	-1.03040000E-05
					 6.93269000E-06	 6.45180000E-06	-1.80267000E-05
					 0.00000000E+00	 0.00000000E+00	 0.00000000E+00
					 8.96366000E-06	-6.10042000E-06	-7.26599000E-06
					-1.28607000E-05	 1.87182000E-06	-2.72376000E-05
					 5.98464000E-06	 1.62885000E-05	-1.42617000E-05
					 0.00000000E+00	 0.00000000E+00	 0.00000000E+00
					-2.30017000E-06	 1.01094000E-06	-2.22437000E-05
					 0.00000000E+00	 0.00000000E+00	 0.00000000E+00
					-1.29188000E-05	-3.42948000E-05	-2.01873000E-05
					 0.00000000E+00	 0.00000000E+00	 0.00000000E+00
					 1.33504000E-05	-1.75814000E-05	-2.71582000E-05
					 2.62818000E-05	 1.53913000E-05	-4.08043000E-05
					-1.93385000E-05	-2.65964000E-05	-3.40794000E-05
					-8.13043000E-06	-3.79278000E-05	-2.85333000E-06
					 8.54619000E-06	-2.40033000E-05	-2.29081000E-05
					-6.66469000E-06	-2.23104000E-05	-2.17449000E-05
					 3.61428000E-06	-3.32550000E-05	-2.25849000E-05
					 1.32485000E-05	-1.25690000E-05	-2.62693000E-05
					 1.00853000E-05	 1.49042000E-06	-3.31108000E-05
					-2.08027000E-07	-2.91790000E-05	-1.52292000E-05
					-8.89246000E-06	-4.17101000E-05	-2.10950000E-05
					-6.18945000E-07	-1.29979000E-05	-3.21403000E-05
					 5.67632000E-07	-3.12733000E-05	-1.69945000E-05
					-6.64094000E-06	-1.09620000E-06	-1.70478000E-05
					 3.49307000E-06	-2.80696000E-05	-1.97141000E-05
					 8.67112000E-06	-2.89994000E-05	-1.08926000E-05
					 1.86146000E-05	 1.10499000E-05	-2.17469000E-05
					-6.21888000E-06	-2.93320000E-05	 6.70114000E-06
					-5.98205000E-06	 2.33122000E-06	-2.75764000E-05
					-1.07607000E-05	-1.46162000E-05	-4.81347000E-05
					-1.04478000E-05	-2.91360000E-05	-1.50814000E-05
					 2.28073000E-05	-3.59235000E-05	-1.24443000E-05
					 9.62510000E-07	-3.58055000E-05	-1.87070000E-05
					-2.43084000E-07	 4.65709000E-06	-2.99149000E-05
					 1.75366000E-05	-1.94251000E-05	-3.73999000E-05
					 1.05192000E-06	-6.85409000E-07	-2.85014000E-05
					 1.09306000E-06	-3.61639000E-05	-9.79724000E-06
					 1.80451000E-05	-1.12303000E-05	-1.97915000E-05
					-8.94938000E-06	-1.02542000E-06	-2.62418000E-05
					 2.43735000E-05	-2.88653000E-06	-7.96146000E-06
					-1.06344000E-05	-2.94889000E-05	-3.71933000E-05
					-1.57565000E-05	-4.32066000E-05	-1.23714000E-05
					-1.09957000E-05	-4.29665000E-05	 3.31747000E-05
					 2.73887000E-05	-3.33552000E-05	-1.15035000E-04
					-4.75475000E-06	-3.23493000E-05	 3.47644000E-05
					-9.47007000E-06	-1.76188000E-05	-8.20146000E-05
					-4.72679000E-06	-4.35778000E-05	 9.39648000E-06
					 1.18285000E-05	-3.83789000E-05	-3.30582000E-05
					 5.19577000E-06	-7.92541000E-05	-3.84138000E-05
					-4.68355000E-06	-3.42668000E-05	 3.27656000E-05
					-2.83996000E-06	-1.75095000E-05	-6.61384000E-05
					-5.49292000E-06	-5.44897000E-05	 3.12670000E-06
					-2.12699000E-06	-3.70762000E-05	-3.34561000E-05
					-7.41157000E-06	-6.84378000E-05	-2.87348000E-05
					-3.82958000E-05	 8.55988000E-06	 1.66872000E-04
					-8.27774000E-07	-7.82613000E-06	 1.40335000E-04
					-3.14157000E-05	-4.47039000E-05	 2.42695000E-05
					-3.43489000E-05	-4.07639000E-05	 8.65976000E-05
					-2.26780000E-05	-2.66718000E-05	 1.44112000E-04
					 7.74806000E-06	-3.07443000E-05	 3.28267000E-05
					-5.27411000E-07	-6.08837000E-06	 1.02277000E-04
					 5.45159000E-07	-5.18989000E-05	 3.63845000E-05
					-4.08753000E-05	-4.32618000E-05	-7.90030000E-05
					 3.38638000E-08	-4.78433000E-05	 3.78269000E-05
					-3.46589000E-05	-2.06696000E-05	-6.23311000E-05
					 4.36465000E-06	-6.96708000E-05	-9.63006000E-07
					-1.51787000E-06	-5.19986000E-05	-5.40324000E-05
					-2.51867000E-05	-7.47173000E-05	-1.91782000E-05
					 4.47526000E-05	-2.50916000E-05	 1.45146000E-04
					 3.16823000E-05	-2.53960000E-05	 1.50436000E-04
					 2.56338000E-05	-3.65049000E-05	 6.24852000E-05
					 2.71890000E-05	-4.11598000E-05	 1.07917000E-04
					 8.02447000E-07	 7.13428000E-04	 5.64435000E-05
					-5.86958000E-06	 6.65242000E-04	-3.52824000E-04
					 7.73276000E-06	 6.31349000E-04	 5.71343000E-05
					-6.93022000E-05	 6.42153000E-04	-3.74122000E-04
					-5.50211000E-06	 1.99678000E-04	 4.26869000E-05
					-1.09709000E-05	 6.77300000E-04	-8.03959000E-05
					 4.83871000E-05	 2.20451000E-04	-2.27856000E-04
					 1.04410000E-05	 7.05712000E-04	 3.44622000E-05
					-3.66091000E-05	 6.99489000E-04	-4.40760000E-04
					 5.74059000E-06	 2.02275000E-04	 5.39516000E-05
					-2.95404000E-05	 6.52659000E-04	-1.31732000E-04
					-2.32257000E-05	 2.27868000E-04	-2.48103000E-04
					 3.63237000E-05	 6.52309000E-04	 4.29033000E-04
					 8.26996000E-05	 6.43673000E-04	 4.77771000E-04
					-4.38623000E-05	 1.94725000E-04	 3.45938000E-04
					 5.25051000E-05	 6.99615000E-04	 1.84260000E-04
					 4.99973000E-05	 6.86666000E-04	 4.95927000E-04
					 3.12866000E-05	 2.10784000E-04	 3.61008000E-04
					 4.20392000E-05	 6.32242000E-04	 2.13455000E-04
					 7.43353000E-06	 5.53453000E-04	 3.52326000E-05
					-1.26001000E-04	 5.62734000E-04	-3.65670000E-04
					-5.02764000E-06	 6.09239000E-04	 5.37491000E-05
					-9.18352000E-05	 6.07458000E-04	-3.71434000E-04
					 2.62166000E-06	 1.46963000E-04	 5.70890000E-05
					-4.68760000E-05	 5.52414000E-04	-1.47808000E-04
					-7.86454000E-05	 1.82443000E-04	-2.62901000E-04
					 1.13682000E-04	 5.39165000E-04	 4.51642000E-04
					 1.03937000E-04	 6.10763000E-04	 4.32605000E-04
					 1.01175000E-04	 1.55488000E-04	 3.22612000E-04
					 4.20983000E-05	 5.50554000E-04	 2.16321000E-04
					 1.26784000E-05	 2.28624000E-03	-3.46663000E-05
					-6.82799000E-04	 2.10633000E-03	 3.65828000E-04
					-1.60873000E-05	 1.73736000E-03	-3.89767000E-05
					-4.23230000E-04	 1.59335000E-03	 3.39011000E-04
					 1.46248000E-05	 1.65533000E-03	 1.29315000E-05
					-3.49935000E-04	 2.25223000E-03	 2.81072000E-04
					-3.36208000E-04	 1.58562000E-03	-2.20539000E-04
					-2.84451000E-06	 1.93146000E-03	-1.14356000E-05
					-5.70221000E-04	 1.84914000E-03	 3.44751000E-04
					-3.03795000E-06	 1.37736000E-03	 7.77006000E-06
					-2.01248000E-04	 1.67257000E-03	 2.18184000E-04
					-2.28476000E-04	 1.31400000E-03	-2.34194000E-04
					 6.83772000E-04	 2.09628000E-03	-3.64918000E-04
					 4.01642000E-04	 1.58275000E-03	-3.93392000E-04
					 3.34156000E-04	 1.57166000E-03	 2.40362000E-04
					 3.05372000E-04	 2.22938000E-03	-3.31691000E-04
					 5.57617000E-04	 1.78311000E-03	-3.38192000E-04
					 2.22933000E-04	 1.29235000E-03	 2.31795000E-04
					 2.05714000E-04	 1.69465000E-03	-2.45407000E-04
					-3.04696000E-05	 1.42442000E-03	-1.45751000E-05
					-1.04150000E-04	 1.34748000E-03	 3.83412000E-04
					-9.64061000E-06	 1.53021000E-03	-4.57528000E-05
					-2.77665000E-04	 1.41652000E-03	 3.60002000E-04
					-5.71008000E-06	 1.20925000E-03	-1.36255000E-06
					-7.71999000E-05	 1.42556000E-03	 2.34532000E-04
					-1.15237000E-04	 1.13504000E-03	-2.06891000E-04
					 9.70598000E-05	 1.35145000E-03	-4.06178000E-04
					 2.43970000E-04	 1.39631000E-03	-4.08040000E-04
					 7.60211000E-05	 1.13676000E-03	 2.15551000E-04
					 5.94036000E-05	 1.41793000E-03	-2.12277000E-04
					-2.13135000E-05	 2.26276000E-04	 7.40701000E-05
					-1.32930000E-03	 1.13202000E-04	 2.52736000E-03
					-1.32595000E-06	-9.08007000E-04	 4.58785000E-05
					-9.34144000E-04	-1.06936000E-03	 2.52120000E-03
					 3.80731000E-06	 1.83087000E-03	 2.01842000E-05
					-6.45328000E-04	 1.69868000E-04	 1.25769000E-03
					-1.04125000E-03	 1.69273000E-03	 1.40987000E-03
					-2.85721000E-05	-3.98716000E-04	 4.78186000E-05
					-1.10369000E-03	-5.84951000E-04	 2.49968000E-03
					 1.04224000E-05	 9.81750000E-04	-9.05070000E-06
					-4.79060000E-04	-9.21706000E-04	 1.23874000E-03
					-6.51493000E-04	 8.47608000E-04	 1.36824000E-03
					 1.26928000E-03	 1.13756000E-04	-2.46094000E-03
					 9.78728000E-04	-1.01471000E-03	-2.49982000E-03
					 1.04529000E-03	 1.70180000E-03	-1.39983000E-03
					 6.27540000E-04	 2.05900000E-04	-1.18077000E-03
					 1.13841000E-03	-5.27514000E-04	-2.47072000E-03
					 6.90947000E-04	 8.52720000E-04	-1.37548000E-03
					 4.67572000E-04	-9.37238000E-04	-1.21100000E-03
					-1.92951000E-06	-1.67331000E-03	-2.99082000E-05
					-5.97576000E-04	-1.78458000E-03	 2.46773000E-03
					-1.00623000E-06	-1.32907000E-03	 1.39490000E-05
					-7.62469000E-04	-1.54198000E-03	 2.53513000E-03
					-3.57288000E-06	 4.70551000E-04	-1.35156000E-05
					-3.07007000E-04	-1.71260000E-03	 1.12813000E-03
					-3.26104000E-04	 3.55321000E-04	 1.40912000E-03
					 5.98328000E-04	-1.83800000E-03	-2.54067000E-03
					 7.82834000E-04	-1.46814000E-03	-2.55160000E-03
					 3.62620000E-04	 3.61882000E-04	-1.42323000E-03
					 3.18468000E-04	-1.72289000E-03	-1.21731000E-03
					 4.19167000E-05	-7.02214000E-03	-7.43559000E-05
					-1.15492000E-03	-7.05377000E-03	 3.69299000E-03
					 2.07265000E-05	-8.13040000E-03	-7.43838000E-05
					-1.06587000E-03	-8.19876000E-03	 3.80492000E-03
					-5.73574000E-06	-3.04307000E-03	-2.14731000E-05
					-5.40274000E-04	-7.02471000E-03	 1.82125000E-03
					-1.29911000E-03	-3.14676000E-03	 3.28168000E-03
					 3.68433000E-05	-7.58966000E-03	-6.90576000E-05
					-1.10894000E-03	-7.63489000E-03	 3.75849000E-03
					-8.18387000E-06	-4.21966000E-03	 1.02459000E-05
					-5.16627000E-04	-8.16255000E-03	 1.80857000E-03
					-1.06185000E-03	-4.30079000E-03	 3.37187000E-03
					 1.19894000E-03	-6.97222000E-03	-3.80217000E-03
					 1.14908000E-03	-8.10955000E-03	-3.84164000E-03
					 1.25529000E-03	-3.11764000E-03	-3.29584000E-03
					 5.95810000E-04	-6.98121000E-03	-1.87785000E-03
					 1.16925000E-03	-7.57602000E-03	-3.83160000E-03
					 9.98456000E-04	-4.29208000E-03	-3.36091000E-03
					 5.78381000E-04	-8.09688000E-03	-1.90930000E-03
					 1.90970000E-05	-9.22791000E-03	 4.23331000E-06
					-9.98900000E-04	-9.31353000E-03	 3.75830000E-03
					 9.75956000E-06	-8.65658000E-03	-3.15854000E-05
					-1.04149000E-03	-8.71607000E-03	 3.81125000E-03
					 1.12218000E-05	-5.12972000E-03	-8.06781000E-06
					-5.21548000E-04	-9.25680000E-03	 1.85091000E-03
					-8.58386000E-04	-5.22267000E-03	 3.26050000E-03
					 1.10125000E-03	-9.20952000E-03	-3.76921000E-03
					 1.12435000E-03	-8.67212000E-03	-3.83039000E-03
					 8.19414000E-04	-5.23530000E-03	-3.28962000E-03
					 5.47496000E-04	-9.20436000E-03	-1.84300000E-03
					-1.40895000E-04	-1.52606000E-02	-5.95060000E-05
					-1.10868000E-03	-1.50638000E-02	 3.95446000E-03
					 2.43710000E-05	-1.62312000E-02	-5.54289000E-05
					-9.54382000E-04	-1.62460000E-02	 3.80063000E-03
					 9.40421000E-05	-1.10931000E-02	-5.29060000E-05
					-5.64583000E-04	-1.51741000E-02	 1.89874000E-03
					-1.13465000E-03	-1.10769000E-02	 3.85833000E-03
					-9.19850000E-05	-1.57117000E-02	-7.81035000E-05
					-1.00911000E-03	-1.56774000E-02	 3.92192000E-03
					 2.92933000E-05	-1.21700000E-02	-8.78923000E-05
					-4.45826000E-04	-1.62377000E-02	 1.88291000E-03
					-1.02434000E-03	-1.22089000E-02	 3.82979000E-03
					 7.28834000E-04	-1.53054000E-02	-4.02859000E-03
					 9.93731000E-04	-1.62831000E-02	-4.09590000E-03
					 9.93165000E-04	-1.11024000E-02	-3.99794000E-03
					 3.49534000E-04	-1.52571000E-02	-2.00567000E-03
					 9.01539000E-04	-1.57567000E-02	-4.12637000E-03
					 1.05041000E-03	-1.21228000E-02	-4.05313000E-03
					 5.09758000E-04	-1.62651000E-02	-2.03722000E-03
					 1.07593000E-04	-1.71596000E-02	-1.44218000E-04
					-9.43779000E-04	-1.75763000E-02	 4.15015000E-03
					 1.15109000E-04	-1.67108000E-02	-1.33559000E-04
					-9.65160000E-04	-1.69144000E-02	 4.02487000E-03
					-8.02855000E-06	-1.32094000E-02	-6.63195000E-05
					-3.84524000E-04	-1.73588000E-02	 1.94885000E-03
					-9.41081000E-04	-1.32622000E-02	 3.88657000E-03
					 1.08474000E-03	-1.68860000E-02	-3.78226000E-03
					 1.01073000E-03	-1.65551000E-02	-3.92758000E-03
					 1.11946000E-03	-1.33432000E-02	-3.89117000E-03
					 5.39389000E-04	-1.69967000E-02	-2.04329000E-03
					 0.00000000E+00	 0.00000000E+00	 0.00000000E+00
					 0.00000000E+00	 0.00000000E+00	 0.00000000E+00
					 3.79791000E-05	-1.19815000E-02	-2.40612000E-04
					-2.77369000E-03	-1.29606000E-02	 1.28120000E-02
					 0.00000000E+00	 0.00000000E+00	 0.00000000E+00
					 0.00000000E+00	 0.00000000E+00	 0.00000000E+00
					 1.15535000E-04	-1.38423000E-02	-3.46366000E-04
					-8.32610000E-04	-1.48463000E-02	 1.29219000E-02
					 0.00000000E+00	 0.00000000E+00	 0.00000000E+00
					 4.65981000E-05	-2.15837000E-03	-1.26375000E-04
					-1.25123000E-03	-1.21514000E-02	 6.29049000E-03
					-2.42967000E-03	-3.26065000E-03	 6.37554000E-03
					 0.00000000E+00	 0.00000000E+00	 0.00000000E+00
					 0.00000000E+00	 0.00000000E+00	 0.00000000E+00
					 7.37408000E-05	-1.32308000E-02	-3.19725000E-04
					-1.79405000E-03	-1.42698000E-02	 1.27820000E-02
					 0.00000000E+00	 0.00000000E+00	 0.00000000E+00
					 1.45990000E-05	-3.50439000E-03	-1.12484000E-04
					-3.57478000E-04	-1.40237000E-02	 6.20689000E-03
					-4.40107000E-04	-4.70955000E-03	 6.19367000E-03
					 0.00000000E+00	 0.00000000E+00	 0.00000000E+00
					 2.83751000E-03	-1.26998000E-02	-1.34722000E-02
					 0.00000000E+00	 0.00000000E+00	 0.00000000E+00
					 9.99776000E-04	-1.46313000E-02	-1.35998000E-02
					 0.00000000E+00	 0.00000000E+00	 0.00000000E+00
					 2.47016000E-03	-3.20245000E-03	-6.54731000E-03
					 1.36280000E-03	-1.20128000E-02	-6.86807000E-03
					 0.00000000E+00	 0.00000000E+00	 0.00000000E+00
					 1.92026000E-03	-1.39993000E-02	-1.34569000E-02
					 0.00000000E+00	 0.00000000E+00	 0.00000000E+00
					 4.47143000E-04	-4.59618000E-03	-6.42460000E-03
					 5.45023000E-04	-1.39190000E-02	-6.85439000E-03
					 0.00000000E+00	 0.00000000E+00	 0.00000000E+00
					 0.00000000E+00	 0.00000000E+00	 0.00000000E+00
					 1.66518000E-04	-1.39301000E-02	-2.75410000E-04
					 1.03092000E-03	-1.48821000E-02	 1.28589000E-02
					 0.00000000E+00	 0.00000000E+00	 0.00000000E+00
					 0.00000000E+00	 0.00000000E+00	 0.00000000E+00
					 1.47482000E-04	-1.42048000E-02	-3.09514000E-04
					 8.43713000E-05	-1.50935000E-02	 1.29453000E-02
					 0.00000000E+00	 0.00000000E+00	 0.00000000E+00
					-2.56782000E-05	-3.06157000E-03	-5.80983000E-05
					 6.55471000E-04	-1.40967000E-02	 6.11594000E-03
					 1.49368000E-03	-4.28352000E-03	 6.41365000E-03
					 0.00000000E+00	 0.00000000E+00	 0.00000000E+00
					-8.11441000E-04	-1.45610000E-02	-1.33772000E-02
					 0.00000000E+00	 0.00000000E+00	 0.00000000E+00
					 1.08645000E-04	-1.48479000E-02	-1.35539000E-02
					 0.00000000E+00	 0.00000000E+00	 0.00000000E+00
					-1.52168000E-03	-4.19878000E-03	-6.60977000E-03
					-3.94059000E-04	-1.39323000E-02	-6.66458000E-03
					 2.71161000E-04	-5.05542000E-02	-1.23251000E-03
					-3.41263000E-03	-5.18999000E-02	 2.36030000E-02
					 2.11049000E-04	-5.33468000E-02	-1.22948000E-03
					-1.81515000E-03	-5.46292000E-02	 2.35400000E-02
					 1.65168000E-04	-2.83295000E-02	-6.48358000E-04
					-1.60800000E-03	-5.10440000E-02	 1.11942000E-02
					-3.03038000E-03	-2.95503000E-02	 1.86554000E-02
					 2.60323000E-04	-5.21230000E-02	-1.20853000E-03
					-2.63698000E-03	-5.34906000E-02	 2.34745000E-02
					 1.59353000E-04	-3.06297000E-02	-6.52325000E-04
					-8.26793000E-04	-5.38207000E-02	 1.10660000E-02
					-1.29127000E-03	-3.18972000E-02	 1.86086000E-02
					 3.81867000E-03	-5.06378000E-02	-2.59635000E-02
					 2.24665000E-03	-5.35109000E-02	-2.60603000E-02
					 3.33974000E-03	-2.88880000E-02	-1.99475000E-02
					 2.07459000E-03	-5.04440000E-02	-1.35733000E-02
					 3.03615000E-03	-5.22092000E-02	-2.59623000E-02
					 1.58278000E-03	-3.11655000E-02	-1.99905000E-02
					 1.23031000E-03	-5.32544000E-02	-1.35403000E-02
					 2.50320000E-04	-5.45838000E-02	-1.27577000E-03
					-2.93884000E-04	-5.58433000E-02	 2.34624000E-02
					 2.06599000E-04	-5.41620000E-02	-1.26800000E-03
					-1.02287000E-03	-5.54608000E-02	 2.36476000E-02
					 1.73271000E-04	-3.12244000E-02	-6.21348000E-04
					-5.67240000E-05	-5.50027000E-02	 1.08889000E-02
					 3.86023000E-04	-3.24878000E-02	 1.85675000E-02
					 7.97205000E-04	-5.48105000E-02	-2.60486000E-02
					 1.54511000E-03	-5.43536000E-02	-2.62249000E-02
					-1.02999000E-04	-3.17868000E-02	-1.99299000E-02
					 5.00305000E-04	-5.45413000E-02	-1.34083000E-02
					 3.15647000E-04	-1.09373000E-01	-2.91894000E-03
					-4.34560000E-03	-1.11045000E-01	 3.04898000E-02
					 3.17776000E-04	-1.13418000E-01	-3.07055000E-03
					-3.08529000E-03	-1.15109000E-01	 3.02784000E-02
					 3.01560000E-04	-7.78432000E-02	-1.90798000E-03
					-2.01786000E-03	-1.10050000E-01	 1.37591000E-02
					-3.74399000E-03	-7.93431000E-02	 2.74293000E-02
					 3.17679000E-04	-1.11533000E-01	-3.00545000E-03
					-3.71442000E-03	-1.13199000E-01	 3.02912000E-02
					 3.03071000E-04	-8.12056000E-02	-2.06401000E-03
					-1.40959000E-03	-1.14144000E-01	 1.34921000E-02
					-2.46178000E-03	-8.27344000E-02	 2.74293000E-02
					 4.97241000E-03	-1.08798000E-01	-3.63575000E-02
					 3.91721000E-03	-1.12838000E-01	-3.66054000E-02
					 4.29134000E-03	-7.76085000E-02	-3.13975000E-02
					 2.65884000E-03	-1.08937000E-01	-1.95830000E-02
					 4.44584000E-03	-1.10973000E-01	-3.63756000E-02
					 3.03265000E-03	-8.09317000E-02	-3.15998000E-02
					 2.12847000E-03	-1.13001000E-01	-1.97142000E-02
					 4.14715000E-04	-1.16389000E-01	-3.18429000E-03
					-2.21961000E-03	-1.18247000E-01	 3.01476000E-02
					 3.70881000E-04	-1.15043000E-01	-3.13443000E-03
					-2.64170000E-03	-1.16680000E-01	 3.03300000E-02
					 2.91450000E-04	-8.33171000E-02	-2.14726000E-03
					-8.49666000E-04	-1.17160000E-01	 1.32450000E-02
					-1.21511000E-03	-8.49096000E-02	 2.73263000E-02
					 2.82953000E-03	-1.15870000E-01	-3.66688000E-02
					 3.35653000E-03	-1.14507000E-01	-3.67484000E-02
					 1.69359000E-03	-8.30476000E-02	-3.15438000E-02
					 1.68414000E-03	-1.16011000E-01	-1.96903000E-02
					 5.51044000E-04	-1.82486000E-01	-5.59492000E-03
					-4.76683000E-03	-1.84212000E-01	 3.31191000E-02