<?xml version="1.0"?>
<VTKFile type="UnstructuredGrid" version="0.1" byte_order="LittleEndian">
	<UnstructuredGrid>
		<Piece NumberOfPoints="522" NumberOfCells="64">
			<Points>
				<DataArray type="Float64" NumberOfComponents="3" format="ascii">
					 1.00000000E+00	 1.00000000E+00	-5.96046000E-08
					 1.00000000E+00	 5.00000000E-01	-5.96046000E-08
					 1.00000000E+00	 5.00000000E-01	 1.00000000E+00
					 1.00000000E+00	 1.00000000E+00	 1.00000000E+00
					 5.00000000E-01	 1.00000000E+00	-5.96046000E-08
					 5.00000000E-01	 5.00000000E-01	-5.96046000E-08
					 5.00000000E-01	 5.00000000E-01	 1.00000000E+00
					 5.00000000E-01	 1.00000000E+00	 1.00000000E+00
					 1.00000000E+00	 7.50000000E-01	-5.96046000E-08
					 1.00000000E+00	 5.00000000E-01	 5.00000000E-01
					 1.00000000E+00	 7.50000000E-01	 1.00000000E+00
					 1.00000000E+00	 1.00000000E+00	 5.00000000E-01
					 7.50000000E-01	 1.00000000E+00	-5.96046000E-08
					 7.50000000E-01	 5.00000000E-01	-5.96046000E-08
					 7.50000000E-01	 5.00000000E-01	 1.00000000E+00
					 7.50000000E-01	 1.00000000E+00	 1.00000000E+00
					 5.00000000E-01	 7.50000000E-01	-5.96046000E-08
					 5.00000000E-01	 5.00000000E-01	 5.00000000E-01
					 5.00000000E-01	 7.50000000E-01	 1.00000000E+00
					 5.00000000E-01	 1.00000000E+00	 5.00000000E-01
					 1.00000000E+00	-1.49012000E-08	-5.96046000E-08
					 1.00000000E+00	-1.49012000E-08	 1.00000000E+00
					 5.00000000E-01	-1.49012000E-08	-5.96046000E-08
					 5.00000000E-01	-1.49012000E-08	 1.00000000E+00
					 1.00000000E+00	 2.50000000E-01	-5.96046000E-08
					 1.00000000E+00	-1.49012000E-08	 5.00000000E-01
					 1.00000000E+00	 2.50000000E-01	 1.00000000E+00
					 7.50000000E-01	-1.49012000E-08	-5.96046000E-08
					 7.50000000E-01	-1.49012000E-08	 1.00000000E+00
					 5.00000000E-01	 2.50000000E-01	-5.96046000E-08
					 5.00000000E-01	-1.49012000E-08	 5.00000000E-01
					 5.00000000E-01	 2.50000000E-01	 1.00000000E+00
					-7.45058000E-09	 1.00000000E+00	-5.96046000E-08
					-7.45058000E-09	 5.00000000E-01	-5.96046000E-08
					-7.45058000E-09	 5.00000000E-01	 1.00000000E+00
					-7.45058000E-09	 1.00000000E+00	 1.00000000E+00
					 2.50000000E-01	 1.00000000E+00	-5.96046000E-08
					 2.50000000E-01	 5.00000000E-01	-5.96046000E-08
					 2.50000000E-01	 5.00000000E-01	 1.00000000E+00
					 2.50000000E-01	 1.00000000E+00	 1.00000000E+00
					-7.45058000E-09	 7.50000000E-01	-5.96046000E-08
					-7.45058000E-09	 5.00000000E-01	 5.00000000E-01
					-7.45058000E-09	 7.50000000E-01	 1.00000000E+00
					-7.45058000E-09	 1.00000000E+00	 5.00000000E-01
					-7.45058000E-09	-1.49012000E-08	-5.96046000E-08
					-7.45058000E-09	-1.49012000E-08	 1.00000000E+00
					 2.50000000E-01	-1.49012000E-08	-5.96046000E-08
					 2.50000000E-01	-1.49012000E-08	 1.00000000E+00
					-7.45058000E-09	 2.50000000E-01	-5.96046000E-08
					-7.45058000E-09	-1.49012000E-08	 5.00000000E-01
					-7.45058000E-09	 2.50000000E-01	 1.00000000E+00
					 1.00000000E+00	 5.00000000E-01	 2.00000000E+00
					 1.00000000E+00	 1.00000000E+00	 2.00000000E+00
					 5.00000000E-01	 5.00000000E-01	 2.00000000E+00
					 5.00000000E-01	 1.00000000E+00	 2.00000000E+00
					 1.00000000E+00	 5.00000000E-01	 1.50000000E+00
					 1.00000000E+00	 7.50000000E-01	 2.00000000E+00
					 1.00000000E+00	 1.00000000E+00	 1.50000000E+00
					 7.50000000E-01	 5.00000000E-01	 2.00000000E+00
					 7.50000000E-01	 1.00000000E+00	 2.00000000E+00
					 5.00000000E-01	 5.00000000E-01	 1.50000000E+00
					 5.00000000E-01	 7.50000000E-01	 2.00000000E+00
					 5.00000000E-01	 1.00000000E+00	 1.50000000E+00
					 1.00000000E+00	-1.49012000E-08	 2.00000000E+00
					 5.00000000E-01	-1.49012000E-08	 2.00000000E+00
					 1.00000000E+00	-1.49012000E-08	 1.50000000E+00
					 1.00000000E+00	 2.50000000E-01	 2.00000000E+00
					 7.50000000E-01	-1.49012000E-08	 2.00000000E+00
					 5.00000000E-01	-1.49012000E-08	 1.50000000E+00
					 5.00000000E-01	 2.50000000E-01	 2.00000000E+00
					-7.45058000E-09	 5.00000000E-01	 2.00000000E+00
					-7.45058000E-09	 1.00000000E+00	 2.00000000E+00
					 2.50000000E-01	 5.00000000E-01	 2.00000000E+00
					 2.50000000E-01	 1.00000000E+00	 2.00000000E+00
					-7.45058000E-09	 5.00000000E-01	 1.50000000E+00
					-7.45058000E-09	 7.50000000E-01	 2.00000000E+00
					-7.45058000E-09	 1.00000000E+00	 1.50000000E+00
					-7.45058000E-09	-1.49012000E-08	 2.00000000E+00
					 2.50000000E-01	-1.49012000E-08	 2.00000000E+00
					-7.45058000E-09	-1.49012000E-08	 1.50000000E+00
					-7.45058000E-09	 2.50000000E-01	 2.00000000E+00
					 1.00000000E+00	 5.00000000E-01	 3.00000000E+00
					 1.00000000E+00	 1.00000000E+00	 3.00000000E+00
					 5.00000000E-01	 5.00000000E-01	 3.00000000E+00
					 5.00000000E-01	 1.00000000E+00	 3.00000000E+00
					 1.00000000E+00	 5.00000000E-01	 2.50000000E+00
					 1.00000000E+00	 7.50000000E-01	 3.00000000E+00
					 1.00000000E+00	 1.00000000E+00	 2.50000000E+00
					 7.50000000E-01	 5.00000000E-01	 3.00000000E+00
					 7.50000000E-01	 1.00000000E+00	 3.00000000E+00
					 5.00000000E-01	 5.00000000E-01	 2.50000000E+00
					 5.00000000E-01	 7.50000000E-01	 3.00000000E+00
					 5.00000000E-01	 1.00000000E+00	 2.50000000E+00
					 1.00000000E+00	-1.49012000E-08	 3.00000000E+00
					 5.00000000E-01	-1.49012000E-08	 3.00000000E+00
					 1.00000000E+00	-1.49012000E-08	 2.50000000E+00
					 1.00000000E+00	 2.50000000E-01	 3.00000000E+00
					 7.50000000E-01	-1.49012000E-08	 3.00000000E+00
					 5.00000000E-01	-1.49012000E-08	 2.50000000E+00
					 5.00000000E-01	 2.50000000E-01	 3.00000000E+00
					-7.45058000E-09	 5.00000000E-01	 3.00000000E+00
					-7.45058000E-09	 1.00000000E+00	 3.00000000E+00
					 2.50000000E-01	 5.00000000E-01	 3.00000000E+00
					 2.50000000E-01	 1.00000000E+00	 3.00000000E+00
					-7.45058000E-09	 5.00000000E-01	 2.50000000E+00
					-7.45058000E-09	 7.50000000E-01	 3.00000000E+00
					-7.45058000E-09	 1.00000000E+00	 2.50000000E+00
					-7.45058000E-09	-1.49012000E-08	 3.00000000E+00
					 2.50000000E-01	-1.49012000E-08	 3.00000000E+00
					-7.45058000E-09	-1.49012000E-08	 2.50000000E+00
					-7.45058000E-09	 2.50000000E-01	 3.00000000E+00
					 1.00000000E+00	 5.00000000E-01	 4.00000000E+00
					 1.00000000E+00	 1.00000000E+00	 4.00000000E+00
					 5.00000000E-01	 5.00000000E-01	 4.00000000E+00
					 5.00000000E-01	 1.00000000E+00	 4.00000000E+00
					 1.00000000E+00	 5.00000000E-01	 3.50000000E+00
					 1.00000000E+00	 7.50000000E-01	 4.00000000E+00
					 1.00000000E+00	 1.00000000E+00	 3.50000000E+00
					 7.50000000E-01	 5.00000000E-01	 4.00000000E+00
					 7.50000000E-01	 1.00000000E+00	 4.00000000E+00
					 5.00000000E-01	 5.00000000E-01	 3.50000000E+00
					 5.00000000E-01	 7.50000000E-01	 4.00000000E+00
					 5.00000000E-01	 1.00000000E+00	 3.50000000E+00
					 1.00000000E+00	-1.49012000E-08	 4.00000000E+00
					 5.00000000E-01	-1.49012000E-08	 4.00000000E+00
					 1.00000000E+00	-1.49012000E-08	 3.50000000E+00
					 1.00000000E+00	 2.50000000E-01	 4.00000000E+00
					 7.50000000E-01	-1.49012000E-08	 4.00000000E+00
					 5.00000000E-01	-1.49012000E-08	 3.50000000E+00
					 5.00000000E-01	 2.50000000E-01	 4.00000000E+00
					-7.45058000E-09	 5.00000000E-01	 4.00000000E+00
					-7.45058000E-09	 1.00000000E+00	 4.00000000E+00
					 2.50000000E-01	 5.00000000E-01	 4.00000000E+00
					 2.50000000E-01	 1.00000000E+00	 4.00000000E+00
					-7.45058000E-09	 5.00000000E-01	 3.50000000E+00
					-7.45058000E-09	 7.50000000E-01	 4.00000000E+00
					-7.45058000E-09	 1.00000000E+00	 3.50000000E+00
					-7.45058000E-09	-1.49012000E-08	 4.00000000E+00
					 2.50000000E-01	-1.49012000E-08	 4.00000000E+00
					-7.45058000E-09	-1.49012000E-08	 3.50000000E+00
					-7.45058000E-09	 2.50000000E-01	 4.00000000E+00
					 1.00000000E+00	 5.00000000E-01	 5.00000000E+00
					 1.00000000E+00	 1.00000000E+00	 5.00000000E+00
					 5.00000000E-01	 5.00000000E-01	 5.00000000E+00
					 5.00000000E-01	 1.00000000E+00	 5.00000000E+00
					 1.00000000E+00	 5.00000000E-01	 4.50000000E+00
					 1.00000000E+00	 7.50000000E-01	 5.00000000E+00
					 1.00000000E+00	 1.00000000E+00	 4.50000000E+00
					 7.50000000E-01	 5.00000000E-01	 5.00000000E+00
					 7.50000000E-01	 1.00000000E+00	 5.00000000E+00
					 5.00000000E-01	 5.00000000E-01	 4.50000000E+00
					 5.00000000E-01	 7.50000000E-01	 5.00000000E+00
					 5.00000000E-01	 1.00000000E+00	 4.50000000E+00
					 1.00000000E+00	-1.49012000E-08	 5.00000000E+00
					 5.00000000E-01	-1.49012000E-08	 5.00000000E+00
					 1.00000000E+00	-1.49012000E-08	 4.50000000E+00
					 1.00000000E+00	 2.50000000E-01	 5.00000000E+00
					 7.50000000E-01	-1.49012000E-08	 5.00000000E+00
					 5.00000000E-01	-1.49012000E-08	 4.50000000E+00
					 5.00000000E-01	 2.50000000E-01	 5.00000000E+00
					-7.45058000E-09	 5.00000000E-01	 5.00000000E+00
					-7.45058000E-09	 1.00000000E+00	 5.00000000E+00
					 2.50000000E-01	 5.00000000E-01	 5.00000000E+00
					 2.50000000E-01	 1.00000000E+00	 5.00000000E+00
					-7.45058000E-09	 5.00000000E-01	 4.50000000E+00
					-7.45058000E-09	 7.50000000E-01	 5.00000000E+00
					-7.45058000E-09	 1.00000000E+00	 4.50000000E+00
					-7.45058000E-09	-1.49012000E-08	 5.00000000E+00
					 2.50000000E-01	-1.49012000E-08	 5.00000000E+00
					-7.45058000E-09	-1.49012000E-08	 4.50000000E+00
					-7.45058000E-09	 2.50000000E-01	 5.00000000E+00
					 1.00000000E+00	 5.00000000E-01	 6.00000000E+00
					 1.00000000E+00	 1.00000000E+00	 6.00000000E+00
					 5.00000000E-01	 5.00000000E-01	 6.00000000E+00
					 5.00000000E-01	 1.00000000E+00	 6.00000000E+00
					 1.00000000E+00	 5.00000000E-01	 5.50000000E+00
					 1.00000000E+00	 7.50000000E-01	 6.00000000E+00
					 1.00000000E+00	 1.00000000E+00	 5.50000000E+00
					 7.50000000E-01	 5.00000000E-01	 6.00000000E+00
					 7.50000000E-01	 1.00000000E+00	 6.00000000E+00
					 5.00000000E-01	 5.00000000E-01	 5.50000000E+00
					 5.00000000E-01	 7.50000000E-01	 6.00000000E+00
					 5.00000000E-01	 1.00000000E+00	 5.50000000E+00
					 1.00000000E+00	-1.49012000E-08	 6.00000000E+00
[...]
			<PointData>
				<DataArray type="Float32" Name="U" NumberOfComponents="3" ComponentName0="D1" ComponentName1="D2" ComponentName2="D3" format="ascii">
					 0.00000000E+00	 0.00000000E+00	 0.00000000E+00
					 0.00000000E+00	 0.00000000E+00	 0.00000000E+00
					 2.08995000E-08	-7.81303000E-07	-3.60110000E-07
					-1.83760000E-05	-1.87120000E-07	 4.50372000E-06
					 0.00000000E+00	 0.00000000E+00	 0.00000000E+00
					 0.00000000E+00	 0.00000000E+00	 0.00000000E+00
					-3.73876000E-08	-2.00804000E-05	-4.14201000E-07
					-2.01351000E-05	-1.92294000E-05	 5.19484000E-06
					 0.00000000E+00	 0.00000000E+00	 0.00000000E+00
					 5.79729000E-08	 1.10467000E-06	-1.79838000E-07
					-9.17918000E-06	-5.02552000E-07	 2.63453000E-06
					-8.98152000E-06	 5.79463000E-07	 4.80971000E-06
					 0.00000000E+00	 0.00000000E+00	 0.00000000E+00
					 0.00000000E+00	 0.00000000E+00	 0.00000000E+00
					-6.44346000E-09	-1.04156000E-05	-3.90138000E-07
					-1.92156000E-05	-9.63835000E-06	 3.06011000E-06
					 0.00000000E+00	 0.00000000E+00	 0.00000000E+00
					-6.46083000E-09	-7.73090000E-06	-1.87934000E-07
					-1.00434000E-05	-1.96146000E-05	 1.11465000E-06
					-8.65130000E-06	-7.97244000E-06	 4.94007000E-06
					 0.00000000E+00	 0.00000000E+00	 0.00000000E+00
					 1.84241000E-05	-2.78870000E-07	-5.22466000E-06
					 0.00000000E+00	 0.00000000E+00	 0.00000000E+00
					 2.00706000E-05	-1.93419000E-05	-6.01998000E-06
					 0.00000000E+00	 0.00000000E+00	 0.00000000E+00
					 9.10141000E-06	 4.67903000E-07	-5.18669000E-06
					 9.21641000E-06	-5.43446000E-07	-3.35090000E-06
					 0.00000000E+00	 0.00000000E+00	 0.00000000E+00
					 1.92131000E-05	-9.74322000E-06	-3.83585000E-06
					 0.00000000E+00	 0.00000000E+00	 0.00000000E+00
					 8.64688000E-06	-8.09569000E-06	-5.33650000E-06
					 9.96965000E-06	-1.96724000E-05	-1.93341000E-06
					 0.00000000E+00	 0.00000000E+00	 0.00000000E+00
					 0.00000000E+00	 0.00000000E+00	 0.00000000E+00
					-9.86562000E-08	-4.09868000E-05	-4.46082000E-07
					-2.09073000E-05	-3.93848000E-05	 4.42521000E-06
					 0.00000000E+00	 0.00000000E+00	 0.00000000E+00
					 0.00000000E+00	 0.00000000E+00	 0.00000000E+00
					-6.67085000E-08	-3.04280000E-05	-4.32920000E-07
					-2.05127000E-05	-2.94035000E-05	 7.16174000E-06
					 0.00000000E+00	 0.00000000E+00	 0.00000000E+00
					-7.59395000E-08	-1.61927000E-05	-2.15816000E-07
					-1.06730000E-05	-4.01518000E-05	-1.59032000E-06
					-7.46194000E-06	-1.58374000E-05	 4.77100000E-06
					 0.00000000E+00	 0.00000000E+00	 0.00000000E+00
					 2.07187000E-05	-3.95064000E-05	-5.30893000E-06
					 0.00000000E+00	 0.00000000E+00	 0.00000000E+00
					 2.03835000E-05	-2.95225000E-05	-8.01936000E-06
					 0.00000000E+00	 0.00000000E+00	 0.00000000E+00
					 7.31675000E-06	-1.59737000E-05	-5.22712000E-06
					 1.04765000E-05	-4.02172000E-05	 7.08558000E-07
					-2.01676000E-07	 2.45339000E-05	-6.06600000E-07
					-5.15236000E-05	 2.93206000E-05	-3.20062000E-05
					-2.05688000E-07	-3.34812000E-05	-6.69667000E-07
					-6.39824000E-05	-2.77887000E-05	-3.06176000E-05
					-7.51904000E-08	 1.48681000E-06	-4.98559000E-07
					-2.59155000E-05	 2.55542000E-05	-1.57029000E-05
					-3.15116000E-05	 4.24915000E-06	-5.83522000E-06
					-2.02513000E-07	-3.17373000E-06	-6.42663000E-07
					-5.77390000E-05	 2.21649000E-06	-3.47772000E-05
					-1.04343000E-07	-3.28662000E-05	-5.76097000E-07
					-3.20101000E-05	-3.19619000E-05	-1.86746000E-05
					-3.72046000E-05	-2.98300000E-05	-4.80246000E-06
					 5.10971000E-05	 2.92486000E-05	 3.08784000E-05
					 6.35382000E-05	-2.78251000E-05	 2.93659000E-05
					 3.13685000E-05	 4.15589000E-06	 4.84251000E-06
					 2.55250000E-05	 2.54877000E-05	 1.45120000E-05
					 5.72981000E-05	 2.17133000E-06	 3.35634000E-05
					 3.69881000E-05	-2.99285000E-05	 3.66540000E-06
					 3.15930000E-05	-3.19839000E-05	 1.73394000E-05
					-2.09921000E-07	-1.02986000E-04	-7.15016000E-07
					-7.42331000E-05	-9.60414000E-05	-3.21278000E-05
					-2.11929000E-07	-6.67811000E-05	-6.78999000E-07
					-6.90390000E-05	-6.07550000E-05	-2.60938000E-05
					-1.37572000E-07	-7.27079000E-05	-6.31015000E-07
					-3.74407000E-05	-1.00828000E-04	-2.45387000E-05
					-4.19068000E-05	-6.89611000E-05	-5.95512000E-06
					 7.38109000E-05	-9.60566000E-05	 3.07784000E-05
					 6.86143000E-05	-6.07681000E-05	 2.48143000E-05
					 4.16330000E-05	-6.90642000E-05	 4.72638000E-06
					 3.70225000E-05	-1.00828000E-04	 2.31129000E-05
					-3.29099000E-07	 2.70403000E-04	-4.40267000E-07
					-1.43366000E-04	 2.79970000E-04	-1.65169000E-04
					-2.52923000E-07	 1.08626000E-04	-3.17751000E-07
					-1.74747000E-04	 1.21993000E-04	-1.65014000E-04
					-3.03081000E-07	 9.72760000E-05	-6.35039000E-07
					-7.25431000E-05	 2.71215000E-04	-7.36503000E-05
					-8.53073000E-05	 1.05382000E-04	-8.63923000E-05
					-2.99240000E-07	 1.92895000E-04	-4.30697000E-07
					-1.59065000E-04	 2.05166000E-04	-1.75846000E-04
					-3.04704000E-07	 6.14708000E-07	-6.22117000E-07
					-8.73073000E-05	 1.11360000E-04	-8.44299000E-05
					-1.06578000E-04	 1.04678000E-05	-8.44964000E-05
					 1.42657000E-04	 2.80328000E-04	 1.64249000E-04
					 1.74252000E-04	 1.22472000E-04	 1.64349000E-04
					 8.46334000E-05	 1.05496000E-04	 8.52495000E-05
					 7.17971000E-05	 2.71487000E-04	 7.27722000E-05
					 1.58476000E-04	 2.05558000E-04	 1.74973000E-04
					 1.05954000E-04	 1.06851000E-05	 8.33641000E-05
					 8.67953000E-05	 1.11601000E-04	 8.38437000E-05
					-5.87367000E-08	-7.86087000E-05	 1.57817000E-08
					-2.00921000E-04	-6.39986000E-05	-1.64658000E-04
					-1.68150000E-07	 1.88164000E-05	-1.86824000E-07
					-1.87653000E-04	 3.24222000E-05	-1.52461000E-04
					-2.38255000E-07	-1.15251000E-04	-5.39202000E-07
					-1.00611000E-04	-7.49881000E-05	-9.62958000E-05
					-1.24775000E-04	-1.04178000E-04	-8.63238000E-05
					 2.00708000E-04	-6.33482000E-05	 1.64685000E-04
					 1.87220000E-04	 3.29278000E-05	 1.52117000E-04
					 1.24257000E-04	-1.03879000E-04	 8.53090000E-05
					 1.00469000E-04	-7.46993000E-05	 9.63468000E-05
					-1.28664000E-07	 1.18851000E-03	 8.78778000E-07
					-4.42576000E-04	 1.17537000E-03	-3.10922000E-04
					 8.61760000E-07	 7.35117000E-04	 1.39549000E-06
					-4.47515000E-04	 7.32284000E-04	-3.21780000E-04
					-3.32542000E-07	 6.20500000E-04	-2.28539000E-08
					-2.24312000E-04	 1.17958000E-03	-1.03275000E-04
					-2.55020000E-04	 6.21412000E-04	-2.63758000E-04
					 3.70961000E-07	 9.62184000E-04	 1.28950000E-06
					-4.45001000E-04	 9.57427000E-04	-3.48692000E-04
					 1.74283000E-07	 3.47660000E-04	 3.25844000E-07
					-2.22748000E-04	 7.30793000E-04	-1.40401000E-04
					-2.82153000E-04	 3.55236000E-04	-2.66599000E-04
					 4.42479000E-04	 1.17700000E-03	 3.13587000E-04
					 4.49275000E-04	 7.33653000E-04	 3.25333000E-04
					 2.54450000E-04	 6.22078000E-04	 2.63708000E-04
					 2.24438000E-04	 1.17996000E-03	 1.05250000E-04
					 4.45756000E-04	 9.59105000E-04	 3.52073000E-04
					 2.82441000E-04	 3.55883000E-04	 2.67297000E-04
					 2.24586000E-04	 7.31414000E-04	 1.43231000E-04
					 1.49803000E-06	 2.91798000E-04	 1.90520000E-06
					-4.42697000E-04	 2.88774000E-04	-3.10231000E-04
					 1.16943000E-06	 5.14719000E-04	 1.59373000E-06
					-4.44579000E-04	 5.12326000E-04	-2.92958000E-04
					 5.89751000E-07	 5.58973000E-05	 9.05811000E-07
					-2.19203000E-04	 2.88112000E-04	-1.57983000E-04
					-3.02103000E-04	 6.39037000E-05	-2.62728000E-04
					 4.46084000E-04	 2.89712000E-04	 3.14516000E-04
					 4.47306000E-04	 5.13634000E-04	 2.96565000E-04
					 3.03279000E-04	 6.45971000E-05	 2.64744000E-04
					 2.22360000E-04	 2.88702000E-04	 1.61881000E-04
					-1.65769000E-06	 2.74426000E-03	 9.23550000E-06
					-1.24487000E-03	 2.63255000E-03	 2.54885000E-04
					 4.22354000E-07	 1.59762000E-03	 5.89831000E-06
					-1.04192000E-03	 1.49329000E-03	 2.23097000E-04
					 2.09996000E-07	 1.98196000E-03	 3.44039000E-06
					-6.25663000E-04	 2.71282000E-03	 2.71449000E-04
					-7.67316000E-04	 1.91806000E-03	-1.85607000E-04
					-4.09479000E-07	 2.14466000E-03	 7.54576000E-06
					-1.14235000E-03	 2.03897000E-03	 1.60436000E-04
					 1.34953000E-06	 1.24253000E-03	 3.03857000E-06
					-5.20703000E-04	 1.57051000E-03	 1.79603000E-04
					-6.94159000E-04	 1.19116000E-03	-2.08674000E-04
					 1.24310000E-03	 2.64237000E-03	-2.36910000E-04
					 1.04517000E-03	 1.49966000E-03	-2.11594000E-04
					 7.68030000E-04	 1.92262000E-03	 1.94203000E-04
					 6.21551000E-04	 2.71891000E-03	-2.53472000E-04
					 1.14388000E-03	 2.04686000E-03	-1.45357000E-04
					 6.98013000E-04	 1.19468000E-03	 2.16004000E-04
					 5.21875000E-04	 1.57375000E-03	-1.67384000E-04
					 1.75221000E-06	 6.56609000E-04	 3.54605000E-06
					-8.30609000E-04	 5.58609000E-04	 2.49851000E-04
					 1.28704000E-06	 1.10263000E-03	 4.29315000E-06
					-9.36392000E-04	 9.99800000E-04	 2.76382000E-04
					 2.05506000E-06	 5.89774000E-04	 2.78275000E-06
					-4.16007000E-04	 6.33781000E-04	 1.47338000E-04
					-6.07807000E-04	 5.41619000E-04	-1.86975000E-04
					 8.35366000E-04	 5.62327000E-04	-2.42663000E-04
					 9.40242000E-04	 1.00413000E-03	-2.67605000E-04
					 6.12828000E-04	 5.43534000E-04	 1.92882000E-04
					 4.19811000E-04	 6.35068000E-04	-1.39878000E-04
					-1.66286000E-05	 1.88150000E-03	 1.46284000E-05
					-2.46162000E-03	 1.67688000E-03	 2.53267000E-03
					-9.07993000E-06	-3.28591000E-04	 7.20018000E-06
					-2.01712000E-03	-5.51532000E-04	 2.52529000E-03
					-8.86784000E-06	 2.95532000E-03	 1.60305000E-05
					-1.23032000E-03	 1.83991000E-03	 1.35601000E-03
					-1.84698000E-03	 2.79225000E-03	 1.22520000E-03
					-1.27731000E-05	 7.21887000E-04	 1.05385000E-05
					-2.24021000E-03	 5.02193000E-04	 2.45045000E-03
					-4.01426000E-06	 1.29088000E-03	 8.51547000E-06
					-1.01156000E-03	-3.79357000E-04	 1.26845000E-03
					-1.50013000E-03	 1.12675000E-03	 1.19202000E-03
					 2.42802000E-03	 1.69809000E-03	-2.50071000E-03
					 1.99699000E-03	-5.31408000E-04	-2.50697000E-03
					 1.83187000E-03	 2.80515000E-03	-1.19622000E-03
					 1.20038000E-03	 1.84775000E-03	-1.32488000E-03
					 2.21265000E-03	 5.22384000E-04	-2.42609000E-03
					 1.49291000E-03	 1.13475000E-03	-1.17583000E-03
					 9.93957000E-04	-3.68697000E-04	-1.25411000E-03
					-4.88496000E-06	-2.13209000E-03	-2.36123000E-06
					-1.57833000E-03	-2.34470000E-03	 2.51686000E-03
					-6.65126000E-06	-1.28778000E-03	 3.74652000E-06
					-1.79632000E-03	-1.51099000E-03	 2.59900000E-03
					-1.41146000E-06	-3.75233000E-05	 1.99149000E-06
					-7.96325000E-04	-2.18105000E-03	 1.18286000E-03
					-1.14404000E-03	-1.88365000E-04	 1.21478000E-03
					 1.57459000E-03	-2.32739000E-03	-2.51682000E-03
					 1.78610000E-03	-1.48775000E-03	-2.58919000E-03
					 1.14486000E-03	-1.84260000E-04	-1.20813000E-03
					 7.88130000E-04	-2.17034000E-03	-1.18595000E-03
					 2.91925000E-05	-5.75202000E-03	-3.82248000E-06
					-2.79635000E-03	-5.87993000E-03	 4.72334000E-03
					 2.71874000E-05	-8.50999000E-03	-2.61340000E-05
					-2.63094000E-03	-8.62822000E-03	 4.73522000E-03
					 1.40007000E-06	-1.12393000E-03	 1.74153000E-07
					-1.39153000E-03	-5.80126000E-03	 2.28454000E-03
					-2.80096000E-03	-1.28385000E-03	 3.83671000E-03
					 2.82774000E-05	-7.15356000E-03	-1.23792000E-05
					-2.71276000E-03	-7.28053000E-03	 4.73943000E-03
					 1.92226000E-06	-3.73224000E-03	-3.25598000E-06
					-1.31042000E-03	-8.54868000E-03	 2.28786000E-03
					-2.43346000E-03	-3.91519000E-03	 3.85943000E-03
					 2.88079000E-03	-5.77703000E-03	-4.75950000E-03
					 2.70506000E-03	-8.55564000E-03	-4.81633000E-03
					 2.79612000E-03	-1.23089000E-03	-3.82593000E-03
					 1.45090000E-03	-5.73533000E-03	-2.31068000E-03
					 2.79720000E-03	-7.18943000E-03	-4.79070000E-03
					 2.44300000E-03	-3.85836000E-03	-3.86336000E-03
					 1.36633000E-03	-8.51243000E-03	-2.34752000E-03
					 2.33118000E-05	-1.10952000E-02	-4.19703000E-05
					-2.49535000E-03	-1.12237000E-02	 4.69438000E-03
					 2.45158000E-05	-9.82374000E-03	-3.85781000E-05
					-2.56660000E-03	-9.93380000E-03	 4.75224000E-03
					 2.87812000E-06	-6.00803000E-03	-9.60760000E-06
					-1.22911000E-03	-1.11328000E-02	 2.21995000E-03
					-2.10642000E-03	-6.19482000E-03	 3.81282000E-03
					 2.53897000E-03	-1.11604000E-02	-4.78817000E-03
					 2.62054000E-03	-9.87957000E-03	-4.84399000E-03
					 2.11073000E-03	-6.14124000E-03	-3.84206000E-03
					 1.27859000E-03	-1.11105000E-02	-2.30451000E-03
					-8.31377000E-07	-1.60462000E-02	-4.53857000E-05
					-2.87373000E-03	-1.57990000E-02	 4.80940000E-03
					 9.12564000E-05	-1.89645000E-02	-9.83233000E-05
					-2.84421000E-03	-1.91118000E-02	 5.01589000E-03
					 1.45208000E-05	-1.09652000E-02	 4.06844000E-06
					-1.39988000E-03	-1.59136000E-02	 2.44184000E-03
					-2.78726000E-03	-1.10077000E-02	 4.91963000E-03
					 5.07242000E-05	-1.74770000E-02	-7.15338000E-05
					-2.85445000E-03	-1.74048000E-02	 4.86817000E-03
					 5.05967000E-05	-1.37708000E-02	-7.02124000E-05
					-1.32140000E-03	-1.90344000E-02	 2.43145000E-03
					-2.78534000E-03	-1.38306000E-02	 4.97420000E-03
					 2.74895000E-03	-1.61416000E-02	-5.08835000E-03
					 2.81737000E-03	-1.89475000E-02	-5.16562000E-03
					 2.83041000E-03	-1.09744000E-02	-5.05651000E-03
					 1.36449000E-03	-1.61295000E-02	-2.55841000E-03
					 2.77578000E-03	-1.75404000E-02	-5.14033000E-03
					 2.79378000E-03	-1.37893000E-02	-5.13090000E-03
					 1.44837000E-03	-1.89659000E-02	-2.62689000E-03
					 7.72816000E-05	-2.18666000E-02	-9.52547000E-05
					-2.81776000E-03	-2.20849000E-02	 5.07409000E-03
					 9.82599000E-05	-2.04225000E-02	-1.04075000E-04
					-2.83658000E-03	-2.06480000E-02	 5.08149000E-03
					 5.15190000E-05	-1.65427000E-02	-9.41277000E-05
					-1.38059000E-03	-2.20078000E-02	 2.43540000E-03
					-2.70509000E-03	-1.66407000E-02	 4.99754000E-03
					 2.85566000E-03	-2.17188000E-02	-5.15258000E-03
					 2.84201000E-03	-2.03365000E-02	-5.16185000E-03
					 2.75719000E-03	-1.65249000E-02	-5.11308000E-03
					 1.47758000E-03	-2.17772000E-02	-2.62153000E-03
					 0.00000000E+00	 0.00000000E+00	 0.00000000E+00
					 0.00000000E+00	 0.00000000E+00	 0.00000000E+00
					 7.09825000E-05	-1.13318000E-02	-1.49193000E-04
					-3.25701000E-03	-1.23222000E-02	 1.26789000E-02
					 0.00000000E+00	 0.00000000E+00	 0.00000000E+00
					 0.00000000E+00	 0.00000000E+00	 0.00000000E+00
					 6.38282000E-05	-1.37539000E-02	-1.77953000E-04
					-1.48915000E-03	-1.47951000E-02	 1.27711000E-02
					 0.00000000E+00	 0.00000000E+00	 0.00000000E+00
					 4.38866000E-05	-1.89761000E-03	-4.49776000E-05
					-1.59765000E-03	-1.15279000E-02	 6.32070000E-03
					-2.62832000E-03	-3.07901000E-03	 6.34162000E-03
					 0.00000000E+00	 0.00000000E+00	 0.00000000E+00
					 0.00000000E+00	 0.00000000E+00	 0.00000000E+00
					 6.90898000E-05	-1.28360000E-02	-1.67315000E-04
					-2.35826000E-03	-1.38461000E-02	 1.25698000E-02
					 0.00000000E+00	 0.00000000E+00	 0.00000000E+00
					 2.41412000E-05	-3.51842000E-03	-5.05135000E-05
					-7.12415000E-04	-1.39619000E-02	 6.19351000E-03
					-7.27232000E-04	-4.67783000E-03	 6.15046000E-03
					 0.00000000E+00	 0.00000000E+00	 0.00000000E+00
					 3.37031000E-03	-1.19354000E-02	-1.30336000E-02
					 0.00000000E+00	 0.00000000E+00	 0.00000000E+00
					 1.62191000E-03	-1.44040000E-02	-1.31884000E-02
					 0.00000000E+00	 0.00000000E+00	 0.00000000E+00
					 2.69614000E-03	-2.95543000E-03	-6.44979000E-03
					 1.72978000E-03	-1.13266000E-02	-6.63976000E-03
					 0.00000000E+00	 0.00000000E+00	 0.00000000E+00
					 2.48843000E-03	-1.34553000E-02	-1.29596000E-02
					 0.00000000E+00	 0.00000000E+00	 0.00000000E+00
					 7.77338000E-04	-4.55745000E-03	-6.25891000E-03
					 8.40732000E-04	-1.37626000E-02	-6.57068000E-03
					 0.00000000E+00	 0.00000000E+00	 0.00000000E+00
					 0.00000000E+00	 0.00000000E+00	 0.00000000E+00
					 5.04931000E-05	-1.44421000E-02	-1.58158000E-04
					 2.89404000E-04	-1.54085000E-02	 1.26740000E-02
					 0.00000000E+00	 0.00000000E+00	 0.00000000E+00
					 0.00000000E+00	 0.00000000E+00	 0.00000000E+00
					 5.70452000E-05	-1.43882000E-02	-1.77696000E-04
					-6.11711000E-04	-1.53941000E-02	 1.28473000E-02
					 0.00000000E+00	 0.00000000E+00	 0.00000000E+00
					 3.42825000E-06	-3.40132000E-03	-3.09914000E-05
					 1.69869000E-04	-1.46189000E-02	 6.02569000E-03
					 1.23111000E-03	-4.52354000E-03	 6.35915000E-03
					 0.00000000E+00	 0.00000000E+00	 0.00000000E+00
					-1.55397000E-04	-1.50353000E-02	-1.30415000E-02
					 0.00000000E+00	 0.00000000E+00	 0.00000000E+00
					 7.40163000E-04	-1.50058000E-02	-1.32630000E-02
					 0.00000000E+00	 0.00000000E+00	 0.00000000E+00
					-1.20518000E-03	-4.39946000E-03	-6.43228000E-03
					-5.55751000E-05	-1.44371000E-02	-6.35599000E-03
					 1.82587000E-04	-4.82004000E-02	-8.57111000E-04
					-4.51293000E-03	-4.95452000E-02	 2.31803000E-02
					 1.91638000E-04	-5.21313000E-02	-9.80448000E-04
					-2.99128000E-03	-5.34740000E-02	 2.30899000E-02
					 1.27138000E-04	-2.68960000E-02	-4.02268000E-04
					-2.16482000E-03	-4.87055000E-02	 1.11827000E-02
					-3.94100000E-03	-2.81320000E-02	 1.83195000E-02
					 1.88945000E-04	-5.03355000E-02	-9.28754000E-04
					-3.75034000E-03	-5.16771000E-02	 2.30430000E-02
					 1.19857000E-04	-3.01161000E-02	-4.71627000E-04
					-1.39664000E-03	-5.26335000E-02	 1.09924000E-02
					-2.25805000E-03	-3.13492000E-02	 1.82919000E-02
					 4.87828000E-03	-4.82991000E-02	-2.49793000E-02
					 3.38316000E-03	-5.22603000E-02	-2.51367000E-02
					 4.17401000E-03	-2.73686000E-02	-1.92025000E-02
					 2.52652000E-03	-4.80787000E-02	-1.29185000E-02
					 4.13598000E-03	-5.04585000E-02	-2.49809000E-02
					 2.50469000E-03	-3.05955000E-02	-1.93153000E-02
					 1.78606000E-03	-5.20309000E-02	-1.29709000E-02
					 1.80995000E-04	-5.45767000E-02	-1.02744000E-03
					-1.47037000E-03	-5.58773000E-02	 2.30058000E-02
					 1.87688000E-04	-5.35227000E-02	-1.01329000E-03
					-2.22840000E-03	-5.48834000E-02	 2.31673000E-02
					 1.02284000E-04	-3.16642000E-02	-4.75986000E-04
					-6.53863000E-04	-5.50467000E-02	 1.07985000E-02
					-5.90844000E-04	-3.28845000E-02	 1.82452000E-02
					 1.88602000E-03	-5.47153000E-02	-2.51466000E-02
					 2.63437000E-03	-5.36524000E-02	-2.52850000E-02
					 8.39907000E-04	-3.21654000E-02	-1.92754000E-02
					 1.03208000E-03	-5.44837000E-02	-1.28678000E-02
					 3.62108000E-04	-1.05347000E-01	-2.49506000E-03
					-5.50577000E-03	-1.06991000E-01	 3.03457000E-02
					 3.87429000E-04	-1.10591000E-01	-2.72833000E-03
					-4.29734000E-03	-1.12339000E-01	 3.01497000E-02
					 2.64185000E-04	-7.45323000E-02	-1.54595000E-03
					-2.56710000E-03	-1.06020000E-01	 1.39381000E-02
					-5.02846000E-03	-7.60515000E-02	 2.71693000E-02
					 3.78946000E-04	-1.08120000E-01	-2.61663000E-03
					-4.90074000E-03	-1.09826000E-01	 3.01485000E-02
					 2.78133000E-04	-7.91481000E-02	-1.72721000E-03
					-1.98156000E-03	-1.11315000E-01	 1.36219000E-02
					-3.67281000E-03	-8.06672000E-02	 2.70314000E-02
					 6.19217000E-03	-1.04788000E-01	-3.53988000E-02
					 5.08476000E-03	-1.10062000E-01	-3.57078000E-02
					 5.55130000E-03	-7.43262000E-02	-3.03497000E-02
					 3.27725000E-03	-1.04921000E-01	-1.89376000E-02
					 5.63955000E-03	-1.07573000E-01	-3.54737000E-02
					 4.24954000E-03	-7.89516000E-02	-3.05724000E-02
					 2.73608000E-03	-1.10188000E-01	-1.91185000E-02
					 3.88397000E-04	-1.14709000E-01	-2.89228000E-03
					-3.21762000E-03	-1.16553000E-01	 2.99417000E-02
					 3.90222000E-04	-1.12810000E-01	-2.82302000E-03
					-3.75927000E-03	-1.14486000E-01	 3.01730000E-02
					 2.81808000E-04	-8.24426000E-02	-1.83176000E-03
					-1.38769000E-03	-1.15477000E-01	 1.32982000E-02
					-2.36714000E-03	-8.39685000E-02	 2.68873000E-02
					 3.97454000E-03	-1.14226000E-01	-3.58578000E-02
					 4.53237000E-03	-1.12275000E-01	-3.59266000E-02
					 2.92604000E-03	-8.22677000E-02	-3.06385000E-02
					 2.17056000E-03	-1.14346000E-01	-1.91455000E-02
					 6.61906000E-04	-1.78110000E-01	-5.14549000E-03
					-5.96196000E-03	-1.79894000E-01	 3.37943000E-02