<?xml version="1.0"?>
<VTKFile type="UnstructuredGrid" version="0.1" byte_order="LittleEndian">
	<UnstructuredGrid>
		<Piece NumberOfPoints="522" NumberOfCells="64">
			<Points>
				<DataArray type="Float64" NumberOfComponents="3" format="ascii">
					 1.00000000E+00	 1.00000000E+00	-5.96046000E-08
					 1.00000000E+00	 5.00000000E-01	-5.96046000E-08
					 1.00000000E+00	 5.00000000E-01	 1.00000000E+00
					 1.00000000E+00	 1.00000000E+00	 1.00000000E+00
					 5.00000000E-01	 1.00000000E+00	-5.96046000E-08
					 5.00000000E-01	 5.00000000E-01	-5.96046000E-08
					 5.00000000E-01	 5.00000000E-01	 1.00000000E+00
					 5.00000000E-01	 1.00000000E+00	 1.00000000E+00
					 1.00000000E+00	 7.50000000E-01	-5.96046000E-08
					 1.00000000E+00	 5.00000000E-01	 5.00000000E-01
					 1.00000000E+00	 7.50000000E-01	 1.00000000E+00
					 1.00000000E+00	 1.00000000E+00	 5.00000000E-01
					 7.50000000E-01	 1.00000000E+00	-5.96046000E-08
					 7.50000000E-01	 5.00000000E-01	-5.96046000E-08
					 7.50000000E-01	 5.00000000E-01	 1.00000000E+00
					 7.50000000E-01	 1.00000000E+00	 1.00000000E+00
					 5.00000000E-01	 7.50000000E-01	-5.96046000E-08
					 5.00000000E-01	 5.00000000E-01	 5.00000000E-01
					 5.00000000E-01	 7.50000000E-01	 1.00000000E+00
					 5.00000000E-01	 1.00000000E+00	 5.00000000E-01
					 1.00000000E+00	-1.49012000E-08	-5.96046000E-08
					 1.00000000E+00	-1.49012000E-08	 1.00000000E+00
					 5.00000000E-01	-1.49012000E-08	-5.96046000E-08
					 5.00000000E-01	-1.49012000E-08	 1.00000000E+00
					 1.00000000E+00	 2.50000000E-01	-5.96046000E-08
					 1.00000000E+00	-1.49012000E-08	 5.00000000E-01
					 1.00000000E+00	 2.50000000E-01	 1.00000000E+00
					 7.50000000E-01	-1.49012000E-08	-5.96046000E-08
					 7.50000000E-01	-1.49012000E-08	 1.00000000E+00
					 5.00000000E-01	 2.50000000E-01	-5.96046000E-08
					 5.00000000E-01	-1.49012000E-08	 5.00000000E-01
					 5.00000000E-01	 2.50000000E-01	 1.00000000E+00
					-7.45058000E-09	 1.00000000E+00	-5.96046000E-08
					-7.45058000E-09	 5.00000000E-01	-5.96046000E-08
					-7.45058000E-09	 5.00000000E-01	 1.00000000E+00
					-7.45058000E-09	 1.00000000E+00	 1.00000000E+00
					 2.50000000E-01	 1.00000000E+00	-5.96046000E-08
					 2.50000000E-01	 5.00000000E-01	-5.96046000E-08
					 2.50000000E-01	 5.00000000E-01	 1.00000000E+00
					 2.50000000E-01	 1.00000000E+00	 1.00000000E+00
					-7.45058000E-09	 7.50000000E-01	-5.96046000E-08
					-7.45058000E-09	 5.00000000E-01	 5.00000000E-01
					-7.45058000E-09	 7.50000000E-01	 1.00000000E+00
					-7.45058000E-09	 1.00000000E+00	 5.00000000E-01
					-7.45058000E-09	-1.49012000E-08	-5.96046000E-08
					-7.45058000E-09	-1.49012000E-08	 1.00000000E+00
					 2.50000000E-01	-1.49012000E-08	-5.96046000E-08
					 2.50000000E-01	-1.49012000E-08	 1.00000000E+00
					-7.45058000E-09	 2.50000000E-01	-5.96046000E-08
					-7.45058000E-09	-1.49012000E-08	 5.00000000E-01
					-7.45058000E-09	 2.50000000E-01	 1.00000000E+00
					 1.00000000E+00	 5.00000000E-01	 2.00000000E+00
					 1.00000000E+00	 1.00000000E+00	 2.00000000E+00
					 5.00000000E-01	 5.00000000E-01	 2.00000000E+00
					 5.00000000E-01	 1.00000000E+00	 2.00000000E+00
					 1.00000000E+00	 5.00000000E-01	 1.50000000E+00
					 1.00000000E+00	 7.50000000E-01	 2.00000000E+00
					 1.00000000E+00	 1.00000000E+00	 1.50000000E+00
					 7.50000000E-01	 5.00000000E-01	 2.00000000E+00
					 7.50000000E-01	 1.00000000E+00	 2.00000000E+00
					 5.00000000E-01	 5.00000000E-01	 1.50000000E+00
					 5.00000000E-01	 7.50000000E-01	 2.00000000E+00
					 5.00000000E-01	 1.00000000E+00	 1.50000000E+00
					 1.00000000E+00	-1.49012000E-08	 2.00000000E+00
					 5.00000000E-01	-1.49012000E-08	 2.00000000E+00
					 1.00000000E+00	-1.49012000E-08	 1.50000000E+00
					 1.00000000E+00	 2.50000000E-01	 2.00000000E+00
					 7.50000000E-01	-1.49012000E-08	 2.00000000E+00
					 5.00000000E-01	-1.49012000E-08	 1.50000000E+00
					 5.00000000E-01	 2.50000000E-01	 2.00000000E+00
					-7.45058000E-09	 5.00000000E-01	 2.00000000E+00
					-7.45058000E-09	 1.00000000E+00	 2.00000000E+00
					 2.50000000E-01	 5.00000000E-01	 2.00000000E+00
					 2.50000000E-01	 1.00000000E+00	 2.00000000E+00
					-7.45058000E-09	 5.00000000E-01	 1.50000000E+00
					-7.45058000E-09	 7.50000000E-01	 2.00000000E+00
					-7.45058000E-09	 1.00000000E+00	 1.50000000E+00
					-7.45058000E-09	-1.49012000E-08	 2.00000000E+00
					 2.50000000E-01	-1.49012000E-08	 2.00000000E+00
					-7.45058000E-09	-1.49012000E-08	 1.50000000E+00
					-7.45058000E-09	 2.50000000E-01	 2.00000000E+00
					 1.00000000E+00	 5.00000000E-01	 3.00000000E+00
					 1.00000000E+00	 1.00000000E+00	 3.00000000E+00
					 5.00000000E-01	 5.00000000E-01	 3.00000000E+00
					 5.00000000E-01	 1.00000000E+00	 3.00000000E+00
					 1.00000000E+00	 5.00000000E-01	 2.50000000E+00
					 1.00000000E+00	 7.50000000E-01	 3.00000000E+00
					 1.00000000E+00	 1.00000000E+00	 2.50000000E+00
					 7.50000000E-01	 5.00000000E-01	 3.00000000E+00
					 7.50000000E-01	 1.00000000E+00	 3.00000000E+00
					 5.00000000E-01	 5.00000000E-01	 2.50000000E+00
					 5.00000000E-01	 7.50000000E-01	 3.00000000E+00
					 5.00000000E-01	 1.00000000E+00	 2.50000000E+00
					 1.00000000E+00	-1.49012000E-08	 3.00000000E+00
					 5.00000000E-01	-1.49012000E-08	 3.00000000E+00
					 1.00000000E+00	-1.49012000E-08	 2.50000000E+00
					 1.00000000E+00	 2.50000000E-01	 3.00000000E+00
					 7.50000000E-01	-1.49012000E-08	 3.00000000E+00
					 5.00000000E-01	-1.49012000E-08	 2.50000000E+00
					 5.00000000E-01	 2.50000000E-01	 3.00000000E+00
					-7.45058000E-09	 5.00000000E-01	 3.00000000E+00
					-7.45058000E-09	 1.00000000E+00	 3.00000000E+00
					 2.50000000E-01	 5.00000000E-01	 3.00000000E+00
					 2.50000000E-01	 1.00000000E+00	 3.00000000E+00
					-7.45058000E-09	 5.00000000E-01	 2.50000000E+00
					-7.45058000E-09	 7.50000000E-01	 3.00000000E+00
					-7.45058000E-09	 1.00000000E+00	 2.50000000E+00
					-7.45058000E-09	-1.49012000E-08	 3.00000000E+00
					 2.50000000E-01	-1.49012000E-08	 3.00000000E+00
					-7.45058000E-09	-1.49012000E-08	 2.50000000E+00
					-7.45058000E-09	 2.50000000E-01	 3.00000000E+00
					 1.00000000E+00	 5.00000000E-01	 4.00000000E+00
					 1.00000000E+00	 1.00000000E+00	 4.00000000E+00
					 5.00000000E-01	 5.00000000E-01	 4.00000000E+00
					 5.00000000E-01	 1.00000000E+00	 4.00000000E+00
					 1.00000000E+00	 5.00000000E-01	 3.50000000E+00
					 1.00000000E+00	 7.50000000E-01	 4.00000000E+00
					 1.00000000E+00	 1.00000000E+00	 3.50000000E+00
					 7.50000000E-01	 5.00000000E-01	 4.00000000E+00
					 7.50000000E-01	 1.00000000E+00	 4.00000000E+00
					 5.00000000E-01	 5.00000000E-01	 3.50000000E+00
					 5.00000000E-01	 7.50000000E-01	 4.00000000E+00
					 5.00000000E-01	 1.00000000E+00	 3.50000000E+00
					 1.00000000E+00	-1.49012000E-08	 4.00000000E+00
					 5.00000000E-01	-1.49012000E-08	 4.00000000E+00
					 1.00000000E+00	-1.49012000E-08	 3.50000000E+00
					 1.00000000E+00	 2.50000000E-01	 4.00000000E+00
					 7.50000000E-01	-1.49012000E-08	 4.00000000E+00
					 5.00000000E-01	-1.49012000E-08	 3.50000000E+00
					 5.00000000E-01	 2.50000000E-01	 4.00000000E+00
					-7.45058000E-09	 5.00000000E-01	 4.00000000E+00
					-7.45058000E-09	 1.00000000E+00	 4.00000000E+00
					 2.50000000E-01	 5.00000000E-01	 4.00000000E+00
					 2.50000000E-01	 1.00000000E+00	 4.00000000E+00
					-7.45058000E-09	 5.00000000E-01	 3.50000000E+00
					-7.45058000E-09	 7.50000000E-01	 4.00000000E+00
					-7.45058000E-09	 1.00000000E+00	 3.50000000E+00
					-7.45058000E-09	-1.49012000E-08	 4.00000000E+00
					 2.50000000E-01	-1.49012000E-08	 4.00000000E+00
					-7.45058000E-09	-1.49012000E-08	 3.50000000E+00
					-7.45058000E-09	 2.50000000E-01	 4.00000000E+00
					 1.00000000E+00	 5.00000000E-01	 5.00000000E+00
					 1.00000000E+00	 1.00000000E+00	 5.00000000E+00
					 5.00000000E-01	 5.00000000E-01	 5.00000000E+00
					 5.00000000E-01	 1.00000000E+00	 5.00000000E+00
					 1.00000000E+00	 5.00000000E-01	 4.50000000E+00
					 1.00000000E+00	 7.50000000E-01	 5.00000000E+00
					 1.00000000E+00	 1.00000000E+00	 4.50000000E+00
					 7.50000000E-01	 5.00000000E-01	 5.00000000E+00
					 7.50000000E-01	 1.00000000E+00	 5.00000000E+00
					 5.00000000E-01	 5.00000000E-01	 4.50000000E+00
					 5.00000000E-01	 7.50000000E-01	 5.00000000E+00
					 5.00000000E-01	 1.00000000E+00	 4.50000000E+00
					 1.00000000E+00	-1.49012000E-08	 5.00000000E+00
					 5.00000000E-01	-1.49012000E-08	 5.00000000E+00
					 1.00000000E+00	-1.49012000E-08	 4.50000000E+00
					 1.00000000E+00	 2.50000000E-01	 5.00000000E+00
					 7.50000000E-01	-1.49012000E-08	 5.00000000E+00
					 5.00000000E-01	-1.49012000E-08	 4.50000000E+00
					 5.00000000E-01	 2.50000000E-01	 5.00000000E+00
					-7.45058000E-09	 5.00000000E-01	 5.00000000E+00
					-7.45058000E-09	 1.00000000E+00	 5.00000000E+00
					 2.50000000E-01	 5.00000000E-01	 5.00000000E+00
					 2.50000000E-01	 1.00000000E+00	 5.00000000E+00
					-7.45058000E-09	 5.00000000E-01	 4.50000000E+00
					-7.45058000E-09	 7.50000000E-01	 5.00000000E+00
					-7.45058000E-09	 1.00000000E+00	 4.50000000E+00
					-7.45058000E-09	-1.49012000E-08	 5.00000000E+00
					 2.50000000E-01	-1.49012000E-08	 5.00000000E+00
					-7.45058000E-09	-1.49012000E-08	 4.50000000E+00
					-7.45058000E-09	 2.50000000E-01	 5.00000000E+00
					 1.00000000E+00	 5.00000000E-01	 6.00000000E+00
					 1.00000000E+00	 1.00000000E+00	 6.00000000E+00
					 5.00000000E-01	 5.00000000E-01	 6.00000000E+00
					 5.00000000E-01	 1.00000000E+00	 6.00000000E+00
					 1.00000000E+00	 5.00000000E-01	 5.50000000E+00
					 1.00000000E+00	 7.50000000E-01	 6.00000000E+00
					 1.00000000E+00	 1.00000000E+00	 5.50000000E+00
					 7.50000000E-01	 5.00000000E-01	 6.00000000E+00
					 7.50000000E-01	 1.00000000E+00	 6.00000000E+00
					 5.00000000E-01	 5.00000000E-01	 5.50000000E+00
					 5.00000000E-01	 7.50000000E-01	 6.00000000E+00
					 5.00000000E-01	 1.00000000E+00	 5.50000000E+00
					 1.00000000E+00	-1.49012000E-08	 6.00000000E+00
[...]
			<PointData>
				<DataArray type="Float32" Name="U" NumberOfComponents="3" ComponentName0="D1" ComponentName1="D2" ComponentName2="D3" format="ascii">
					 0.00000000E+00	 0.00000000E+00	 0.00000000E+00
					 0.00000000E+00	 0.00000000E+00	 0.00000000E+00
					-1.12155000E-05	 2.97793000E-03	-1.08387000E-05
					-2.18410000E-04	 3.09615000E-03	-2.32147000E-03
					 0.00000000E+00	 0.00000000E+00	 0.00000000E+00
					 0.00000000E+00	 0.00000000E+00	 0.00000000E+00
					-1.28183000E-05	 2.61823000E-03	-1.12811000E-05
					-5.12313000E-04	 2.75014000E-03	-2.35519000E-03
					 0.00000000E+00	 0.00000000E+00	 0.00000000E+00
					-3.66144000E-06	 7.54124000E-04	-1.85867000E-06
					-1.16077000E-04	 2.98405000E-03	-1.07547000E-03
					 1.15607000E-04	 9.33050000E-04	-1.17844000E-03
					 0.00000000E+00	 0.00000000E+00	 0.00000000E+00
					 0.00000000E+00	 0.00000000E+00	 0.00000000E+00
					-1.21664000E-05	 2.84729000E-03	-1.22622000E-05
					-3.67023000E-04	 2.97437000E-03	-2.39139000E-03
					 0.00000000E+00	 0.00000000E+00	 0.00000000E+00
					-5.28268000E-06	 6.67487000E-04	-4.23482000E-06
					-2.61815000E-04	 2.62869000E-03	-1.14216000E-03
					-2.46677000E-04	 8.60752000E-04	-1.14887000E-03
					 0.00000000E+00	 0.00000000E+00	 0.00000000E+00
					 1.93464000E-04	 3.10396000E-03	 2.29755000E-03
					 0.00000000E+00	 0.00000000E+00	 0.00000000E+00
					 4.84915000E-04	 2.76204000E-03	 2.33068000E-03
					 0.00000000E+00	 0.00000000E+00	 0.00000000E+00
					-1.23576000E-04	 9.35663000E-04	 1.17365000E-03
					 9.28650000E-05	 2.98733000E-03	 1.05361000E-03
					 0.00000000E+00	 0.00000000E+00	 0.00000000E+00
					 3.40705000E-04	 2.98480000E-03	 2.36419000E-03
					 0.00000000E+00	 0.00000000E+00	 0.00000000E+00
					 2.35748000E-04	 8.63342000E-04	 1.13978000E-03
					 2.35701000E-04	 2.63453000E-03	 1.11901000E-03
					 0.00000000E+00	 0.00000000E+00	 0.00000000E+00
					 0.00000000E+00	 0.00000000E+00	 0.00000000E+00
					-1.24472000E-05	 1.98075000E-03	-9.64146000E-06
					-8.00180000E-04	 2.09929000E-03	-2.31975000E-03
					 0.00000000E+00	 0.00000000E+00	 0.00000000E+00
					 0.00000000E+00	 0.00000000E+00	 0.00000000E+00
					-1.28973000E-05	 2.34984000E-03	-9.85311000E-06
					-6.54404000E-04	 2.47434000E-03	-2.29390000E-03
					 0.00000000E+00	 0.00000000E+00	 0.00000000E+00
					-6.62933000E-06	 2.71683000E-04	-5.95258000E-06
					-4.06670000E-04	 1.98720000E-03	-1.16885000E-03
					-5.88354000E-04	 4.70647000E-04	-1.18239000E-03
					 0.00000000E+00	 0.00000000E+00	 0.00000000E+00
					 7.74340000E-04	 2.11455000E-03	 2.29931000E-03
					 0.00000000E+00	 0.00000000E+00	 0.00000000E+00
					 6.27091000E-04	 2.48778000E-03	 2.27315000E-03
					 0.00000000E+00	 0.00000000E+00	 0.00000000E+00
					 5.75418000E-04	 4.73490000E-04	 1.16978000E-03
					 3.81565000E-04	 1.99506000E-03	 1.14883000E-03
					-5.76901000E-06	 1.03071000E-02	-5.52981000E-05
					-8.55025000E-04	 1.03475000E-02	-3.72467000E-03
					-5.37732000E-06	 9.42197000E-03	-3.44672000E-05
					-9.39899000E-04	 9.45138000E-03	-3.72343000E-03
					-1.40969000E-05	 6.31208000E-03	-3.08384000E-05
					-4.27204000E-04	 1.03216000E-02	-1.81571000E-03
					-5.65580000E-04	 6.41306000E-03	-3.18907000E-03
					-6.00775000E-06	 9.87364000E-03	-4.48721000E-05
					-8.98169000E-04	 9.90472000E-03	-3.75771000E-03
					-1.49310000E-05	 5.66633000E-03	-2.16140000E-05
					-4.73287000E-04	 9.43124000E-03	-1.83636000E-03
					-7.62838000E-04	 5.75893000E-03	-3.20488000E-03
					 8.40842000E-04	 1.03724000E-02	 3.61379000E-03
					 9.26575000E-04	 9.48216000E-03	 3.65404000E-03
					 5.33913000E-04	 6.42859000E-03	 3.12533000E-03
					 4.15158000E-04	 1.03328000E-02	 1.70487000E-03
					 8.83573000E-04	 9.93317000E-03	 3.66781000E-03
					 7.30258000E-04	 5.78108000E-03	 3.15977000E-03
					 4.61997000E-04	 9.44583000E-03	 1.76728000E-03
					-2.15434000E-06	 8.44088000E-03	-1.20964000E-05
					-1.03710000E-03	 8.46076000E-03	-3.68160000E-03
					-4.21632000E-06	 8.93854000E-03	-2.37012000E-05
					-9.89717000E-04	 8.96548000E-03	-3.69496000E-03
					-1.32103000E-05	 4.81913000E-03	-1.02509000E-05
					-5.18315000E-04	 8.44376000E-03	-1.81421000E-03
					-9.68695000E-04	 4.90320000E-03	-3.16824000E-03
					 1.02990000E-03	 8.49697000E-03	 3.65683000E-03
					 9.78602000E-04	 8.99869000E-03	 3.64693000E-03
					 9.39781000E-04	 4.93085000E-03	 3.14611000E-03
					 5.13381000E-04	 8.46122000E-03	 1.78998000E-03
					 3.82049000E-05	 1.82837000E-02	-9.03945000E-05
					-9.19662000E-04	 1.82712000E-02	-3.91010000E-03
					 4.04992000E-05	 1.73438000E-02	-5.66348000E-05
					-8.96121000E-04	 1.73210000E-02	-3.88012000E-03
					 1.30722000E-05	 1.43992000E-02	-7.56913000E-05
					-4.38166000E-04	 1.82797000E-02	-2.01909000E-03
					-9.86160000E-04	 1.44164000E-02	-3.90200000E-03
					 3.92404000E-05	 1.78130000E-02	-7.30106000E-05
					-9.08266000E-04	 1.77925000E-02	-3.87142000E-03
					 1.46945000E-05	 1.34055000E-02	-4.65893000E-05
					-4.28363000E-04	 1.73347000E-02	-1.96409000E-03
					-9.93364000E-04	 1.34059000E-02	-3.88463000E-03
					 9.95302000E-04	 1.83040000E-02	 3.73027000E-03
					 9.76083000E-04	 1.73557000E-02	 3.76747000E-03
					 1.01074000E-03	 1.44470000E-02	 3.75114000E-03
					 5.14344000E-04	 1.82964000E-02	 1.83848000E-03
					 9.85897000E-04	 1.78259000E-02	 3.72635000E-03
					 1.02107000E-03	 1.34401000E-02	 3.79184000E-03
					 5.09062000E-04	 1.73520000E-02	 1.85105000E-03
					 4.38390000E-05	 1.64119000E-02	-2.26595000E-05
					-8.84574000E-04	 1.63844000E-02	-3.84267000E-03
					 4.21341000E-05	 1.68759000E-02	-4.01818000E-05
					-8.90790000E-04	 1.68512000E-02	-3.88582000E-03
					 1.81141000E-05	 1.23852000E-02	-1.66855000E-05
					-4.20305000E-04	 1.64001000E-02	-1.90437000E-03
					-1.01896000E-03	 1.23788000E-02	-3.84309000E-03
					 9.71074000E-04	 1.64212000E-02	 3.79760000E-03
					 9.73870000E-04	 1.68873000E-02	 3.80565000E-03
					 1.05330000E-03	 1.24164000E-02	 3.80993000E-03
					 5.07649000E-04	 1.64182000E-02	 1.85936000E-03
					 9.87784000E-05	 2.53775000E-02	-1.02405000E-04
					-3.71301000E-04	 2.53578000E-02	-3.83428000E-03
					 1.01308000E-04	 2.49168000E-02	-7.38404000E-05
					-3.52715000E-04	 2.48951000E-02	-3.80626000E-03
					 6.92129000E-05	 2.18953000E-02	-9.84937000E-05
					-1.36267000E-04	 2.53690000E-02	-2.00933000E-03
					-6.77321000E-04	 2.18771000E-02	-3.87570000E-03
					 1.00110000E-04	 2.51457000E-02	-8.81885000E-05
					-3.61880000E-04	 2.51251000E-02	-3.77896000E-03
					 7.15559000E-05	 2.11599000E-02	-6.52140000E-05
					-1.25871000E-04	 2.49076000E-02	-1.93975000E-03
					-6.58137000E-04	 2.11373000E-02	-3.84248000E-03
					 5.68616000E-04	 2.53902000E-02	 3.62960000E-03
					 5.56237000E-04	 2.49263000E-02	 3.65886000E-03
					 8.15836000E-04	 2.19107000E-02	 3.67922000E-03
					 3.33335000E-04	 2.53862000E-02	 1.80438000E-03
					 5.62424000E-04	 2.51562000E-02	 3.60306000E-03
					 8.01422000E-04	 2.11703000E-02	 3.71198000E-03
					 3.28611000E-04	 2.49235000E-02	 1.79215000E-03
					 1.02727000E-04	 2.44682000E-02	-4.55038000E-05
					-3.40294000E-04	 2.44457000E-02	-3.77782000E-03
					 1.02121000E-04	 2.46906000E-02	-5.93764000E-05
					-3.46510000E-04	 2.46685000E-02	-3.83309000E-03
					 7.39712000E-05	 2.04362000E-02	-3.17633000E-05
					-1.18800000E-04	 2.44590000E-02	-1.87011000E-03
					-6.46574000E-04	 2.04107000E-02	-3.80941000E-03
					 5.47802000E-04	 2.44741000E-02	 3.68705000E-03
					 5.52302000E-04	 2.46990000E-02	 3.71458000E-03
					 7.94647000E-04	 2.04434000E-02	 3.74526000E-03
					 3.24818000E-04	 2.44725000E-02	 1.77916000E-03
					 1.45754000E-04	 3.21587000E-02	-1.17398000E-04
					 2.52778000E-04	 3.21462000E-02	-3.77649000E-03
					 1.45215000E-04	 3.22722000E-02	-9.21050000E-05
					 2.58835000E-04	 3.22565000E-02	-3.74926000E-03
					 1.20340000E-04	 2.88102000E-02	-1.07540000E-04
					 2.00066000E-04	 3.21534000E-02	-1.99841000E-03
					-7.09678000E-05	 2.87910000E-02	-3.79681000E-03
					 1.45422000E-04	 3.22149000E-02	-1.04548000E-04
					 2.55612000E-04	 3.22002000E-02	-3.71584000E-03
					 1.21639000E-04	 2.86257000E-02	-8.18091000E-05
					 2.01637000E-04	 3.22655000E-02	-1.92544000E-03
					-5.79963000E-05	 2.86055000E-02	-3.76993000E-03
					 3.86390000E-05	 3.21726000E-02	 3.54119000E-03
					 3.12503000E-05	 3.22839000E-02	 3.56336000E-03
					 3.13904000E-04	 2.88234000E-02	 3.58008000E-03
					 9.16916000E-05	 3.21665000E-02	 1.76417000E-03
					 3.51066000E-05	 3.22262000E-02	 3.50493000E-03
					 3.01770000E-04	 2.86364000E-02	 3.60545000E-03
					 8.90793000E-05	 3.22786000E-02	 1.74067000E-03
					 1.45260000E-04	 3.23885000E-02	-6.61248000E-05
					 2.58862000E-04	 3.23686000E-02	-3.72475000E-03
					 1.45334000E-04	 3.23297000E-02	-7.96151000E-05
					 2.58540000E-04	 3.23125000E-02	-3.78180000E-03
					 1.23088000E-04	 2.84514000E-02	-5.73911000E-05
					 2.02944000E-04	 3.23793000E-02	-1.85563000E-03
					-4.63175000E-05	 2.84308000E-02	-3.74607000E-03
					 3.09003000E-05	 3.23991000E-02	 3.59063000E-03
					 3.11959000E-05	 3.23418000E-02	 3.62120000E-03
					 2.92007000E-04	 2.84618000E-02	 3.63170000E-03
					 8.80988000E-05	 3.23942000E-02	 1.72242000E-03
					 1.94735000E-04	 3.86285000E-02	-1.30119000E-04
					 1.15085000E-03	 3.86176000E-02	-3.84660000E-03
					 1.95693000E-04	 3.95665000E-02	-1.15055000E-04
					 1.13085000E-03	 3.95589000E-02	-3.83144000E-03
					 1.73628000E-04	 3.54056000E-02	-1.26261000E-04
					 6.73252000E-04	 3.86190000E-02	-2.06137000E-03
					 6.65601000E-04	 3.54030000E-02	-3.79444000E-03
					 1.95436000E-04	 3.91016000E-02	-1.22838000E-04
					 1.14086000E-03	 3.90917000E-02	-3.76741000E-03
					 1.76600000E-04	 3.58988000E-02	-1.05406000E-04
					 6.63817000E-04	 3.95589000E-02	-1.97623000E-03
					 6.65999000E-04	 3.58897000E-02	-3.77033000E-03
					-7.56841000E-04	 3.86592000E-02	 3.58704000E-03
					-7.33647000E-04	 3.95952000E-02	 3.59850000E-03
					-3.22245000E-04	 3.54268000E-02	 3.54464000E-03
					-2.82034000E-04	 3.86423000E-02	 1.79991000E-03
					-7.45063000E-04	 3.91305000E-02	 3.52266000E-03
					-3.15231000E-04	 3.59155000E-02	 3.56268000E-03
					-2.70590000E-04	 3.95785000E-02	 1.74472000E-03
					 1.96409000E-04	 4.04853000E-02	-1.06134000E-04
					 1.10991000E-03	 4.04809000E-02	-3.82505000E-03
					 1.96100000E-04	 4.00273000E-02	-1.09399000E-04
					 1.12087000E-03	 4.00211000E-02	-3.89687000E-03
					 1.77991000E-04	 3.63835000E-02	-8.35217000E-05
					 6.53179000E-04	 4.04806000E-02	-1.89956000E-03
					 6.54101000E-04	 3.63689000E-02	-3.75254000E-03
					-7.13772000E-04	 4.05085000E-02	 3.61231000E-03
					-7.23344000E-04	 4.00550000E-02	 3.67456000E-03
					-2.99769000E-04	 3.63949000E-02	 3.58582000E-03
					-2.60602000E-04	 4.04933000E-02	 1.68853000E-03
					 2.19893000E-04	 4.54063000E-02	-1.45051000E-04
					 1.99106000E-03	 4.53942000E-02	-4.01430000E-03
					 2.24497000E-04	 4.71529000E-02	-1.54867000E-04
					 1.96214000E-03	 4.71506000E-02	-4.02646000E-03
					 2.11275000E-04	 4.19285000E-02	-1.35797000E-04
					 1.10520000E-03	 4.53984000E-02	-2.12021000E-03
					 1.61343000E-03	 4.19143000E-02	-3.92745000E-03
					 2.22810000E-04	 4.62840000E-02	-1.49150000E-04
					 1.97832000E-03	 4.62794000E-02	-3.97347000E-03
					 2.09502000E-04	 4.33035000E-02	-1.31169000E-04
					 1.09683000E-03	 4.71506000E-02	-2.08775000E-03
					 1.58382000E-03	 4.32996000E-02	-3.92889000E-03
					-1.54262000E-03	 4.54283000E-02	 3.72691000E-03
					-1.51520000E-03	 4.71774000E-02	 3.73321000E-03
					-1.18497000E-03	 4.19554000E-02	 3.65698000E-03
					-6.62162000E-04	 4.54141000E-02	 1.83460000E-03
					-1.52860000E-03	 4.63076000E-02	 3.68125000E-03
					-1.15661000E-03	 4.33312000E-02	 3.66562000E-03
					-6.49000000E-04	 4.71603000E-02	 1.78668000E-03
					 2.25986000E-04	 4.88736000E-02	-1.61036000E-04
					 1.94676000E-03	 4.88763000E-02	-4.04118000E-03
					 2.25135000E-04	 4.80140000E-02	-1.59252000E-04
					 1.95534000E-03	 4.80133000E-02	-4.08242000E-03
					 2.06005000E-04	 4.46593000E-02	-1.30722000E-04
					 1.08714000E-03	 4.88734000E-02	-2.05558000E-03
					 1.56560000E-03	 4.46652000E-02	-3.92988000E-03
					-1.50113000E-03	 4.89067000E-02	 3.73482000E-03
					-1.51013000E-03	 4.80419000E-02	 3.78351000E-03
					-1.13995000E-03	 4.46842000E-02	 3.66875000E-03
					-6.37959000E-04	 4.88856000E-02	 1.73876000E-03
					 2.39212000E-04	 5.29450000E-02	-1.80313000E-04
					 2.29621000E-03	 5.29050000E-02	-4.07213000E-03
					 2.42940000E-04	 5.50371000E-02	-1.82295000E-04
					 2.27744000E-03	 5.50046000E-02	-4.12025000E-03
					 2.28826000E-04	 4.90926000E-02	-1.62360000E-04
					 1.26361000E-03	 5.29256000E-02	-2.13200000E-03
					 2.22432000E-03	 4.90750000E-02	-4.05806000E-03
					 2.40724000E-04	 5.39866000E-02	-1.79846000E-04
					 2.29039000E-03	 5.39512000E-02	-4.08915000E-03
					 2.34734000E-04	 5.10825000E-02	-1.72618000E-04
					 1.25541000E-03	 5.50218000E-02	-2.15260000E-03
					 2.20642000E-03	 5.10654000E-02	-4.08825000E-03
					-1.84617000E-03	 5.29565000E-02	 3.74424000E-03
					-1.83275000E-03	 5.50655000E-02	 3.76831000E-03
					-1.78584000E-03	 4.90971000E-02	 3.75210000E-03
					-7.96170000E-04	 5.29486000E-02	 1.78273000E-03
					-1.84117000E-03	 5.40095000E-02	 3.74727000E-03
					-1.76436000E-03	 5.11058000E-02	 3.76817000E-03
					-7.85320000E-04	 5.50530000E-02	 1.78998000E-03
					 2.42509000E-04	 5.71201000E-02	-1.87376000E-04
					 2.26810000E-03	 5.70825000E-02	-4.16434000E-03
					 2.46018000E-04	 5.60865000E-02	-1.85289000E-04
					 2.26963000E-03	 5.60512000E-02	-4.15048000E-03
					 2.34593000E-04	 5.30556000E-02	-1.83694000E-04
					 1.25458000E-03	 5.70945000E-02	-2.17349000E-03
					 2.19371000E-03	 5.30354000E-02	-4.12504000E-03
					-1.83928000E-03	 5.71962000E-02	 3.79878000E-03
					-1.83599000E-03	 5.61342000E-02	 3.79504000E-03
					-1.75574000E-03	 5.31082000E-02	 3.78478000E-03
					-7.88793000E-04	 5.71660000E-02	 1.79810000E-03
					 0.00000000E+00	 0.00000000E+00	 0.00000000E+00
					 0.00000000E+00	 0.00000000E+00	 0.00000000E+00
					-2.65957000E-05	-1.73017000E-02	-2.69443000E-04
					-1.90479000E-03	-1.83916000E-02	 1.51926000E-02
					 0.00000000E+00	 0.00000000E+00	 0.00000000E+00
					 0.00000000E+00	 0.00000000E+00	 0.00000000E+00
					-4.57159000E-05	-1.81773000E-02	-3.47791000E-04
					 1.64391000E-05	-1.93497000E-02	 1.53133000E-02
					 0.00000000E+00	 0.00000000E+00	 0.00000000E+00
					 2.59806000E-05	-3.99000000E-03	-7.40148000E-05
					-9.64429000E-04	-1.74949000E-02	 7.21142000E-03
					-2.30867000E-03	-5.36993000E-03	 7.90300000E-03
					 0.00000000E+00	 0.00000000E+00	 0.00000000E+00
					 0.00000000E+00	 0.00000000E+00	 0.00000000E+00
					-3.39907000E-05	-1.80699000E-02	-3.19357000E-04
					-9.26499000E-04	-1.92082000E-02	 1.52675000E-02
					 0.00000000E+00	 0.00000000E+00	 0.00000000E+00
					-1.09827000E-05	-4.99772000E-03	-1.13028000E-04
					-1.70293000E-05	-1.83996000E-02	 7.24409000E-03
					 1.77675000E-05	-6.39421000E-03	 7.66164000E-03
					 0.00000000E+00	 0.00000000E+00	 0.00000000E+00
					 1.81737000E-03	-1.78582000E-02	-1.58113000E-02
					 0.00000000E+00	 0.00000000E+00	 0.00000000E+00
					-1.02185000E-04	-1.88077000E-02	-1.61007000E-02
					 0.00000000E+00	 0.00000000E+00	 0.00000000E+00
					 2.34084000E-03	-5.18837000E-03	-8.08362000E-03
					 8.97754000E-04	-1.72342000E-02	-7.77232000E-03
					 0.00000000E+00	 0.00000000E+00	 0.00000000E+00
					 8.49826000E-04	-1.86593000E-02	-1.59940000E-02
					 0.00000000E+00	 0.00000000E+00	 0.00000000E+00
					-3.38605000E-05	-6.23148000E-03	-7.91263000E-03
					-7.47720000E-05	-1.81305000E-02	-7.96870000E-03
					 0.00000000E+00	 0.00000000E+00	 0.00000000E+00
					 0.00000000E+00	 0.00000000E+00	 0.00000000E+00
					-7.00609000E-05	-1.71792000E-02	-3.52605000E-04
					 1.92991000E-03	-1.82640000E-02	 1.51118000E-02
					 0.00000000E+00	 0.00000000E+00	 0.00000000E+00
					 0.00000000E+00	 0.00000000E+00	 0.00000000E+00
					-5.78868000E-05	-1.80096000E-02	-3.60679000E-04
					 9.56990000E-04	-1.91363000E-02	 1.52140000E-02
					 0.00000000E+00	 0.00000000E+00	 0.00000000E+00
					-5.48034000E-05	-3.93656000E-03	-1.13964000E-04
					 9.28918000E-04	-1.73713000E-02	 7.14234000E-03
					 2.33161000E-03	-5.31004000E-03	 7.86212000E-03
					 0.00000000E+00	 0.00000000E+00	 0.00000000E+00
					-2.02795000E-03	-1.77471000E-02	-1.58957000E-02
					 0.00000000E+00	 0.00000000E+00	 0.00000000E+00
					-1.05539000E-03	-1.86035000E-02	-1.60211000E-02
					 0.00000000E+00	 0.00000000E+00	 0.00000000E+00
					-2.41250000E-03	-5.15120000E-03	-8.12597000E-03
					-1.05420000E-03	-1.71178000E-02	-7.87020000E-03
					-1.77500000E-04	-6.28463000E-02	-1.33882000E-03
					-1.23560000E-03	-6.40813000E-02	 2.46284000E-02
					-1.79119000E-04	-6.33430000E-02	-1.45153000E-03
					-1.25712000E-04	-6.45744000E-02	 2.46037000E-02
					-8.56505000E-05	-3.74190000E-02	-6.87067000E-04
					-7.11436000E-04	-6.33395000E-02	 1.14339000E-02
					-1.57159000E-03	-3.87159000E-02	 2.07461000E-02
					-1.78086000E-04	-6.32129000E-02	-1.40574000E-03
					-6.80778000E-04	-6.44429000E-02	 2.46530000E-02
					-1.03332000E-04	-3.81171000E-02	-7.86378000E-04
					-1.46154000E-04	-6.38396000E-02	 1.14076000E-02
					-1.92760000E-05	-3.94079000E-02	 2.07526000E-02
					 8.80292000E-04	-6.26967000E-02	-2.73828000E-02
					-2.33797000E-04	-6.31966000E-02	-2.75832000E-02
					 1.37417000E-03	-3.77664000E-02	-2.22236000E-02
					 3.55086000E-04	-6.26719000E-02	-1.41297000E-02
					 3.25897000E-04	-6.30601000E-02	-2.75378000E-02
					-1.83205000E-04	-3.84512000E-02	-2.24298000E-02
					-2.07815000E-04	-6.31706000E-02	-1.43258000E-02
					-1.90131000E-04	-6.27299000E-02	-1.49651000E-03
					 1.01458000E-03	-6.39214000E-02	 2.44712000E-02
					-1.84233000E-04	-6.31500000E-02	-1.48074000E-03
					 4.47779000E-04	-6.43988000E-02	 2.45895000E-02
					-1.26689000E-04	-3.72516000E-02	-8.08374000E-04
					 4.04830000E-04	-6.31970000E-02	 1.12662000E-02
					 1.54242000E-03	-3.85214000E-02	 2.06268000E-02
					-1.36103000E-03	-6.25775000E-02	-2.75391000E-02
					-7.99394000E-04	-6.30035000E-02	-2.76285000E-02
					-1.75156000E-03	-3.76005000E-02	-2.23437000E-02
					-7.74934000E-04	-6.25500000E-02	-1.42728000E-02
					-3.69411000E-04	-1.22644000E-01	-3.13006000E-03
					-1.13033000E-03	-1.23766000E-01	 2.77339000E-02
					-3.67317000E-04	-1.23171000E-01	-3.24538000E-03
					-7.07721000E-04	-1.24396000E-01	 2.76797000E-02
					-2.70428000E-04	-9.16951000E-02	-2.16745000E-03
					-7.47953000E-04	-1.23144000E-01	 1.22024000E-02
					-1.07379000E-03	-9.29291000E-02	 2.68035000E-02
					-3.67225000E-04	-1.22966000E-01	-3.18846000E-03
					-9.21298000E-04	-1.24149000E-01	 2.76763000E-02
					-2.70861000E-04	-9.21343000E-02	-2.28620000E-03
					-5.60819000E-04	-1.23725000E-01	 1.20774000E-02
					-3.45566000E-04	-9.33622000E-02	 2.67694000E-02
					 3.52156000E-04	-1.21904000E-01	-3.40071000E-02
					-2.91954000E-05	-1.22430000E-01	-3.42171000E-02
					 5.24381000E-04	-9.12438000E-02	-3.11942000E-02
					-3.71258000E-06	-1.22228000E-01	-1.84594000E-02
					 1.59713000E-04	-1.22215000E-01	-3.40944000E-02
					-1.92523000E-04	-9.16569000E-02	-3.13944000E-02
					-1.97141000E-04	-1.22761000E-01	-1.85951000E-02
					-3.70972000E-04	-1.23296000E-01	-3.33677000E-03
					-3.74986000E-04	-1.24634000E-01	 2.75213000E-02
					-3.68559000E-04	-1.23300000E-01	-3.29527000E-03
					-5.43533000E-04	-1.24458000E-01	 2.76952000E-02
					-2.67798000E-04	-9.18317000E-02	-2.35815000E-03
					-3.40726000E-04	-1.23907000E-01	 1.18571000E-02
					 3.68654000E-04	-9.30788000E-02	 2.66178000E-02
					-4.11335000E-04	-1.22583000E-01	-3.42687000E-02
					-2.20289000E-04	-1.22549000E-01	-3.43352000E-02
					-9.38866000E-04	-9.13578000E-02	-3.13883000E-02
					-4.00516000E-04	-1.22912000E-01	-1.85806000E-02
					-4.66151000E-04	-1.86754000E-01	-5.22689000E-03
					-1.51648000E-03	-1.87597000E-01	 2.64618000E-02