<?xml version="1.0"?>
<VTKFile type="UnstructuredGrid" version="0.1" byte_order="LittleEndian">
	<UnstructuredGrid>
		<Piece NumberOfPoints="522" NumberOfCells="64">
			<Points>
				<DataArray type="Float64" NumberOfComponents="3" format="ascii">
					 1.00000000E+00	 1.00000000E+00	-5.96046000E-08
					 1.00000000E+00	 5.00000000E-01	-5.96046000E-08
					 1.00000000E+00	 5.00000000E-01	 1.00000000E+00
					 1.00000000E+00	 1.00000000E+00	 1.00000000E+00
					 5.00000000E-01	 1.00000000E+00	-5.96046000E-08
					 5.00000000E-01	 5.00000000E-01	-5.96046000E-08
					 5.00000000E-01	 5.00000000E-01	 1.00000000E+00
					 5.00000000E-01	 1.00000000E+00	 1.00000000E+00
					 1.00000000E+00	 7.50000000E-01	-5.96046000E-08
					 1.00000000E+00	 5.00000000E-01	 5.00000000E-01
					 1.00000000E+00	 7.50000000E-01	 1.00000000E+00
					 1.00000000E+00	 1.00000000E+00	 5.00000000E-01
					 7.50000000E-01	 1.00000000E+00	-5.96046000E-08
					 7.50000000E-01	 5.00000000E-01	-5.96046000E-08
					 7.50000000E-01	 5.00000000E-01	 1.00000000E+00
					 7.50000000E-01	 1.00000000E+00	 1.00000000E+00
					 5.00000000E-01	 7.50000000E-01	-5.96046000E-08
					 5.00000000E-01	 5.00000000E-01	 5.00000000E-01
					 5.00000000E-01	 7.50000000E-01	 1.00000000E+00
					 5.00000000E-01	 1.00000000E+00	 5.00000000E-01
					 1.00000000E+00	-1.49012000E-08	-5.96046000E-08
					 1.00000000E+00	-1.49012000E-08	 1.00000000E+00
					 5.00000000E-01	-1.49012000E-08	-5.96046000E-08
					 5.00000000E-01	-1.49012000E-08	 1.00000000E+00
					 1.00000000E+00	 2.50000000E-01	-5.96046000E-08
					 1.00000000E+00	-1.49012000E-08	 5.00000000E-01
					 1.00000000E+00	 2.50000000E-01	 1.00000000E+00
					 7.50000000E-01	-1.49012000E-08	-5.96046000E-08
					 7.50000000E-01	-1.49012000E-08	 1.00000000E+00
					 5.00000000E-01	 2.50000000E-01	-5.96046000E-08
					 5.00000000E-01	-1.49012000E-08	 5.00000000E-01
					 5.00000000E-01	 2.50000000E-01	 1.00000000E+00
					-7.45058000E-09	 1.00000000E+00	-5.96046000E-08
					-7.45058000E-09	 5.00000000E-01	-5.96046000E-08
					-7.45058000E-09	 5.00000000E-01	 1.00000000E+00
					-7.45058000E-09	 1.00000000E+00	 1.00000000E+00
					 2.50000000E-01	 1.00000000E+00	-5.96046000E-08
					 2.50000000E-01	 5.00000000E-01	-5.96046000E-08
					 2.50000000E-01	 5.00000000E-01	 1.00000000E+00
					 2.50000000E-01	 1.00000000E+00	 1.00000000E+00
					-7.45058000E-09	 7.50000000E-01	-5.96046000E-08
					-7.45058000E-09	 5.00000000E-01	 5.00000000E-01
					-7.45058000E-09	 7.50000000E-01	 1.00000000E+00
					-7.45058000E-09	 1.00000000E+00	 5.00000000E-01
					-7.45058000E-09	-1.49012000E-08	-5.96046000E-08
					-7.45058000E-09	-1.49012000E-08	 1.00000000E+00
					 2.50000000E-01	-1.49012000E-08	-5.96046000E-08
					 2.50000000E-01	-1.49012000E-08	 1.00000000E+00
					-7.45058000E-09	 2.50000000E-01	-5.96046000E-08
					-7.45058000E-09	-1.49012000E-08	 5.00000000E-01
					-7.45058000E-09	 2.50000000E-01	 1.00000000E+00
					 1.00000000E+00	 5.00000000E-01	 2.00000000E+00
					 1.00000000E+00	 1.00000000E+00	 2.00000000E+00
					 5.00000000E-01	 5.00000000E-01	 2.00000000E+00
					 5.00000000E-01	 1.00000000E+00	 2.00000000E+00
					 1.00000000E+00	 5.00000000E-01	 1.50000000E+00
					 1.00000000E+00	 7.50000000E-01	 2.00000000E+00
					 1.00000000E+00	 1.00000000E+00	 1.50000000E+00
					 7.50000000E-01	 5.00000000E-01	 2.00000000E+00
					 7.50000000E-01	 1.00000000E+00	 2.00000000E+00
					 5.00000000E-01	 5.00000000E-01	 1.50000000E+00
					 5.00000000E-01	 7.50000000E-01	 2.00000000E+00
					 5.00000000E-01	 1.00000000E+00	 1.50000000E+00
					 1.00000000E+00	-1.49012000E-08	 2.00000000E+00
					 5.00000000E-01	-1.49012000E-08	 2.00000000E+00
					 1.00000000E+00	-1.49012000E-08	 1.50000000E+00
					 1.00000000E+00	 2.50000000E-01	 2.00000000E+00
					 7.50000000E-01	-1.49012000E-08	 2.00000000E+00
					 5.00000000E-01	-1.49012000E-08	 1.50000000E+00
					 5.00000000E-01	 2.50000000E-01	 2.00000000E+00
					-7.45058000E-09	 5.00000000E-01	 2.00000000E+00
					-7.45058000E-09	 1.00000000E+00	 2.00000000E+00
					 2.50000000E-01	 5.00000000E-01	 2.00000000E+00
					 2.50000000E-01	 1.00000000E+00	 2.00000000E+00
					-7.45058000E-09	 5.00000000E-01	 1.50000000E+00
					-7.45058000E-09	 7.50000000E-01	 2.00000000E+00
					-7.45058000E-09	 1.00000000E+00	 1.50000000E+00
					-7.45058000E-09	-1.49012000E-08	 2.00000000E+00
					 2.50000000E-01	-1.49012000E-08	 2.00000000E+00
					-7.45058000E-09	-1.49012000E-08	 1.50000000E+00
					-7.45058000E-09	 2.50000000E-01	 2.00000000E+00
					 1.00000000E+00	 5.00000000E-01	 3.00000000E+00
					 1.00000000E+00	 1.00000000E+00	 3.00000000E+00
					 5.00000000E-01	 5.00000000E-01	 3.00000000E+00
					 5.00000000E-01	 1.00000000E+00	 3.00000000E+00
					 1.00000000E+00	 5.00000000E-01	 2.50000000E+00
					 1.00000000E+00	 7.50000000E-01	 3.00000000E+00
					 1.00000000E+00	 1.00000000E+00	 2.50000000E+00
					 7.50000000E-01	 5.00000000E-01	 3.00000000E+00
					 7.50000000E-01	 1.00000000E+00	 3.00000000E+00
					 5.00000000E-01	 5.00000000E-01	 2.50000000E+00
					 5.00000000E-01	 7.50000000E-01	 3.00000000E+00
					 5.00000000E-01	 1.00000000E+00	 2.50000000E+00
					 1.00000000E+00	-1.49012000E-08	 3.00000000E+00
					 5.00000000E-01	-1.49012000E-08	 3.00000000E+00
					 1.00000000E+00	-1.49012000E-08	 2.50000000E+00
					 1.00000000E+00	 2.50000000E-01	 3.00000000E+00
					 7.50000000E-01	-1.49012000E-08	 3.00000000E+00
					 5.00000000E-01	-1.49012000E-08	 2.50000000E+00
					 5.00000000E-01	 2.50000000E-01	 3.00000000E+00
					-7.45058000E-09	 5.00000000E-01	 3.00000000E+00
					-7.45058000E-09	 1.00000000E+00	 3.00000000E+00
					 2.50000000E-01	 5.00000000E-01	 3.00000000E+00
					 2.50000000E-01	 1.00000000E+00	 3.00000000E+00
					-7.45058000E-09	 5.00000000E-01	 2.50000000E+00
					-7.45058000E-09	 7.50000000E-01	 3.00000000E+00
					-7.45058000E-09	 1.00000000E+00	 2.50000000E+00
					-7.45058000E-09	-1.49012000E-08	 3.00000000E+00
					 2.50000000E-01	-1.49012000E-08	 3.00000000E+00
					-7.45058000E-09	-1.49012000E-08	 2.50000000E+00
					-7.45058000E-09	 2.50000000E-01	 3.00000000E+00
					 1.00000000E+00	 5.00000000E-01	 4.00000000E+00
					 1.00000000E+00	 1.00000000E+00	 4.00000000E+00
					 5.00000000E-01	 5.00000000E-01	 4.00000000E+00
					 5.00000000E-01	 1.00000000E+00	 4.00000000E+00
					 1.00000000E+00	 5.00000000E-01	 3.50000000E+00
					 1.00000000E+00	 7.50000000E-01	 4.00000000E+00
					 1.00000000E+00	 1.00000000E+00	 3.50000000E+00
					 7.50000000E-01	 5.00000000E-01	 4.00000000E+00
					 7.50000000E-01	 1.00000000E+00	 4.00000000E+00
					 5.00000000E-01	 5.00000000E-01	 3.50000000E+00
					 5.00000000E-01	 7.50000000E-01	 4.00000000E+00
					 5.00000000E-01	 1.00000000E+00	 3.50000000E+00
					 1.00000000E+00	-1.49012000E-08	 4.00000000E+00
					 5.00000000E-01	-1.49012000E-08	 4.00000000E+00
					 1.00000000E+00	-1.49012000E-08	 3.50000000E+00
					 1.00000000E+00	 2.50000000E-01	 4.00000000E+00
					 7.50000000E-01	-1.49012000E-08	 4.00000000E+00
					 5.00000000E-01	-1.49012000E-08	 3.50000000E+00
					 5.00000000E-01	 2.50000000E-01	 4.00000000E+00
					-7.45058000E-09	 5.00000000E-01	 4.00000000E+00
					-7.45058000E-09	 1.00000000E+00	 4.00000000E+00
					 2.50000000E-01	 5.00000000E-01	 4.00000000E+00
					 2.50000000E-01	 1.00000000E+00	 4.00000000E+00
					-7.45058000E-09	 5.00000000E-01	 3.50000000E+00
					-7.45058000E-09	 7.50000000E-01	 4.00000000E+00
					-7.45058000E-09	 1.00000000E+00	 3.50000000E+00
					-7.45058000E-09	-1.49012000E-08	 4.00000000E+00
					 2.50000000E-01	-1.49012000E-08	 4.00000000E+00
					-7.45058000E-09	-1.49012000E-08	 3.50000000E+00
					-7.45058000E-09	 2.50000000E-01	 4.00000000E+00
					 1.00000000E+00	 5.00000000E-01	 5.00000000E+00
					 1.00000000E+00	 1.00000000E+00	 5.00000000E+00
					 5.00000000E-01	 5.00000000E-01	 5.00000000E+00
					 5.00000000E-01	 1.00000000E+00	 5.00000000E+00
					 1.00000000E+00	 5.00000000E-01	 4.50000000E+00
					 1.00000000E+00	 7.50000000E-01	 5.00000000E+00
					 1.00000000E+00	 1.00000000E+00	 4.50000000E+00
					 7.50000000E-01	 5.00000000E-01	 5.00000000E+00
					 7.50000000E-01	 1.00000000E+00	 5.00000000E+00
					 5.00000000E-01	 5.00000000E-01	 4.50000000E+00
					 5.00000000E-01	 7.50000000E-01	 5.00000000E+00
					 5.00000000E-01	 1.00000000E+00	 4.50000000E+00
					 1.00000000E+00	-1.49012000E-08	 5.00000000E+00
					 5.00000000E-01	-1.49012000E-08	 5.00000000E+00
					 1.00000000E+00	-1.49012000E-08	 4.50000000E+00
					 1.00000000E+00	 2.50000000E-01	 5.00000000E+00
					 7.50000000E-01	-1.49012000E-08	 5.00000000E+00
					 5.00000000E-01	-1.49012000E-08	 4.50000000E+00
					 5.00000000E-01	 2.50000000E-01	 5.00000000E+00
					-7.45058000E-09	 5.00000000E-01	 5.00000000E+00
					-7.45058000E-09	 1.00000000E+00	 5.00000000E+00
					 2.50000000E-01	 5.00000000E-01	 5.00000000E+00
					 2.50000000E-01	 1.00000000E+00	 5.00000000E+00
					-7.45058000E-09	 5.00000000E-01	 4.50000000E+00
					-7.45058000E-09	 7.50000000E-01	 5.00000000E+00
					-7.45058000E-09	 1.00000000E+00	 4.50000000E+00
					-7.45058000E-09	-1.49012000E-08	 5.00000000E+00
					 2.50000000E-01	-1.49012000E-08	 5.00000000E+00
					-7.45058000E-09	-1.49012000E-08	 4.50000000E+00
					-7.45058000E-09	 2.50000000E-01	 5.00000000E+00
					 1.00000000E+00	 5.00000000E-01	 6.00000000E+00
					 1.00000000E+00	 1.00000000E+00	 6.00000000E+00
					 5.00000000E-01	 5.00000000E-01	 6.00000000E+00
					 5.00000000E-01	 1.00000000E+00	 6.00000000E+00
					 1.00000000E+00	 5.00000000E-01	 5.50000000E+00
					 1.00000000E+00	 7.50000000E-01	 6.00000000E+00
					 1.00000000E+00	 1.00000000E+00	 5.50000000E+00
					 7.50000000E-01	 5.00000000E-01	 6.00000000E+00
					 7.50000000E-01	 1.00000000E+00	 6.00000000E+00
					 5.00000000E-01	 5.00000000E-01	 5.50000000E+00
					 5.00000000E-01	 7.50000000E-01	 6.00000000E+00
					 5.00000000E-01	 1.00000000E+00	 5.50000000E+00
					 1.00000000E+00	-1.49012000E-08	 6.00000000E+00
[...]
			<PointData>
				<DataArray type="Float32" Name="U" NumberOfComponents="3" ComponentName0="D1" ComponentName1="D2" ComponentName2="D3" format="ascii">
					 0.00000000E+00	 0.00000000E+00	 0.00000000E+00
					 0.00000000E+00	 0.00000000E+00	 0.00000000E+00
					-1.24238000E-05	-1.21508000E-03	-1.52466000E-05
					 5.38046000E-04	-1.42434000E-03	 1.74041000E-03
					 0.00000000E+00	 0.00000000E+00	 0.00000000E+00
					 0.00000000E+00	 0.00000000E+00	 0.00000000E+00
					-1.66680000E-05	-4.45457000E-04	-2.32139000E-05
					 9.53799000E-04	-6.63063000E-04	 1.71692000E-03
					 0.00000000E+00	 0.00000000E+00	 0.00000000E+00
					-1.46934000E-06	-1.09168000E-04	-6.86978000E-06
					 2.62120000E-04	-1.26168000E-03	 8.66058000E-04
					 2.52570000E-04	-2.54076000E-04	 6.14025000E-04
					 0.00000000E+00	 0.00000000E+00	 0.00000000E+00
					 0.00000000E+00	 0.00000000E+00	 0.00000000E+00
					-1.48416000E-05	-8.87170000E-04	-2.00801000E-05
					 7.46971000E-04	-1.10097000E-03	 1.78191000E-03
					 0.00000000E+00	 0.00000000E+00	 0.00000000E+00
					-5.65487000E-06	 2.88817000E-04	-1.04704000E-05
					 4.68302000E-04	-4.94478000E-04	 9.07943000E-04
					 5.25006000E-04	 1.36680000E-04	 5.62278000E-04
					 0.00000000E+00	 0.00000000E+00	 0.00000000E+00
					-5.60576000E-04	-1.41454000E-03	-1.77325000E-03
					 0.00000000E+00	 0.00000000E+00	 0.00000000E+00
					-9.82645000E-04	-6.57649000E-04	-1.76481000E-03
					 0.00000000E+00	 0.00000000E+00	 0.00000000E+00
					-2.53064000E-04	-2.52545000E-04	-6.25769000E-04
					-2.86557000E-04	-1.25497000E-03	-8.96894000E-04
					 0.00000000E+00	 0.00000000E+00	 0.00000000E+00
					-7.72708000E-04	-1.09315000E-03	-1.82463000E-03
					 0.00000000E+00	 0.00000000E+00	 0.00000000E+00
					-5.31987000E-04	 1.33336000E-04	-5.82766000E-04
					-4.99948000E-04	-4.90627000E-04	-9.54851000E-04
					 0.00000000E+00	 0.00000000E+00	 0.00000000E+00
					 0.00000000E+00	 0.00000000E+00	 0.00000000E+00
					-1.84458000E-05	 7.20136000E-04	-2.91494000E-05
					 1.37157000E-03	 5.14707000E-04	 1.72628000E-03
					 0.00000000E+00	 0.00000000E+00	 0.00000000E+00
					 0.00000000E+00	 0.00000000E+00	 0.00000000E+00
					-1.79044000E-05	 7.94515000E-05	-2.56001000E-05
					 1.16116000E-03	-1.31121000E-04	 1.62901000E-03
					 0.00000000E+00	 0.00000000E+00	 0.00000000E+00
					-9.16691000E-06	 9.46623000E-04	-1.50167000E-05
					 6.77331000E-04	 6.75946000E-04	 9.98760000E-04
					 7.67171000E-04	 7.76534000E-04	 6.03919000E-04
					 0.00000000E+00	 0.00000000E+00	 0.00000000E+00
					-1.40282000E-03	 5.16268000E-04	-1.78532000E-03
					 0.00000000E+00	 0.00000000E+00	 0.00000000E+00
					-1.19167000E-03	-1.27356000E-04	-1.68041000E-03
					 0.00000000E+00	 0.00000000E+00	 0.00000000E+00
					-7.80402000E-04	 7.67652000E-04	-6.35444000E-04
					-7.12434000E-04	 6.76879000E-04	-1.05785000E-03
					-3.43845000E-05	-8.07998000E-03	-7.56783000E-05
					 8.66264000E-04	-8.32239000E-03	 4.82792000E-03
					-3.77791000E-05	-6.94307000E-03	-7.17307000E-05
					 1.32162000E-03	-7.19297000E-03	 4.83750000E-03
					-2.60671000E-05	-3.82060000E-03	-3.63644000E-05
					 4.18754000E-04	-8.14168000E-03	 2.34808000E-03
					 7.56471000E-04	-4.05724000E-03	 3.26483000E-03
					-3.64972000E-05	-7.56925000E-03	-7.37283000E-05
					 1.09443000E-03	-7.81621000E-03	 4.84056000E-03
					-2.96902000E-05	-2.80829000E-03	-4.09006000E-05
					 6.43882000E-04	-7.00808000E-03	 2.36026000E-03
					 1.21394000E-03	-3.03907000E-03	 3.25861000E-03
					-9.42061000E-04	-8.28631000E-03	-4.98314000E-03
					-1.40231000E-03	-7.14730000E-03	-4.98432000E-03
					-8.10734000E-04	-4.04107000E-03	-3.34447000E-03
					-4.89489000E-04	-8.12512000E-03	-2.49979000E-03
					-1.17346000E-03	-7.77472000E-03	-4.99242000E-03
					-1.27352000E-03	-3.01955000E-03	-3.34479000E-03
					-7.20749000E-04	-6.98579000E-03	-2.50435000E-03
					-3.82301000E-05	-5.35798000E-03	-6.47569000E-05
					 1.78950000E-03	-5.60072000E-03	 4.83659000E-03
					-3.83349000E-05	-6.20716000E-03	-6.91666000E-05
					 1.55533000E-03	-6.45888000E-03	 4.84430000E-03
					-3.05093000E-05	-1.33481000E-03	-4.23089000E-05
					 8.71400000E-04	-5.41964000E-03	 2.35620000E-03
					 1.70557000E-03	-1.54350000E-03	 3.25978000E-03
					-1.86868000E-03	-5.54666000E-03	-4.96831000E-03
					-1.63623000E-03	-6.40893000E-03	-4.98501000E-03
					-1.76543000E-03	-1.52097000E-03	-3.34581000E-03
					-9.48043000E-04	-5.39268000E-03	-2.48615000E-03
					-4.81554000E-05	-2.12756000E-02	-1.96102000E-04
					 1.18251000E-03	-2.15015000E-02	 7.38901000E-03
					-5.17905000E-05	-1.98638000E-02	-1.76585000E-04
					 1.53002000E-03	-2.00994000E-02	 7.41800000E-03
					-3.98510000E-05	-1.39562000E-02	-1.28905000E-04
					 5.68148000E-04	-2.13457000E-02	 3.53793000E-03
					 9.82628000E-04	-1.41869000E-02	 6.20368000E-03
					-4.98652000E-05	-2.06116000E-02	-1.87925000E-04
					 1.35578000E-03	-2.08447000E-02	 7.43893000E-03
					-4.43791000E-05	-1.27217000E-02	-1.17685000E-04
					 7.38203000E-04	-1.99401000E-02	 3.59756000E-03
					 1.38722000E-03	-1.29653000E-02	 6.22491000E-03
					-1.28574000E-03	-2.13865000E-02	-7.78412000E-03
					-1.63579000E-03	-1.99742000E-02	-7.77509000E-03
					-1.07056000E-03	-1.41144000E-02	-6.46218000E-03
					-6.66295000E-04	-2.12889000E-02	-3.93097000E-03
					-1.46067000E-03	-2.07226000E-02	-7.81774000E-03
					-1.48093000E-03	-1.28822000E-02	-6.46204000E-03
					-8.42144000E-04	-1.98766000E-02	-3.95185000E-03
					-5.14359000E-05	-1.81082000E-02	-1.50673000E-04
					 1.86962000E-03	-1.83520000E-02	 7.43038000E-03
					-5.26519000E-05	-1.90294000E-02	-1.63659000E-04
					 1.69824000E-03	-1.92653000E-02	 7.39881000E-03
					-4.55711000E-05	-1.10888000E-02	-1.02333000E-04
					 9.12035000E-04	-1.81889000E-02	 3.64263000E-03
					 1.78241000E-03	-1.13410000E-02	 6.22496000E-03
					-1.97034000E-03	-1.82251000E-02	-7.73694000E-03
					-1.80282000E-03	-1.91387000E-02	-7.73141000E-03
					-1.87541000E-03	-1.12515000E-02	-6.43246000E-03
					-1.01415000E-03	-1.81248000E-02	-3.94510000E-03
					-4.84737000E-05	-3.94299000E-02	-3.84774000E-04
					 1.86637000E-03	-3.96558000E-02	 9.20139000E-03
					-4.82386000E-05	-3.73758000E-02	-3.37924000E-04
					 2.14004000E-03	-3.76073000E-02	 9.25509000E-03
					-5.15118000E-05	-2.98360000E-02	-2.81242000E-04
					 9.10024000E-04	-3.95077000E-02	 4.33941000E-03
					 1.48904000E-03	-3.00605000E-02	 8.36408000E-03
					-4.88060000E-05	-3.84367000E-02	-3.61951000E-04
					 2.00285000E-03	-3.86676000E-02	 9.28452000E-03
					-5.34393000E-05	-2.81384000E-02	-2.48672000E-04
					 1.04567000E-03	-3.74572000E-02	 4.44682000E-03
					 1.79268000E-03	-2.83711000E-02	 8.40439000E-03
					-1.96478000E-03	-3.94661000E-02	-9.97901000E-03
					-2.23510000E-03	-3.74137000E-02	-9.93948000E-03
					-1.59616000E-03	-2.99072000E-02	-8.93281000E-03
					-1.00719000E-03	-3.94144000E-02	-5.11101000E-03
					-2.10040000E-03	-3.84735000E-02	-1.00168000E-02
					-1.89903000E-03	-2.82105000E-02	-8.90921000E-03
					-1.14114000E-03	-3.73603000E-02	-5.12475000E-03
					-4.33222000E-05	-3.50546000E-02	-2.84667000E-04
					 2.41208000E-03	-3.52882000E-02	 9.30284000E-03
					-4.66795000E-05	-3.62490000E-02	-3.12248000E-04
					 2.27517000E-03	-3.64810000E-02	 9.22584000E-03
					-5.10096000E-05	-2.61420000E-02	-2.09458000E-04
					 1.18389000E-03	-3.51375000E-02	 4.55004000E-03
					 2.08917000E-03	-2.63812000E-02	 8.43450000E-03
					-2.49607000E-03	-3.50941000E-02	-9.88096000E-03
					-2.36590000E-03	-3.62884000E-02	-9.85819000E-03
					-2.18670000E-03	-2.62217000E-02	-8.86214000E-03
					-1.26949000E-03	-3.50397000E-02	-5.12227000E-03
					-3.33919000E-05	-6.13898000E-02	-6.46860000E-04
					 2.76342000E-03	-6.16104000E-02	 1.05008000E-02
					-2.39119000E-05	-5.85069000E-02	-5.72590000E-04
					 2.94897000E-03	-5.87257000E-02	 1.05903000E-02
					-4.11069000E-05	-4.99717000E-02	-5.06979000E-04
					 1.36424000E-03	-6.14755000E-02	 4.82958000E-03
					 2.29224000E-03	-5.01960000E-02	 9.93096000E-03
					-2.97145000E-05	-5.99711000E-02	-6.10151000E-04
					 2.85550000E-03	-6.01914000E-02	 1.06129000E-02
					-3.73318000E-05	-4.75186000E-02	-4.46502000E-04
					 1.46256000E-03	-5.85924000E-02	 4.97782000E-03
					 2.53386000E-03	-4.77459000E-02	 1.00020000E-02
					-2.82453000E-03	-6.13483000E-02	-1.18011000E-02
					-2.99698000E-03	-5.84667000E-02	-1.17420000E-02
					-2.37251000E-03	-4.99698000E-02	-1.09534000E-02
					-1.42937000E-03	-6.13489000E-02	-6.12555000E-03
					-2.91067000E-03	-5.99294000E-02	-1.18395000E-02
					-2.60831000E-03	-4.75190000E-02	-1.09031000E-02
					-1.51011000E-03	-5.84659000E-02	-6.12493000E-03
					-1.18294000E-05	-5.54448000E-02	-4.90535000E-04
					 3.13676000E-03	-5.56671000E-02	 1.06578000E-02
					-1.75082000E-05	-5.69982000E-02	-5.32901000E-04
					 3.04303000E-03	-5.72172000E-02	 1.05732000E-02
					-2.97079000E-05	-4.48312000E-02	-3.78346000E-04
					 1.56319000E-03	-5.55338000E-02	 5.10469000E-03
					 2.77666000E-03	-4.50600000E-02	 1.00617000E-02
					-3.16712000E-03	-5.54000000E-02	-1.16456000E-02
					-3.08270000E-03	-5.69576000E-02	-1.16454000E-02
					-2.83901000E-03	-4.48273000E-02	-1.08259000E-02
					-1.58848000E-03	-5.53998000E-02	-6.08779000E-03
					-1.99266000E-05	-8.56957000E-02	-9.47290000E-04
					 3.67561000E-03	-8.58847000E-02	 1.09118000E-02
					-8.74800000E-07	-8.19840000E-02	-8.51785000E-04
					 3.74527000E-03	-8.21607000E-02	 1.10142000E-02
					-2.63181000E-05	-7.34200000E-02	-7.96279000E-04
					 1.82493000E-03	-8.57830000E-02	 4.91875000E-03
					 3.24378000E-03	-7.36261000E-02	 1.08027000E-02
					-1.15134000E-05	-8.38474000E-02	-8.99684000E-04
					 3.70976000E-03	-8.40288000E-02	 1.10183000E-02
					-1.15860000E-05	-7.01056000E-02	-7.09726000E-04
					 1.87171000E-03	-8.20661000E-02	 5.07317000E-03
					 3.35983000E-03	-7.03035000E-02	 1.09036000E-02
					-3.70495000E-03	-8.55748000E-02	-1.28086000E-02
					-3.74604000E-03	-8.18616000E-02	-1.27194000E-02
					-3.28768000E-03	-7.33359000E-02	-1.23992000E-02
					-1.86210000E-03	-8.56315000E-02	-6.81408000E-03
					-3.72519000E-03	-8.37239000E-02	-1.28198000E-02
					-3.38211000E-03	-7.00206000E-02	-1.23274000E-02
					-1.87322000E-03	-8.19194000E-02	-6.77722000E-03
					 1.86255000E-05	-7.82043000E-02	-7.52870000E-04
					 3.81993000E-03	-7.83856000E-02	 1.11076000E-02
					 1.00822000E-05	-8.01001000E-02	-8.02858000E-04
					 3.78360000E-03	-8.02770000E-02	 1.10105000E-02
					 4.67025000E-06	-6.66784000E-02	-6.17969000E-04
					 1.92022000E-03	-7.82898000E-02	 5.21986000E-03
					 3.47915000E-03	-6.68812000E-02	 1.09812000E-02
					-3.79125000E-03	-7.80784000E-02	-1.26144000E-02
					-3.76904000E-03	-7.99782000E-02	-1.26170000E-02
					-3.47706000E-03	-6.65911000E-02	-1.22220000E-02
					-1.88539000E-03	-7.81351000E-02	-6.72628000E-03
					-1.88932000E-05	-1.10374000E-01	-1.25249000E-03
					 4.29446000E-03	-1.10568000E-01	 1.09251000E-02
					 5.94123000E-06	-1.06045000E-01	-1.13809000E-03
					 4.35605000E-03	-1.06232000E-01	 1.10458000E-02
					-1.78552000E-05	-9.80040000E-02	-1.09702000E-03
					 2.13536000E-03	-1.10465000E-01	 4.80420000E-03
					 4.02124000E-03	-9.81954000E-02	 1.09291000E-02
					-8.37945000E-06	-1.08217000E-01	-1.19649000E-03
					 4.32419000E-03	-1.08406000E-01	 1.10177000E-02
					 5.03940000E-06	-9.39495000E-02	-9.94492000E-04
					 2.18099000E-03	-1.06132000E-01	 4.95641000E-03
					 4.08514000E-03	-9.41304000E-02	 1.10344000E-02
					-4.32628000E-03	-1.10240000E-01	-1.34313000E-02
					-4.34956000E-03	-1.05907000E-01	-1.33226000E-02
					-4.04787000E-03	-9.78749000E-02	-1.31255000E-02
					-2.17160000E-03	-1.10303000E-01	-7.30906000E-03
					-4.33853000E-03	-1.08080000E-01	-1.34120000E-02
					-4.07722000E-03	-9.38188000E-02	-1.30237000E-02
					-2.17074000E-03	-1.05971000E-01	-7.23283000E-03
					 3.27220000E-05	-1.01667000E-01	-1.02534000E-03
					 4.43105000E-03	-1.01858000E-01	 1.11590000E-02
					 2.08317000E-05	-1.03861000E-01	-1.08058000E-03
					 4.39423000E-03	-1.04050000E-01	 1.10709000E-02
					 2.87291000E-05	-8.98397000E-02	-8.89750000E-04
					 2.23206000E-03	-1.01757000E-01	 5.10294000E-03
					 4.15785000E-03	-9.00245000E-02	 1.11399000E-02
					-4.38161000E-03	-1.01513000E-01	-1.32098000E-02
					-4.36571000E-03	-1.03719000E-01	-1.32324000E-02
					-4.11312000E-03	-8.96989000E-02	-1.29179000E-02
					-2.17090000E-03	-1.01583000E-01	-7.15384000E-03
					 1.21359000E-05	-1.35293000E-01	-1.57947000E-03
					 4.62005000E-03	-1.35481000E-01	 1.07742000E-02
					 3.08105000E-05	-1.30712000E-01	-1.44121000E-03
					 4.63234000E-03	-1.30891000E-01	 1.09306000E-02
					-1.06862000E-05	-1.22849000E-01	-1.41758000E-03
					 2.31865000E-03	-1.35386000E-01	 4.58241000E-03
					 4.50060000E-03	-1.23032000E-01	 1.08839000E-02
					 2.12594000E-05	-1.33001000E-01	-1.50927000E-03
					 4.62591000E-03	-1.33186000E-01	 1.08605000E-02
					 1.29860000E-05	-1.18332000E-01	-1.28672000E-03
					 2.33422000E-03	-1.30800000E-01	 4.73734000E-03
					 4.54411000E-03	-1.18511000E-01	 1.10275000E-02
					-4.59219000E-03	-1.35134000E-01	-1.39298000E-02
					-4.57057000E-03	-1.30547000E-01	-1.38117000E-02
					-4.51819000E-03	-1.22695000E-01	-1.37172000E-02
					-2.29268000E-03	-1.35213000E-01	-7.74093000E-03
					-4.58081000E-03	-1.32840000E-01	-1.38757000E-02
					-4.52068000E-03	-1.18174000E-01	-1.36012000E-02
					-2.27264000E-03	-1.30630000E-01	-7.61942000E-03
					 5.16911000E-05	-1.26114000E-01	-1.31125000E-03
					 4.66774000E-03	-1.26286000E-01	 1.10622000E-02
					 4.08139000E-05	-1.28415000E-01	-1.37555000E-03
					 4.65025000E-03	-1.28592000E-01	 1.09973000E-02
					 3.84621000E-05	-1.13785000E-01	-1.16297000E-03
					 2.35873000E-03	-1.26198000E-01	 4.87089000E-03
					 4.60322000E-03	-1.13964000E-01	 1.11519000E-02
					-4.56891000E-03	-1.25941000E-01	-1.36871000E-02
					-4.57120000E-03	-1.28249000E-01	-1.37507000E-02
					-4.53697000E-03	-1.13615000E-01	-1.34807000E-02
					-2.25676000E-03	-1.26027000E-01	-7.49294000E-03
					 0.00000000E+00	 0.00000000E+00	 0.00000000E+00
					 0.00000000E+00	 0.00000000E+00	 0.00000000E+00
					 7.06259000E-05	-8.57097000E-03	 3.53797000E-05
					-1.79951000E-03	-9.00460000E-03	 7.69462000E-03
					 0.00000000E+00	 0.00000000E+00	 0.00000000E+00
					 0.00000000E+00	 0.00000000E+00	 0.00000000E+00
					 9.01943000E-05	-1.00216000E-02	 7.51612000E-05
					-9.44084000E-04	-1.04930000E-02	 7.85034000E-03
					 0.00000000E+00	 0.00000000E+00	 0.00000000E+00
					 1.75213000E-05	-2.00347000E-03	 2.44240000E-05
					-8.65156000E-04	-8.62822000E-03	 3.77463000E-03
					-1.68948000E-03	-2.69904000E-03	 4.15792000E-03
					 0.00000000E+00	 0.00000000E+00	 0.00000000E+00
					 0.00000000E+00	 0.00000000E+00	 0.00000000E+00
					 7.95061000E-05	-9.44876000E-03	 5.47253000E-05
					-1.36543000E-03	-9.90066000E-03	 7.70969000E-03
					 0.00000000E+00	 0.00000000E+00	 0.00000000E+00
					 2.96055000E-05	-3.06279000E-03	 4.37527000E-05
					-4.27813000E-04	-1.00897000E-02	 3.80023000E-03
					-5.26409000E-04	-3.76160000E-03	 4.09123000E-03
					 0.00000000E+00	 0.00000000E+00	 0.00000000E+00
					 1.93566000E-03	-8.82788000E-03	-7.64711000E-03
					 0.00000000E+00	 0.00000000E+00	 0.00000000E+00
					 1.12841000E-03	-1.03086000E-02	-7.72718000E-03
					 0.00000000E+00	 0.00000000E+00	 0.00000000E+00
					 1.71693000E-03	-2.61113000E-03	-4.11298000E-03
					 1.00585000E-03	-8.53868000E-03	-3.71187000E-03
					 0.00000000E+00	 0.00000000E+00	 0.00000000E+00
					 1.52508000E-03	-9.71931000E-03	-7.62490000E-03
					 0.00000000E+00	 0.00000000E+00	 0.00000000E+00
					 5.85161000E-04	-3.66512000E-03	-4.00494000E-03
					 6.09518000E-04	-9.99935000E-03	-3.65971000E-03
					 0.00000000E+00	 0.00000000E+00	 0.00000000E+00
					 0.00000000E+00	 0.00000000E+00	 0.00000000E+00
					 1.13976000E-04	-1.06427000E-02	 1.28089000E-04
					-8.74835000E-05	-1.10799000E-02	 7.78824000E-03
					 0.00000000E+00	 0.00000000E+00	 0.00000000E+00
					 0.00000000E+00	 0.00000000E+00	 0.00000000E+00
					 1.00930000E-04	-1.04842000E-02	 9.66074000E-05
					-5.23765000E-04	-1.09344000E-02	 7.91438000E-03
					 0.00000000E+00	 0.00000000E+00	 0.00000000E+00
					 5.15265000E-05	-3.11386000E-03	 8.20813000E-05
					 1.49396000E-05	-1.06982000E-02	 3.70507000E-03
					 6.76022000E-04	-3.78862000E-03	 4.21595000E-03
					 0.00000000E+00	 0.00000000E+00	 0.00000000E+00
					 3.20446000E-04	-1.08988000E-02	-7.55672000E-03
					 0.00000000E+00	 0.00000000E+00	 0.00000000E+00
					 7.29235000E-04	-1.07529000E-02	-7.74827000E-03
					 0.00000000E+00	 0.00000000E+00	 0.00000000E+00
					-5.72470000E-04	-3.67870000E-03	-4.05485000E-03
					 2.16088000E-04	-1.06144000E-02	-3.45659000E-03
					 2.45800000E-04	-2.96420000E-02	-8.79035000E-05
					-1.84123000E-03	-3.00428000E-02	 1.20330000E-02
					 2.65092000E-04	-3.14826000E-02	-3.60877000E-05
					-1.33247000E-03	-3.18846000E-02	 1.21193000E-02
					 1.51304000E-04	-1.79904000E-02	 2.50893000E-06
					-8.00263000E-04	-2.97940000E-02	 5.91479000E-03
					-1.89789000E-03	-1.84753000E-02	 1.02112000E-02
					 2.55132000E-04	-3.06115000E-02	-6.34230000E-05
					-1.58783000E-03	-3.10098000E-02	 1.20757000E-02
					 1.69063000E-04	-1.97054000E-02	 4.80414000E-05
					-5.28543000E-04	-3.16366000E-02	 5.98671000E-03
					-1.20836000E-03	-2.01940000E-02	 1.03028000E-02
					 2.33222000E-03	-2.97115000E-02	-1.22273000E-02
					 1.85514000E-03	-3.15557000E-02	-1.22086000E-02
					 2.19508000E-03	-1.82208000E-02	-1.02360000E-02
					 1.29097000E-03	-2.96326000E-02	-6.09503000E-03
					 2.09599000E-03	-3.06842000E-02	-1.22186000E-02
					 1.54710000E-03	-1.99374000E-02	-1.02353000E-02
					 1.06117000E-03	-3.14760000E-02	-6.06015000E-03
					 2.79675000E-04	-3.28320000E-02	 2.34451000E-05
					-8.05109000E-04	-3.32170000E-02	 1.21458000E-02
					 2.72521000E-04	-3.22037000E-02	-6.19913000E-06
					-1.06701000E-03	-3.26278000E-02	 1.21640000E-02
					 1.89793000E-04	-2.07488000E-02	 1.05095000E-04
					-2.66872000E-04	-3.29731000E-02	 6.00031000E-03
					-5.35033000E-04	-2.12506000E-02	 1.03169000E-02
					 1.38644000E-03	-3.29032000E-02	-1.21170000E-02
					 1.61992000E-03	-3.22770000E-02	-1.21957000E-02
					 9.30589000E-04	-2.10042000E-02	-1.01322000E-02
					 8.32124000E-04	-3.28205000E-02	-5.95421000E-03
					 4.76922000E-04	-5.70788000E-02	-4.01488000E-04
					-1.87850000E-03	-5.73581000E-02	 1.40216000E-02
					 4.90514000E-04	-5.93043000E-02	-3.27509000E-04
					-1.64728000E-03	-5.96921000E-02	 1.41270000E-02
					 3.56304000E-04	-4.28403000E-02	-2.25212000E-04
					-6.95362000E-04	-5.71886000E-02	 6.78652000E-03
					-1.79717000E-03	-4.32130000E-02	 1.32830000E-02
					 4.85479000E-04	-5.82234000E-02	-3.62241000E-04
					-1.76514000E-03	-5.85681000E-02	 1.40237000E-02
					 3.70084000E-04	-4.48203000E-02	-1.65822000E-04
					-6.00514000E-04	-5.94719000E-02	 6.81427000E-03
					-1.43634000E-03	-4.51974000E-02	 1.33802000E-02
					 2.78761000E-03	-5.69612000E-02	-1.48136000E-02
					 2.62303000E-03	-5.91897000E-02	-1.48059000E-02
					 2.49684000E-03	-4.28252000E-02	-1.37420000E-02
					 1.63496000E-03	-5.69936000E-02	-7.57968000E-03
					 2.70335000E-03	-5.80987000E-02	-1.47653000E-02
					 2.17407000E-03	-4.47859000E-02	-1.37213000E-02
					 1.55717000E-03	-5.92251000E-02	-7.49039000E-03
					 5.00550000E-04	-6.13426000E-02	-2.50039000E-04
					-1.49869000E-03	-6.18395000E-02	 1.41708000E-02
					 4.94849000E-04	-6.03636000E-02	-2.91194000E-04
					-1.57522000E-03	-6.06825000E-02	 1.42412000E-02
					 3.91142000E-04	-4.64497000E-02	-1.01293000E-04
					-4.71014000E-04	-6.15675000E-02	 6.78022000E-03
					-1.08554000E-03	-4.68461000E-02	 1.34133000E-02
					 2.45643000E-03	-6.12456000E-02	-1.47222000E-02
					 2.53821000E-03	-6.02405000E-02	-1.48507000E-02
					 1.82622000E-03	-4.64018000E-02	-1.36279000E-02
					 1.47348000E-03	-6.12821000E-02	-7.32480000E-03
					 8.33821000E-04	-8.64531000E-02	-7.96176000E-04
					-2.22699000E-03	-8.65125000E-02	 1.37272000E-02