<?xml version="1.0"?>
<VTKFile type="UnstructuredGrid" version="0.1" byte_order="LittleEndian">
	<UnstructuredGrid>
		<Piece NumberOfPoints="522" NumberOfCells="64">
			<Points>
				<DataArray type="Float64" NumberOfComponents="3" format="ascii">
					 1.00000000E+00	 1.00000000E+00	-5.96046000E-08
					 1.00000000E+00	 5.00000000E-01	-5.96046000E-08
					 1.00000000E+00	 5.00000000E-01	 1.00000000E+00
					 1.00000000E+00	 1.00000000E+00	 1.00000000E+00
					 5.00000000E-01	 1.00000000E+00	-5.96046000E-08
					 5.00000000E-01	 5.00000000E-01	-5.96046000E-08
					 5.00000000E-01	 5.00000000E-01	 1.00000000E+00
					 5.00000000E-01	 1.00000000E+00	 1.00000000E+00
					 1.00000000E+00	 7.50000000E-01	-5.96046000E-08
					 1.00000000E+00	 5.00000000E-01	 5.00000000E-01
					 1.00000000E+00	 7.50000000E-01	 1.00000000E+00
					 1.00000000E+00	 1.00000000E+00	 5.00000000E-01
					 7.50000000E-01	 1.00000000E+00	-5.96046000E-08
					 7.50000000E-01	 5.00000000E-01	-5.96046000E-08
					 7.50000000E-01	 5.00000000E-01	 1.00000000E+00
					 7.50000000E-01	 1.00000000E+00	 1.00000000E+00
					 5.00000000E-01	 7.50000000E-01	-5.96046000E-08
					 5.00000000E-01	 5.00000000E-01	 5.00000000E-01
					 5.00000000E-01	 7.50000000E-01	 1.00000000E+00
					 5.00000000E-01	 1.00000000E+00	 5.00000000E-01
					 1.00000000E+00	-1.49012000E-08	-5.96046000E-08
					 1.00000000E+00	-1.49012000E-08	 1.00000000E+00
					 5.00000000E-01	-1.49012000E-08	-5.96046000E-08
					 5.00000000E-01	-1.49012000E-08	 1.00000000E+00
					 1.00000000E+00	 2.50000000E-01	-5.96046000E-08
					 1.00000000E+00	-1.49012000E-08	 5.00000000E-01
					 1.00000000E+00	 2.50000000E-01	 1.00000000E+00
					 7.50000000E-01	-1.49012000E-08	-5.96046000E-08
					 7.50000000E-01	-1.49012000E-08	 1.00000000E+00
					 5.00000000E-01	 2.50000000E-01	-5.96046000E-08
					 5.00000000E-01	-1.49012000E-08	 5.00000000E-01
					 5.00000000E-01	 2.50000000E-01	 1.00000000E+00
					-7.45058000E-09	 1.00000000E+00	-5.96046000E-08
					-7.45058000E-09	 5.00000000E-01	-5.96046000E-08
					-7.45058000E-09	 5.00000000E-01	 1.00000000E+00
					-7.45058000E-09	 1.00000000E+00	 1.00000000E+00
					 2.50000000E-01	 1.00000000E+00	-5.96046000E-08
					 2.50000000E-01	 5.00000000E-01	-5.96046000E-08
					 2.50000000E-01	 5.00000000E-01	 1.00000000E+00
					 2.50000000E-01	 1.00000000E+00	 1.00000000E+00
					-7.45058000E-09	 7.50000000E-01	-5.96046000E-08
					-7.45058000E-09	 5.00000000E-01	 5.00000000E-01
					-7.45058000E-09	 7.50000000E-01	 1.00000000E+00
					-7.45058000E-09	 1.00000000E+00	 5.00000000E-01
					-7.45058000E-09	-1.49012000E-08	-5.96046000E-08
					-7.45058000E-09	-1.49012000E-08	 1.00000000E+00
					 2.50000000E-01	-1.49012000E-08	-5.96046000E-08
					 2.50000000E-01	-1.49012000E-08	 1.00000000E+00
					-7.45058000E-09	 2.50000000E-01	-5.96046000E-08
					-7.45058000E-09	-1.49012000E-08	 5.00000000E-01
					-7.45058000E-09	 2.50000000E-01	 1.00000000E+00
					 1.00000000E+00	 5.00000000E-01	 2.00000000E+00
					 1.00000000E+00	 1.00000000E+00	 2.00000000E+00
					 5.00000000E-01	 5.00000000E-01	 2.00000000E+00
					 5.00000000E-01	 1.00000000E+00	 2.00000000E+00
					 1.00000000E+00	 5.00000000E-01	 1.50000000E+00
					 1.00000000E+00	 7.50000000E-01	 2.00000000E+00
					 1.00000000E+00	 1.00000000E+00	 1.50000000E+00
					 7.50000000E-01	 5.00000000E-01	 2.00000000E+00
					 7.50000000E-01	 1.00000000E+00	 2.00000000E+00
					 5.00000000E-01	 5.00000000E-01	 1.50000000E+00
					 5.00000000E-01	 7.50000000E-01	 2.00000000E+00
					 5.00000000E-01	 1.00000000E+00	 1.50000000E+00
					 1.00000000E+00	-1.49012000E-08	 2.00000000E+00
					 5.00000000E-01	-1.49012000E-08	 2.00000000E+00
					 1.00000000E+00	-1.49012000E-08	 1.50000000E+00
					 1.00000000E+00	 2.50000000E-01	 2.00000000E+00
					 7.50000000E-01	-1.49012000E-08	 2.00000000E+00
					 5.00000000E-01	-1.49012000E-08	 1.50000000E+00
					 5.00000000E-01	 2.50000000E-01	 2.00000000E+00
					-7.45058000E-09	 5.00000000E-01	 2.00000000E+00
					-7.45058000E-09	 1.00000000E+00	 2.00000000E+00
					 2.50000000E-01	 5.00000000E-01	 2.00000000E+00
					 2.50000000E-01	 1.00000000E+00	 2.00000000E+00
					-7.45058000E-09	 5.00000000E-01	 1.50000000E+00
					-7.45058000E-09	 7.50000000E-01	 2.00000000E+00
					-7.45058000E-09	 1.00000000E+00	 1.50000000E+00
					-7.45058000E-09	-1.49012000E-08	 2.00000000E+00
					 2.50000000E-01	-1.49012000E-08	 2.00000000E+00
					-7.45058000E-09	-1.49012000E-08	 1.50000000E+00
					-7.45058000E-09	 2.50000000E-01	 2.00000000E+00
					 1.00000000E+00	 5.00000000E-01	 3.00000000E+00
					 1.00000000E+00	 1.00000000E+00	 3.00000000E+00
					 5.00000000E-01	 5.00000000E-01	 3.00000000E+00
					 5.00000000E-01	 1.00000000E+00	 3.00000000E+00
					 1.00000000E+00	 5.00000000E-01	 2.50000000E+00
					 1.00000000E+00	 7.50000000E-01	 3.00000000E+00
					 1.00000000E+00	 1.00000000E+00	 2.50000000E+00
					 7.50000000E-01	 5.00000000E-01	 3.00000000E+00
					 7.50000000E-01	 1.00000000E+00	 3.00000000E+00
					 5.00000000E-01	 5.00000000E-01	 2.50000000E+00
					 5.00000000E-01	 7.50000000E-01	 3.00000000E+00
					 5.00000000E-01	 1.00000000E+00	 2.50000000E+00
					 1.00000000E+00	-1.49012000E-08	 3.00000000E+00
					 5.00000000E-01	-1.49012000E-08	 3.00000000E+00
					 1.00000000E+00	-1.49012000E-08	 2.50000000E+00
					 1.00000000E+00	 2.50000000E-01	 3.00000000E+00
					 7.50000000E-01	-1.49012000E-08	 3.00000000E+00
					 5.00000000E-01	-1.49012000E-08	 2.50000000E+00
					 5.00000000E-01	 2.50000000E-01	 3.00000000E+00
					-7.45058000E-09	 5.00000000E-01	 3.00000000E+00
					-7.45058000E-09	 1.00000000E+00	 3.00000000E+00
					 2.50000000E-01	 5.00000000E-01	 3.00000000E+00
					 2.50000000E-01	 1.00000000E+00	 3.00000000E+00
					-7.45058000E-09	 5.00000000E-01	 2.50000000E+00
					-7.45058000E-09	 7.50000000E-01	 3.00000000E+00
					-7.45058000E-09	 1.00000000E+00	 2.50000000E+00
					-7.45058000E-09	-1.49012000E-08	 3.00000000E+00
					 2.50000000E-01	-1.49012000E-08	 3.00000000E+00
					-7.45058000E-09	-1.49012000E-08	 2.50000000E+00
					-7.45058000E-09	 2.50000000E-01	 3.00000000E+00
					 1.00000000E+00	 5.00000000E-01	 4.00000000E+00
					 1.00000000E+00	 1.00000000E+00	 4.00000000E+00
					 5.00000000E-01	 5.00000000E-01	 4.00000000E+00
					 5.00000000E-01	 1.00000000E+00	 4.00000000E+00
					 1.00000000E+00	 5.00000000E-01	 3.50000000E+00
					 1.00000000E+00	 7.50000000E-01	 4.00000000E+00
					 1.00000000E+00	 1.00000000E+00	 3.50000000E+00
					 7.50000000E-01	 5.00000000E-01	 4.00000000E+00
					 7.50000000E-01	 1.00000000E+00	 4.00000000E+00
					 5.00000000E-01	 5.00000000E-01	 3.50000000E+00
					 5.00000000E-01	 7.50000000E-01	 4.00000000E+00
					 5.00000000E-01	 1.00000000E+00	 3.50000000E+00
					 1.00000000E+00	-1.49012000E-08	 4.00000000E+00
					 5.00000000E-01	-1.49012000E-08	 4.00000000E+00
					 1.00000000E+00	-1.49012000E-08	 3.50000000E+00
					 1.00000000E+00	 2.50000000E-01	 4.00000000E+00
					 7.50000000E-01	-1.49012000E-08	 4.00000000E+00
					 5.00000000E-01	-1.49012000E-08	 3.50000000E+00
					 5.00000000E-01	 2.50000000E-01	 4.00000000E+00
					-7.45058000E-09	 5.00000000E-01	 4.00000000E+00
					-7.45058000E-09	 1.00000000E+00	 4.00000000E+00
					 2.50000000E-01	 5.00000000E-01	 4.00000000E+00
					 2.50000000E-01	 1.00000000E+00	 4.00000000E+00
					-7.45058000E-09	 5.00000000E-01	 3.50000000E+00
					-7.45058000E-09	 7.50000000E-01	 4.00000000E+00
					-7.45058000E-09	 1.00000000E+00	 3.50000000E+00
					-7.45058000E-09	-1.49012000E-08	 4.00000000E+00
					 2.50000000E-01	-1.49012000E-08	 4.00000000E+00
					-7.45058000E-09	-1.49012000E-08	 3.50000000E+00
					-7.45058000E-09	 2.50000000E-01	 4.00000000E+00
					 1.00000000E+00	 5.00000000E-01	 5.00000000E+00
					 1.00000000E+00	 1.00000000E+00	 5.00000000E+00
					 5.00000000E-01	 5.00000000E-01	 5.00000000E+00
					 5.00000000E-01	 1.00000000E+00	 5.00000000E+00
					 1.00000000E+00	 5.00000000E-01	 4.50000000E+00
					 1.00000000E+00	 7.50000000E-01	 5.00000000E+00
					 1.00000000E+00	 1.00000000E+00	 4.50000000E+00
					 7.50000000E-01	 5.00000000E-01	 5.00000000E+00
					 7.50000000E-01	 1.00000000E+00	 5.00000000E+00
					 5.00000000E-01	 5.00000000E-01	 4.50000000E+00
					 5.00000000E-01	 7.50000000E-01	 5.00000000E+00
					 5.00000000E-01	 1.00000000E+00	 4.50000000E+00
					 1.00000000E+00	-1.49012000E-08	 5.00000000E+00
					 5.00000000E-01	-1.49012000E-08	 5.00000000E+00
					 1.00000000E+00	-1.49012000E-08	 4.50000000E+00
					 1.00000000E+00	 2.50000000E-01	 5.00000000E+00
					 7.50000000E-01	-1.49012000E-08	 5.00000000E+00
					 5.00000000E-01	-1.49012000E-08	 4.50000000E+00
					 5.00000000E-01	 2.50000000E-01	 5.00000000E+00
					-7.45058000E-09	 5.00000000E-01	 5.00000000E+00
					-7.45058000E-09	 1.00000000E+00	 5.00000000E+00
					 2.50000000E-01	 5.00000000E-01	 5.00000000E+00
					 2.50000000E-01	 1.00000000E+00	 5.00000000E+00
					-7.45058000E-09	 5.00000000E-01	 4.50000000E+00
					-7.45058000E-09	 7.50000000E-01	 5.00000000E+00
					-7.45058000E-09	 1.00000000E+00	 4.50000000E+00
					-7.45058000E-09	-1.49012000E-08	 5.00000000E+00
					 2.50000000E-01	-1.49012000E-08	 5.00000000E+00
					-7.45058000E-09	-1.49012000E-08	 4.50000000E+00
					-7.45058000E-09	 2.50000000E-01	 5.00000000E+00
					 1.00000000E+00	 5.00000000E-01	 6.00000000E+00
					 1.00000000E+00	 1.00000000E+00	 6.00000000E+00
					 5.00000000E-01	 5.00000000E-01	 6.00000000E+00
					 5.00000000E-01	 1.00000000E+00	 6.00000000E+00
					 1.00000000E+00	 5.00000000E-01	 5.50000000E+00
					 1.00000000E+00	 7.50000000E-01	 6.00000000E+00
					 1.00000000E+00	 1.00000000E+00	 5.50000000E+00
					 7.50000000E-01	 5.00000000E-01	 6.00000000E+00
					 7.50000000E-01	 1.00000000E+00	 6.00000000E+00
					 5.00000000E-01	 5.00000000E-01	 5.50000000E+00
					 5.00000000E-01	 7.50000000E-01	 6.00000000E+00
					 5.00000000E-01	 1.00000000E+00	 5.50000000E+00
					 1.00000000E+00	-1.49012000E-08	 6.00000000E+00
[...]
			<PointData>
				<DataArray type="Float32" Name="U" NumberOfComponents="3" ComponentName0="D1" ComponentName1="D2" ComponentName2="D3" format="ascii">
					 0.00000000E+00	 0.00000000E+00	 0.00000000E+00
					 0.00000000E+00	 0.00000000E+00	 0.00000000E+00
					 4.82375000E-06	 4.82762000E-06	-1.30486000E-05
					-1.30041000E-05	-8.02131000E-06	 2.64237000E-06
					 0.00000000E+00	 0.00000000E+00	 0.00000000E+00
					 0.00000000E+00	 0.00000000E+00	 0.00000000E+00
					 2.80753000E-06	-8.32110000E-06	-8.93533000E-06
					-3.99376000E-06	-5.54940000E-06	-1.04736000E-05
					 0.00000000E+00	 0.00000000E+00	 0.00000000E+00
					-8.64294000E-07	-4.78551000E-06	 1.58270000E-05
					 2.62122000E-05	-1.11171000E-05	-5.37099000E-06
					 1.46346000E-05	 6.46220000E-06	-2.26616000E-05
					 0.00000000E+00	 0.00000000E+00	 0.00000000E+00
					 0.00000000E+00	 0.00000000E+00	 0.00000000E+00
					-9.77589000E-06	-3.53091000E-07	-1.23465000E-06
					-4.90155000E-06	 1.75310000E-05	-5.60453000E-06
					 0.00000000E+00	 0.00000000E+00	 0.00000000E+00
					 7.13682000E-07	 3.18336000E-06	 6.31609000E-06
					-4.45211000E-06	-4.34755000E-06	 2.54975000E-06
					-4.26854000E-06	-8.85097000E-06	-2.18747000E-06
					 0.00000000E+00	 0.00000000E+00	 0.00000000E+00
					-3.81555000E-06	-1.66036000E-05	 2.99933000E-06
					 0.00000000E+00	 0.00000000E+00	 0.00000000E+00
					 9.16426000E-06	-1.14817000E-05	 5.88960000E-06
					 0.00000000E+00	 0.00000000E+00	 0.00000000E+00
					-6.50671000E-06	 3.62935000E-06	 2.52881000E-06
					-3.39591000E-06	-6.24572000E-06	 3.74581000E-06
					 0.00000000E+00	 0.00000000E+00	 0.00000000E+00
					 1.22137000E-05	 2.06063000E-05	-1.97681000E-05
					 0.00000000E+00	 0.00000000E+00	 0.00000000E+00
					 8.64975000E-06	 1.27059000E-05	-1.21498000E-05
					-8.92949000E-06	-1.20320000E-05	-9.80487000E-06
					 0.00000000E+00	 0.00000000E+00	 0.00000000E+00
					 0.00000000E+00	 0.00000000E+00	 0.00000000E+00
					-5.32601000E-07	-5.70706000E-06	-4.50422000E-06
					 1.96567000E-05	 2.68387000E-06	-2.46724000E-06
					 0.00000000E+00	 0.00000000E+00	 0.00000000E+00
					 0.00000000E+00	 0.00000000E+00	 0.00000000E+00
					 1.97292000E-05	 3.03984000E-05	-9.79389000E-06
					 9.31662000E-06	 3.13042000E-06	-1.32937000E-05
					 0.00000000E+00	 0.00000000E+00	 0.00000000E+00
					-5.21059000E-06	 1.47397000E-05	-1.10430000E-07
					-2.58901000E-05	-1.43621000E-05	-3.61544000E-06
					 3.89812000E-07	-3.24105000E-05	 5.35028000E-06
					 0.00000000E+00	 0.00000000E+00	 0.00000000E+00
					 4.65744000E-06	-8.85163000E-06	-1.80468000E-05
					 0.00000000E+00	 0.00000000E+00	 0.00000000E+00
					-2.26996000E-07	 2.97878000E-05	 5.45499000E-07
					 0.00000000E+00	 0.00000000E+00	 0.00000000E+00
					-1.78000000E-05	 1.52135000E-06	-2.52802000E-07
					-1.71487000E-05	-2.51228000E-05	 3.62816000E-07
					 5.68844000E-06	-1.23349000E-05	-3.20735000E-06
					 1.07427000E-05	 5.07829000E-06	-2.03076000E-05
					-1.22772000E-06	 1.07738000E-05	-1.14176000E-05
					 4.53209000E-06	-1.09296000E-05	-1.34926000E-05
					 1.37002000E-05	 2.30478000E-06	-1.09184000E-05
					-2.74885000E-05	 2.73822000E-06	-2.26237000E-05
					-2.36632000E-07	 5.40511000E-06	-5.21457000E-06
					 3.41097000E-06	 7.02836000E-06	-2.01746000E-05
					 1.08737000E-05	 7.01839000E-07	-1.27193000E-05
					-2.84138000E-06	-1.92522000E-06	-8.45216000E-06
					-1.22908000E-06	-3.94854000E-06	-2.11235000E-05
					 1.06934000E-05	 1.01717000E-05	-1.36197000E-06
					-1.22031000E-05	 6.17876000E-07	-9.31752000E-06
					-3.97636000E-07	 1.20449000E-05	-2.01970000E-05
					 2.32254000E-05	-5.70821000E-07	-1.46745000E-05
					 2.00928000E-05	 1.29421000E-06	-2.62033000E-05
					-3.17598000E-06	-7.52341000E-06	-1.37102000E-05
					-5.38523000E-06	-9.57686000E-06	-4.49152000E-06
					 2.78302000E-06	-5.68896000E-06	-1.08061000E-05
					-1.54851000E-05	-4.60115000E-06	-1.98215000E-05
					 2.72497000E-06	 2.77534000E-06	-1.46316000E-05
					-3.33676000E-06	-1.65189000E-05	-1.02101000E-05
					-9.10690000E-06	 2.77561000E-05	-5.39626000E-07
					-1.15699000E-05	-1.67879000E-06	-6.60677000E-06
					 2.84417000E-06	-1.21132000E-05	-2.99140000E-05
					-1.95820000E-05	 6.79327000E-06	-1.50611000E-05
					 3.19038000E-06	-2.36296000E-05	-1.69531000E-05
					-1.44415000E-05	-2.55930000E-05	-1.47763000E-05
					-7.09431000E-06	-2.21397000E-06	 6.30542000E-06
					 1.24314000E-05	 3.28031000E-05	-1.42539000E-05
					 1.13521000E-06	-3.22124000E-06	-3.65618000E-05
					 1.54438000E-05	 5.37689000E-06	-4.16998000E-05
					 4.04665000E-06	-8.22838000E-06	-3.64584000E-05
					-1.75996000E-06	 2.21942000E-05	-4.93768000E-05
					-5.68751000E-06	-1.27259000E-05	-3.41914000E-05
					-1.27271000E-06	 8.25457000E-06	-3.98674000E-05
					-4.09092000E-06	 5.75783000E-06	-1.94816000E-05
					-7.53631000E-07	-8.96660000E-06	-3.23290000E-05
					 1.59760000E-05	-1.41663000E-05	-6.07014000E-05
					 1.49173000E-06	-4.19750000E-06	-2.97265000E-05
					-3.00569000E-06	-1.97228000E-06	-5.37842000E-05
					-8.71447000E-06	-8.17733000E-07	-4.07805000E-05
					 4.88132000E-06	 1.40910000E-05	-4.12622000E-05
					-1.20570000E-05	-1.36364000E-05	-2.30903000E-05
					 1.31598000E-06	-2.73743000E-06	-1.73944000E-05
					 7.74078000E-07	-1.69739000E-05	-2.75960000E-05
					-1.15087000E-05	-1.22340000E-06	 7.12929000E-06
					-9.52883000E-06	-5.46753000E-06	-2.22066000E-05
					 1.15216000E-05	 1.84080000E-05	-2.96750000E-05
					 5.52347000E-06	 1.06418000E-05	-3.53064000E-05
					-2.43278000E-05	-1.73010000E-05	-6.24495000E-05
					-1.13225000E-05	-2.46799000E-05	-3.07866000E-05
					 2.15268000E-06	-8.03314000E-06	-4.10599000E-05
					 6.32022000E-06	-1.36574000E-05	-2.99337000E-05
					-1.89939000E-06	 1.95373000E-05	-5.31224000E-05
					 1.26028000E-05	 2.32990000E-05	-3.04109000E-05
					-8.97847000E-06	 3.21547000E-05	-3.62996000E-06
					 1.03006000E-05	-2.39611000E-05	-3.21391000E-05
					 1.39951000E-05	-1.91452000E-05	-4.81023000E-05
					 5.77630000E-06	-7.31886000E-06	-2.55353000E-05
					-2.53056000E-05	 8.39782000E-05	-3.17356000E-05
					 1.16473000E-05	 4.19826000E-05	-1.21581000E-04
					-3.46752000E-06	 8.21675000E-05	-2.89528000E-05
					-7.28731000E-06	 7.76351000E-05	-1.23135000E-04
					-3.86991000E-06	 8.58364000E-06	-2.82350000E-05
					 2.62917000E-05	 6.92328000E-05	-8.28632000E-05
					 2.05263000E-05	 5.08735000E-06	-9.64707000E-05
					 5.33588000E-06	 8.06988000E-05	-1.35326000E-05
					-2.65728000E-05	 9.09423000E-05	-1.20354000E-04
					-2.48528000E-06	 6.10339000E-06	-3.47545000E-05
					-1.41200000E-06	 7.12841000E-05	-6.59366000E-05
					-5.00638000E-06	 1.90137000E-05	-6.37603000E-05
					-2.10498000E-05	 6.40086000E-05	 1.06911000E-04
					 1.12937000E-05	 8.73601000E-05	 9.03406000E-05
					-2.95209000E-05	 1.55858000E-05	 1.99345000E-05
					-2.93103000E-05	 7.71968000E-05	 5.96330000E-05
					-1.26809000E-05	 9.10821000E-05	 7.93648000E-05
					 7.29769000E-06	 1.83537000E-05	 6.68567000E-06
					-9.48503000E-06	 8.00469000E-05	 3.99100000E-05
					 1.61523000E-05	 5.33729000E-05	-1.53427000E-05
					-2.89253000E-05	 6.85429000E-05	-1.15428000E-04
					-5.09448000E-06	 9.80929000E-05	-2.90284000E-05
					-1.66278000E-05	 7.34459000E-05	-1.65213000E-04
					 3.04420000E-06	 6.22973000E-06	-2.85388000E-05
					 1.40723000E-05	 5.36778000E-05	-4.29083000E-05
					-1.26422000E-05	-1.21490000E-07	-6.58255000E-05
					 2.04160000E-05	 8.10143000E-05	 9.02731000E-05
					 3.33692000E-05	 1.03745000E-04	 1.21451000E-04
					 1.60553000E-05	 1.83728000E-05	 3.19708000E-05
					 1.59494000E-06	 5.21695000E-05	 3.69662000E-05
					 4.93028000E-06	 7.51419000E-04	 6.53197000E-05
					-9.36013000E-05	 6.61957000E-04	-4.41239000E-05
					 7.52093000E-06	 6.49172000E-04	 6.61433000E-05
					-6.44654000E-05	 5.95155000E-04	-5.83504000E-05
					-5.68250000E-06	 3.66156000E-04	 2.06139000E-05
					-8.67329000E-05	 7.20443000E-04	 6.89271000E-05
					-1.16457000E-05	 3.14677000E-04	-1.55399000E-04
					-1.89714000E-06	 7.12412000E-04	 4.07957000E-05
					-7.62660000E-05	 6.58165000E-04	-5.63451000E-05
					 4.43920000E-06	 3.46602000E-04	 1.84248000E-05
					-2.61121000E-05	 6.35623000E-04	 4.85811000E-05
					-5.47224000E-06	 3.19317000E-04	-1.96839000E-04
					 1.16030000E-04	 7.24299000E-04	 1.21054000E-04
					 7.42032000E-05	 6.19758000E-04	 1.55645000E-04
					 4.20890000E-06	 3.20681000E-04	 1.91977000E-04
					 6.29790000E-05	 7.40424000E-04	 1.20914000E-05
					 1.03317000E-04	 6.48989000E-04	 1.35305000E-04
					 2.48696000E-05	 3.42806000E-04	 2.22868000E-04
					 4.88592000E-05	 6.59877000E-04	 5.46660000E-05
					 1.56247000E-05	 6.15249000E-04	 4.17584000E-05
					-7.04974000E-07	 5.50269000E-04	-5.15438000E-05
					 1.02593000E-05	 6.17934000E-04	 5.75381000E-05
					-2.38038000E-05	 5.84642000E-04	-1.70527000E-05
					 1.27614000E-05	 3.10918000E-04	 1.87064000E-05
					 1.08485000E-05	 5.99926000E-04	 5.00012000E-05
					-2.02192000E-05	 2.88930000E-04	-1.75832000E-04
					 2.22665000E-05	 5.67511000E-04	 1.34800000E-04
					 4.78882000E-05	 5.94352000E-04	 1.19596000E-04
					 5.18158000E-05	 3.07930000E-04	 2.03335000E-04
					 3.56867000E-05	 6.08267000E-04	 1.04452000E-05
					 4.41199000E-05	 8.90451000E-04	 4.91502000E-06
					-8.19663000E-04	 7.61683000E-04	 1.30120000E-03
					-1.74147000E-06	 2.92598000E-04	 7.43326000E-07
					-4.28747000E-04	 1.82928000E-04	 1.30351000E-03
					 3.25583000E-07	 1.17460000E-03	 3.26738000E-05
					-3.44307000E-04	 8.53368000E-04	 7.60284000E-04
					-4.36755000E-04	 1.09182000E-03	 4.71222000E-04
					 1.23235000E-05	 5.37862000E-04	 8.95273000E-06
					-6.22800000E-04	 3.87080000E-04	 1.25661000E-03
					-1.13086000E-06	 8.41550000E-04	 5.75730000E-05
					-1.88357000E-04	 2.74943000E-04	 6.80196000E-04
					-2.68895000E-04	 7.36426000E-04	 4.63366000E-04
					 7.70861000E-04	 7.25783000E-04	-1.31717000E-03
					 4.15446000E-04	 1.26753000E-04	-1.26586000E-03
					 4.09180000E-04	 1.08394000E-03	-3.97608000E-04
					 3.93611000E-04	 8.61071000E-04	-7.12241000E-04
					 6.01795000E-04	 3.68936000E-04	-1.22751000E-03
					 2.42692000E-04	 7.31855000E-04	-3.65792000E-04
					 1.91682000E-04	 2.38620000E-04	-6.64652000E-04
					-1.76579000E-05	 5.70239000E-05	 3.61745000E-05
					-9.19139000E-05	-6.31123000E-05	 1.35817000E-03
					-1.89146000E-06	 1.08551000E-04	 2.62107000E-05
					-2.76018000E-04	-4.15056000E-05	 1.35875000E-03
					-1.86729000E-06	 7.07608000E-04	 4.16677000E-05
					-1.07532000E-04	 2.72843000E-05	 6.72766000E-04
					-2.81697000E-05	 6.47739000E-04	 4.81838000E-04
					 5.11512000E-05	-1.02849000E-04	-1.26752000E-03
					 2.22911000E-04	-5.52513000E-05	-1.30791000E-03
					-1.76170000E-05	 6.24548000E-04	-4.24759000E-04
					 1.82073000E-05	 1.05799000E-06	-5.79220000E-04
					-2.57430000E-07	-3.66316000E-03	 1.65182000E-05
					-1.25461000E-03	-3.71707000E-03	 3.34304000E-03
					-4.08730000E-06	-4.69167000E-03	-2.46082000E-05
					-9.72131000E-04	-4.78077000E-03	 3.32815000E-03
					 2.38973000E-05	-8.11262000E-04	-2.74876000E-05
					-6.32968000E-04	-3.66825000E-03	 1.68875000E-03
					-9.73666000E-04	-9.35601000E-04	 2.35619000E-03
					-5.22438000E-06	-4.22145000E-03	-1.51660000E-05
					-1.09984000E-03	-4.33682000E-03	 3.26765000E-03
					 7.96004000E-06	-1.68747000E-03	-2.14030000E-05
					-4.82131000E-04	-4.69569000E-03	 1.60115000E-03
					-6.63568000E-04	-1.77120000E-03	 2.40161000E-03
					 1.18147000E-03	-3.58557000E-03	-3.31530000E-03
					 9.14212000E-04	-4.81090000E-03	-3.44492000E-03
					 1.08821000E-03	-9.23842000E-04	-2.40543000E-03
					 5.25999000E-04	-3.61483000E-03	-1.65655000E-03
					 1.04448000E-03	-4.29608000E-03	-3.34748000E-03
					 7.04799000E-04	-1.80576000E-03	-2.49315000E-03
					 4.63751000E-04	-4.70945000E-03	-1.64534000E-03
					 3.70325000E-05	-5.52563000E-03	 2.94783000E-05
					-7.75058000E-04	-5.63554000E-03	 3.30386000E-03
					 3.42344000E-05	-5.12377000E-03	-2.79617000E-05
					-8.75008000E-04	-5.25017000E-03	 3.35241000E-03
					-3.09886000E-05	-2.14831000E-03	 2.98192000E-05
					-3.18465000E-04	-5.56938000E-03	 1.58240000E-03
					-3.17098000E-04	-2.34007000E-03	 2.40260000E-03
					 8.18860000E-04	-5.64457000E-03	-3.32804000E-03
					 8.68540000E-04	-5.28604000E-03	-3.38705000E-03
					 3.41051000E-04	-2.22998000E-03	-2.34581000E-03
					 4.64272000E-04	-5.55578000E-03	-1.60084000E-03
					 1.88626000E-04	-1.16832000E-02	-2.55113000E-04
					-9.32905000E-04	-1.19593000E-02	 4.20851000E-03
					-5.11990000E-05	-1.27649000E-02	 1.42562000E-04
					-1.01891000E-03	-1.29535000E-02	 3.94086000E-03
					 7.25634000E-06	-7.43091000E-03	-4.57663000E-05
					-3.07526000E-04	-1.18197000E-02	 1.79790000E-03
					-1.12967000E-03	-7.36028000E-03	 3.88480000E-03
					 6.02719000E-05	-1.21555000E-02	-3.73563000E-05
					-9.90919000E-04	-1.25079000E-02	 4.13236000E-03
					 1.68853000E-05	-8.60517000E-03	 3.12470000E-05
					-5.65181000E-04	-1.28502000E-02	 1.96567000E-03
					-1.01017000E-03	-8.69536000E-03	 3.85446000E-03
					 1.16649000E-03	-1.13733000E-02	-4.06947000E-03
					 1.15862000E-03	-1.26756000E-02	-4.10996000E-03
					 1.11448000E-03	-7.53499000E-03	-3.84217000E-03
					 7.25157000E-04	-1.15055000E-02	-2.15948000E-03
					 1.16954000E-03	-1.19763000E-02	-4.01332000E-03
					 1.04933000E-03	-8.53900000E-03	-3.88182000E-03
					 5.05610000E-04	-1.27173000E-02	-1.98778000E-03
					-7.84156000E-05	-1.37078000E-02	-2.54453000E-06
					-1.18996000E-03	-1.37597000E-02	 3.64468000E-03
					-7.64834000E-05	-1.32015000E-02	 4.04519000E-05
					-1.10375000E-03	-1.32447000E-02	 3.82907000E-03
					-5.69347000E-05	-9.57925000E-03	 4.34322000E-06
					-6.12523000E-04	-1.37547000E-02	 1.82570000E-03
					-9.59417000E-04	-9.64379000E-03	 3.65028000E-03
					 1.21679000E-03	-1.41810000E-02	-4.27699000E-03
					 1.15905000E-03	-1.33608000E-02	-4.14122000E-03
					 9.55076000E-04	-9.61495000E-03	-3.94523000E-03
					 5.27113000E-04	-1.39118000E-02	-1.97496000E-03
					 0.00000000E+00	 0.00000000E+00	 0.00000000E+00
					 0.00000000E+00	 0.00000000E+00	 0.00000000E+00
					 1.84940000E-04	-1.16126000E-02	-1.96845000E-04
					-2.67902000E-03	-1.26947000E-02	 1.26222000E-02
					 0.00000000E+00	 0.00000000E+00	 0.00000000E+00
					 0.00000000E+00	 0.00000000E+00	 0.00000000E+00
					 9.89018000E-05	-1.34383000E-02	-2.91195000E-04
					-9.43418000E-04	-1.45172000E-02	 1.27179000E-02
					 0.00000000E+00	 0.00000000E+00	 0.00000000E+00
					 3.89907000E-05	-2.06776000E-03	-6.73958000E-05
					-1.24132000E-03	-1.18520000E-02	 6.20387000E-03
					-2.36283000E-03	-3.18446000E-03	 6.24652000E-03
					 0.00000000E+00	 0.00000000E+00	 0.00000000E+00
					 0.00000000E+00	 0.00000000E+00	 0.00000000E+00
					 1.28511000E-04	-1.28076000E-02	-2.24884000E-04
					-1.77931000E-03	-1.39498000E-02	 1.25298000E-02
					 0.00000000E+00	 0.00000000E+00	 0.00000000E+00
					 2.27088000E-05	-3.35443000E-03	-6.62539000E-05
					-4.67322000E-04	-1.36675000E-02	 6.11909000E-03
					-4.28511000E-04	-4.52488000E-03	 6.06691000E-03
					 0.00000000E+00	 0.00000000E+00	 0.00000000E+00
					 2.96622000E-03	-1.21450000E-02	-1.31110000E-02
					 0.00000000E+00	 0.00000000E+00	 0.00000000E+00
					 1.12887000E-03	-1.40518000E-02	-1.32890000E-02
					 0.00000000E+00	 0.00000000E+00	 0.00000000E+00
					 2.50717000E-03	-3.03747000E-03	-6.48438000E-03
					 1.55184000E-03	-1.15616000E-02	-6.65555000E-03
					 0.00000000E+00	 0.00000000E+00	 0.00000000E+00
					 2.04623000E-03	-1.34848000E-02	-1.30941000E-02
					 0.00000000E+00	 0.00000000E+00	 0.00000000E+00
					 4.42516000E-04	-4.40537000E-03	-6.24778000E-03
					 6.41254000E-04	-1.34342000E-02	-6.66597000E-03
					 0.00000000E+00	 0.00000000E+00	 0.00000000E+00
					 0.00000000E+00	 0.00000000E+00	 0.00000000E+00
					 1.72419000E-05	-1.35241000E-02	-1.86005000E-04
					 9.25630000E-04	-1.44189000E-02	 1.26386000E-02
					 0.00000000E+00	 0.00000000E+00	 0.00000000E+00
					 0.00000000E+00	 0.00000000E+00	 0.00000000E+00
					 7.10402000E-05	-1.38374000E-02	-2.67729000E-04
					-3.00423000E-05	-1.47904000E-02	 1.27630000E-02
					 0.00000000E+00	 0.00000000E+00	 0.00000000E+00
					-9.23109000E-06	-2.93639000E-03	-4.89437000E-05
					 4.40402000E-04	-1.36523000E-02	 6.05661000E-03
					 1.46697000E-03	-4.06078000E-03	 6.26966000E-03
					 0.00000000E+00	 0.00000000E+00	 0.00000000E+00
					-7.06700000E-04	-1.41458000E-02	-1.31005000E-02
					 0.00000000E+00	 0.00000000E+00	 0.00000000E+00
					 2.16441000E-04	-1.43650000E-02	-1.32795000E-02
					 0.00000000E+00	 0.00000000E+00	 0.00000000E+00
					-1.46720000E-03	-3.95894000E-03	-6.38488000E-03
					-4.25667000E-04	-1.35172000E-02	-6.44734000E-03
					 3.19631000E-04	-4.92294000E-02	-1.06367000E-03
					-3.47236000E-03	-5.05771000E-02	 2.30076000E-02
					 1.87060000E-04	-5.21829000E-02	-1.10208000E-03
					-1.97215000E-03	-5.33798000E-02	 2.29008000E-02
					 1.67620000E-04	-2.75859000E-02	-5.31708000E-04
					-1.56706000E-03	-4.97437000E-02	 1.09321000E-02
					-3.07051000E-03	-2.87690000E-02	 1.82447000E-02
					 2.54723000E-04	-5.08801000E-02	-1.09677000E-03
					-2.71602000E-03	-5.21472000E-02	 2.28869000E-02
					 1.36188000E-04	-2.99591000E-02	-5.73775000E-04
					-8.86662000E-04	-5.25954000E-02	 1.08202000E-02
					-1.39793000E-03	-3.11755000E-02	 1.82548000E-02
					 3.92010000E-03	-4.92840000E-02	-2.51059000E-02
					 2.28411000E-03	-5.23354000E-02	-2.53433000E-02
					 3.46084000E-03	-2.79997000E-02	-1.93570000E-02
					 2.06430000E-03	-4.91114000E-02	-1.30500000E-02
					 3.09856000E-03	-5.09842000E-02	-2.51908000E-02
					 1.70575000E-03	-3.04475000E-02	-1.95230000E-02
					 1.23633000E-03	-5.20944000E-02	-1.31161000E-02
					 1.96087000E-04	-5.36455000E-02	-1.10071000E-03
					-6.49894000E-04	-5.48763000E-02	 2.29422000E-02
					 2.05275000E-04	-5.30540000E-02	-1.11124000E-03
					-1.32361000E-03	-5.42880000E-02	 2.30519000E-02
					 1.17971000E-04	-3.06735000E-02	-5.29744000E-04
					-1.72010000E-04	-5.41188000E-02	 1.07111000E-02
					 1.93109000E-04	-3.19591000E-02	 1.82887000E-02
					 8.42240000E-04	-5.38115000E-02	-2.52830000E-02
					 1.54305000E-03	-5.32583000E-02	-2.53964000E-02
					 5.60599000E-05	-3.12101000E-02	-1.95026000E-02
					 5.26932000E-04	-5.35531000E-02	-1.30089000E-02
					 4.61674000E-04	-1.06416000E-01	-2.86780000E-03
					-4.04681000E-03	-1.08049000E-01	 2.95262000E-02
					 3.83767000E-04	-1.10259000E-01	-2.91731000E-03
					-2.82657000E-03	-1.11935000E-01	 2.94951000E-02
					 3.05974000E-04	-7.58037000E-02	-1.83398000E-03
					-1.75747000E-03	-1.07069000E-01	 1.33304000E-02
					-3.72864000E-03	-7.71850000E-02	 2.66695000E-02
					 4.19956000E-04	-1.08495000E-01	-2.90922000E-03
					-3.44759000E-03	-1.10193000E-01	 2.94842000E-02
					 3.06844000E-04	-7.91159000E-02	-1.94249000E-03
					-1.22816000E-03	-1.10996000E-01	 1.31743000E-02
					-2.46911000E-03	-8.05700000E-02	 2.66263000E-02
					 4.68343000E-03	-1.06037000E-01	-3.52361000E-02
					 3.67647000E-03	-1.09743000E-01	-3.54221000E-02
					 4.13777000E-03	-7.57328000E-02	-3.03841000E-02
					 2.61045000E-03	-1.06075000E-01	-1.90305000E-02
					 4.22209000E-03	-1.07931000E-01	-3.52948000E-02
					 2.99130000E-03	-7.89381000E-02	-3.05625000E-02
					 1.99952000E-03	-1.09872000E-01	-1.90785000E-02
					 4.31380000E-04	-1.13075000E-01	-3.10592000E-03
					-1.94606000E-03	-1.14792000E-01	 2.94045000E-02
					 3.90394000E-04	-1.11787000E-01	-2.99308000E-03
					-2.37030000E-03	-1.13341000E-01	 2.95363000E-02
					 2.54331000E-04	-8.12489000E-02	-1.95100000E-03
					-6.98913000E-04	-1.13756000E-01	 1.29600000E-02
					-1.26522000E-03	-8.27736000E-02	 2.65296000E-02
					 2.46771000E-03	-1.12636000E-01	-3.55468000E-02
					 3.09532000E-03	-1.11311000E-01	-3.56420000E-02
					 1.76014000E-03	-8.10654000E-02	-3.05324000E-02
					 1.45348000E-03	-1.12780000E-01	-1.91107000E-02
					 7.15101000E-04	-1.77900000E-01	-5.42060000E-03
					-4.21170000E-03	-1.79503000E-01	 3.25677000E-02