# vtk DataFile Version 3.0

ASCII
DATASET UNSTRUCTURED_GRID

POINTS 522 double
	 1.00000000E+00	 1.00000000E+00	-5.96046000E-08
	 1.00000000E+00	 5.00000000E-01	-5.96046000E-08
	 1.00000000E+00	 5.00000000E-01	 1.00000000E+00
	 1.00000000E+00	 1.00000000E+00	 1.00000000E+00
	 5.00000000E-01	 1.00000000E+00	-5.96046000E-08
	 5.00000000E-01	 5.00000000E-01	-5.96046000E-08
	 5.00000000E-01	 5.00000000E-01	 1.00000000E+00
	 5.00000000E-01	 1.00000000E+00	 1.00000000E+00
	 1.00000000E+00	 7.50000000E-01	-5.96046000E-08
	 1.00000000E+00	 5.00000000E-01	 5.00000000E-01
	 1.00000000E+00	 7.50000000E-01	 1.00000000E+00
	 1.00000000E+00	 1.00000000E+00	 5.00000000E-01
	 7.50000000E-01	 1.00000000E+00	-5.96046000E-08
	 7.50000000E-01	 5.00000000E-01	-5.96046000E-08
	 7.50000000E-01	 5.00000000E-01	 1.00000000E+00
	 7.50000000E-01	 1.00000000E+00	 1.00000000E+00
	 5.00000000E-01	 7.50000000E-01	-5.96046000E-08
	 5.00000000E-01	 5.00000000E-01	 5.00000000E-01
	 5.00000000E-01	 7.50000000E-01	 1.00000000E+00
	 5.00000000E-01	 1.00000000E+00	 5.00000000E-01
	 1.00000000E+00	-1.49012000E-08	-5.96046000E-08
	 1.00000000E+00	-1.49012000E-08	 1.00000000E+00
	 5.00000000E-01	-1.49012000E-08	-5.96046000E-08
	 5.00000000E-01	-1.49012000E-08	 1.00000000E+00
	 1.00000000E+00	 2.50000000E-01	-5.96046000E-08
	 1.00000000E+00	-1.49012000E-08	 5.00000000E-01
	 1.00000000E+00	 2.50000000E-01	 1.00000000E+00
	 7.50000000E-01	-1.49012000E-08	-5.96046000E-08
	 7.50000000E-01	-1.49012000E-08	 1.00000000E+00
	 5.00000000E-01	 2.50000000E-01	-5.96046000E-08
	 5.00000000E-01	-1.49012000E-08	 5.00000000E-01
	 5.00000000E-01	 2.50000000E-01	 1.00000000E+00
	-7.45058000E-09	 1.00000000E+00	-5.96046000E-08
	-7.45058000E-09	 5.00000000E-01	-5.96046000E-08
	-7.45058000E-09	 5.00000000E-01	 1.00000000E+00
	-7.45058000E-09	 1.00000000E+00	 1.00000000E+00
	 2.50000000E-01	 1.00000000E+00	-5.96046000E-08
	 2.50000000E-01	 5.00000000E-01	-5.96046000E-08
	 2.50000000E-01	 5.00000000E-01	 1.00000000E+00
	 2.50000000E-01	 1.00000000E+00	 1.00000000E+00
	-7.45058000E-09	 7.50000000E-01	-5.96046000E-08
	-7.45058000E-09	 5.00000000E-01	 5.00000000E-01
	-7.45058000E-09	 7.50000000E-01	 1.00000000E+00
	-7.45058000E-09	 1.00000000E+00	 5.00000000E-01
	-7.45058000E-09	-1.49012000E-08	-5.96046000E-08
	-7.45058000E-09	-1.49012000E-08	 1.00000000E+00
	 2.50000000E-01	-1.49012000E-08	-5.96046000E-08
	 2.50000000E-01	-1.49012000E-08	 1.00000000E+00
	-7.45058000E-09	 2.50000000E-01	-5.96046000E-08
	-7.45058000E-09	-1.49012000E-08	 5.00000000E-01
	-7.45058000E-09	 2.50000000E-01	 1.00000000E+00
	 1.00000000E+00	 5.00000000E-01	 2.00000000E+00
	 1.00000000E+00	 1.00000000E+00	 2.00000000E+00
	 5.00000000E-01	 5.00000000E-01	 2.00000000E+00
	 5.00000000E-01	 1.00000000E+00	 2.00000000E+00
	 1.00000000E+00	 5.00000000E-01	 1.50000000E+00
	 1.00000000E+00	 7.50000000E-01	 2.00000000E+00
	 1.00000000E+00	 1.00000000E+00	 1.50000000E+00
	 7.50000000E-01	 5.00000000E-01	 2.00000000E+00
	 7.50000000E-01	 1.00000000E+00	 2.00000000E+00
	 5.00000000E-01	 5.00000000E-01	 1.50000000E+00
	 5.00000000E-01	 7.50000000E-01	 2.00000000E+00
	 5.00000000E-01	 1.00000000E+00	 1.50000000E+00
	 1.00000000E+00	-1.49012000E-08	 2.00000000E+00
	 5.00000000E-01	-1.49012000E-08	 2.00000000E+00
	 1.00000000E+00	-1.49012000E-08	 1.50000000E+00
	 1.00000000E+00	 2.50000000E-01	 2.00000000E+00
	 7.50000000E-01	-1.49012000E-08	 2.00000000E+00
	 5.00000000E-01	-1.49012000E-08	 1.50000000E+00
	 5.00000000E-01	 2.50000000E-01	 2.00000000E+00
	-7.45058000E-09	 5.00000000E-01	 2.00000000E+00
	-7.45058000E-09	 1.00000000E+00	 2.00000000E+00
	 2.50000000E-01	 5.00000000E-01	 2.00000000E+00
	 2.50000000E-01	 1.00000000E+00	 2.00000000E+00
	-7.45058000E-09	 5.00000000E-01	 1.50000000E+00
	-7.45058000E-09	 7.50000000E-01	 2.00000000E+00
	-7.45058000E-09	 1.00000000E+00	 1.50000000E+00
	-7.45058000E-09	-1.49012000E-08	 2.00000000E+00
	 2.50000000E-01	-1.49012000E-08	 2.00000000E+00
	-7.45058000E-09	-1.49012000E-08	 1.50000000E+00
	-7.45058000E-09	 2.50000000E-01	 2.00000000E+00
	 1.00000000E+00	 5.00000000E-01	 3.00000000E+00
	 1.00000000E+00	 1.00000000E+00	 3.00000000E+00
	 5.00000000E-01	 5.00000000E-01	 3.00000000E+00
	 5.00000000E-01	 1.00000000E+00	 3.00000000E+00
	 1.00000000E+00	 5.00000000E-01	 2.50000000E+00
	 1.00000000E+00	 7.50000000E-01	 3.00000000E+00
	 1.00000000E+00	 1.00000000E+00	 2.50000000E+00
	 7.50000000E-01	 5.00000000E-01	 3.00000000E+00
	 7.50000000E-01	 1.00000000E+00	 3.00000000E+00
	 5.00000000E-01	 5.00000000E-01	 2.50000000E+00
	 5.00000000E-01	 7.50000000E-01	 3.00000000E+00
	 5.00000000E-01	 1.00000000E+00	 2.50000000E+00
	 1.00000000E+00	-1.49012000E-08	 3.00000000E+00
	 5.00000000E-01	-1.49012000E-08	 3.00000000E+00
	 1.00000000E+00	-1.49012000E-08	 2.50000000E+00
	 1.00000000E+00	 2.50000000E-01	 3.00000000E+00
	 7.50000000E-01	-1.49012000E-08	 3.00000000E+00
	 5.00000000E-01	-1.49012000E-08	 2.50000000E+00
	 5.00000000E-01	 2.50000000E-01	 3.00000000E+00
	-7.45058000E-09	 5.00000000E-01	 3.00000000E+00
	-7.45058000E-09	 1.00000000E+00	 3.00000000E+00
	 2.50000000E-01	 5.00000000E-01	 3.00000000E+00
	 2.50000000E-01	 1.00000000E+00	 3.00000000E+00
	-7.45058000E-09	 5.00000000E-01	 2.50000000E+00
	-7.45058000E-09	 7.50000000E-01	 3.00000000E+00
	-7.45058000E-09	 1.00000000E+00	 2.50000000E+00
	-7.45058000E-09	-1.49012000E-08	 3.00000000E+00
	 2.50000000E-01	-1.49012000E-08	 3.00000000E+00
	-7.45058000E-09	-1.49012000E-08	 2.50000000E+00
	-7.45058000E-09	 2.50000000E-01	 3.00000000E+00
	 1.00000000E+00	 5.00000000E-01	 4.00000000E+00
	 1.00000000E+00	 1.00000000E+00	 4.00000000E+00
	 5.00000000E-01	 5.00000000E-01	 4.00000000E+00
	 5.00000000E-01	 1.00000000E+00	 4.00000000E+00
	 1.00000000E+00	 5.00000000E-01	 3.50000000E+00
	 1.00000000E+00	 7.50000000E-01	 4.00000000E+00
	 1.00000000E+00	 1.00000000E+00	 3.50000000E+00
	 7.50000000E-01	 5.00000000E-01	 4.00000000E+00
	 7.50000000E-01	 1.00000000E+00	 4.00000000E+00
	 5.00000000E-01	 5.00000000E-01	 3.50000000E+00
	 5.00000000E-01	 7.50000000E-01	 4.00000000E+00
	 5.00000000E-01	 1.00000000E+00	 3.50000000E+00
	 1.00000000E+00	-1.49012000E-08	 4.00000000E+00
	 5.00000000E-01	-1.49012000E-08	 4.00000000E+00
	 1.00000000E+00	-1.49012000E-08	 3.50000000E+00
	 1.00000000E+00	 2.50000000E-01	 4.00000000E+00
	 7.50000000E-01	-1.49012000E-08	 4.00000000E+00
	 5.00000000E-01	-1.49012000E-08	 3.50000000E+00
	 5.00000000E-01	 2.50000000E-01	 4.00000000E+00
	-7.45058000E-09	 5.00000000E-01	 4.00000000E+00
	-7.45058000E-09	 1.00000000E+00	 4.00000000E+00
	 2.50000000E-01	 5.00000000E-01	 4.00000000E+00
	 2.50000000E-01	 1.00000000E+00	 4.00000000E+00
	-7.45058000E-09	 5.00000000E-01	 3.50000000E+00
	-7.45058000E-09	 7.50000000E-01	 4.00000000E+00
	-7.45058000E-09	 1.00000000E+00	 3.50000000E+00
	-7.45058000E-09	-1.49012000E-08	 4.00000000E+00
	 2.50000000E-01	-1.49012000E-08	 4.00000000E+00
	-7.45058000E-09	-1.49012000E-08	 3.50000000E+00
	-7.45058000E-09	 2.50000000E-01	 4.00000000E+00
	 1.00000000E+00	 5.00000000E-01	 5.00000000E+00
	 1.00000000E+00	 1.00000000E+00	 5.00000000E+00
	 5.00000000E-01	 5.00000000E-01	 5.00000000E+00
	 5.00000000E-01	 1.00000000E+00	 5.00000000E+00
	 1.00000000E+00	 5.00000000E-01	 4.50000000E+00
	 1.00000000E+00	 7.50000000E-01	 5.00000000E+00
	 1.00000000E+00	 1.00000000E+00	 4.50000000E+00
	 7.50000000E-01	 5.00000000E-01	 5.00000000E+00
	 7.50000000E-01	 1.00000000E+00	 5.00000000E+00
	 5.00000000E-01	 5.00000000E-01	 4.50000000E+00
	 5.00000000E-01	 7.50000000E-01	 5.00000000E+00
	 5.00000000E-01	 1.00000000E+00	 4.50000000E+00
	 1.00000000E+00	-1.49012000E-08	 5.00000000E+00
	 5.00000000E-01	-1.49012000E-08	 5.00000000E+00
	 1.00000000E+00	-1.49012000E-08	 4.50000000E+00
	 1.00000000E+00	 2.50000000E-01	 5.00000000E+00
	 7.50000000E-01	-1.49012000E-08	 5.00000000E+00
	 5.00000000E-01	-1.49012000E-08	 4.50000000E+00
	 5.00000000E-01	 2.50000000E-01	 5.00000000E+00
	-7.45058000E-09	 5.00000000E-01	 5.00000000E+00
	-7.45058000E-09	 1.00000000E+00	 5.00000000E+00
	 2.50000000E-01	 5.00000000E-01	 5.00000000E+00
	 2.50000000E-01	 1.00000000E+00	 5.00000000E+00
	-7.45058000E-09	 5.00000000E-01	 4.50000000E+00
	-7.45058000E-09	 7.50000000E-01	 5.00000000E+00
	-7.45058000E-09	 1.00000000E+00	 4.50000000E+00
	-7.45058000E-09	-1.49012000E-08	 5.00000000E+00
	 2.50000000E-01	-1.49012000E-08	 5.00000000E+00
	-7.45058000E-09	-1.49012000E-08	 4.50000000E+00
	-7.45058000E-09	 2.50000000E-01	 5.00000000E+00
	 1.00000000E+00	 5.00000000E-01	 6.00000000E+00
	 1.00000000E+00	 1.00000000E+00	 6.00000000E+00
	 5.00000000E-01	 5.00000000E-01	 6.00000000E+00
	 5.00000000E-01	 1.00000000E+00	 6.00000000E+00
	 1.00000000E+00	 5.00000000E-01	 5.50000000E+00
	 1.00000000E+00	 7.50000000E-01	 6.00000000E+00
	 1.00000000E+00	 1.00000000E+00	 5.50000000E+00
	 7.50000000E-01	 5.00000000E-01	 6.00000000E+00
	 7.50000000E-01	 1.00000000E+00	 6.00000000E+00
	 5.00000000E-01	 5.00000000E-01	 5.50000000E+00
	 5.00000000E-01	 7.50000000E-01	 6.00000000E+00
	 5.00000000E-01	 1.00000000E+00	 5.50000000E+00
	 1.00000000E+00	-1.49012000E-08	 6.00000000E+00
	 5.00000000E-01	-1.49012000E-08	 6.00000000E+00
	 1.00000000E+00	-1.49012000E-08	 5.50000000E+00
	 1.00000000E+00	 2.50000000E-01	 6.00000000E+00
	 7.50000000E-01	-1.49012000E-08	 6.00000000E+00
	 5.00000000E-01	-1.49012000E-08	 5.50000000E+00
	 5.00000000E-01	 2.50000000E-01	 6.00000000E+00
	-7.45058000E-09	 5.00000000E-01	 6.00000000E+00
	-7.45058000E-09	 1.00000000E+00	 6.00000000E+00
	 2.50000000E-01	 5.00000000E-01	 6.00000000E+00
	 2.50000000E-01	 1.00000000E+00	 6.00000000E+00
	-7.45058000E-09	 5.00000000E-01	 5.50000000E+00
	-7.45058000E-09	 7.50000000E-01	 6.00000000E+00
	-7.45058000E-09	 1.00000000E+00	 5.50000000E+00
	-7.45058000E-09	-1.49012000E-08	 6.00000000E+00
	 2.50000000E-01	-1.49012000E-08	 6.00000000E+00
	-7.45058000E-09	-1.49012000E-08	 5.50000000E+00
	-7.45058000E-09	 2.50000000E-01	 6.00000000E+00
	 1.00000000E+00	 5.00000000E-01	 7.00000000E+00
[...]
POINT_DATA 522
FIELD U 1
	U 3 522 double
		 0.00000000E+00	 0.00000000E+00	 0.00000000E+00
		 0.00000000E+00	 0.00000000E+00	 0.00000000E+00
		 2.09050000E-08	-7.81268000E-07	-3.60110000E-07
		-1.83746000E-05	-1.87131000E-07	 4.50341000E-06
		 0.00000000E+00	 0.00000000E+00	 0.00000000E+00
		 0.00000000E+00	 0.00000000E+00	 0.00000000E+00
		-3.73842000E-08	-2.00789000E-05	-4.14197000E-07
		-2.01336000E-05	-1.92280000E-05	 5.19448000E-06
		 0.00000000E+00	 0.00000000E+00	 0.00000000E+00
		 5.79743000E-08	 1.10459000E-06	-1.79837000E-07
		-9.17850000E-06	-5.02537000E-07	 2.63433000E-06
		-8.98085000E-06	 5.79424000E-07	 4.80936000E-06
		 0.00000000E+00	 0.00000000E+00	 0.00000000E+00
		 0.00000000E+00	 0.00000000E+00	 0.00000000E+00
		-6.43881000E-09	-1.04149000E-05	-3.90136000E-07
		-1.92142000E-05	-9.63767000E-06	 3.05990000E-06
		 0.00000000E+00	 0.00000000E+00	 0.00000000E+00
		-6.45962000E-09	-7.73032000E-06	-1.87932000E-07
		-1.00427000E-05	-1.96132000E-05	 1.11457000E-06
		-8.65066000E-06	-7.97184000E-06	 4.93971000E-06
		 0.00000000E+00	 0.00000000E+00	 0.00000000E+00
		 1.84227000E-05	-2.78881000E-07	-5.22436000E-06
		 0.00000000E+00	 0.00000000E+00	 0.00000000E+00
		 2.00691000E-05	-1.93405000E-05	-6.01962000E-06
		 0.00000000E+00	 0.00000000E+00	 0.00000000E+00
		 9.10074000E-06	 4.67863000E-07	-5.18634000E-06
		 9.21574000E-06	-5.43431000E-07	-3.35071000E-06
		 0.00000000E+00	 0.00000000E+00	 0.00000000E+00
		 1.92117000E-05	-9.74253000E-06	-3.83564000E-06
		 0.00000000E+00	 0.00000000E+00	 0.00000000E+00
		 8.64624000E-06	-8.09510000E-06	-5.33614000E-06
		 9.96891000E-06	-1.96710000E-05	-1.93332000E-06
		 0.00000000E+00	 0.00000000E+00	 0.00000000E+00
		 0.00000000E+00	 0.00000000E+00	 0.00000000E+00
		-9.86541000E-08	-4.09838000E-05	-4.46077000E-07
		-2.09057000E-05	-3.93819000E-05	 4.42490000E-06
		 0.00000000E+00	 0.00000000E+00	 0.00000000E+00
		 0.00000000E+00	 0.00000000E+00	 0.00000000E+00
		-6.67064000E-08	-3.04258000E-05	-4.32916000E-07
		-2.05112000E-05	-2.94014000E-05	 7.16123000E-06
		 0.00000000E+00	 0.00000000E+00	 0.00000000E+00
		-7.59382000E-08	-1.61915000E-05	-2.15813000E-07
		-1.06722000E-05	-4.01488000E-05	-1.59020000E-06
		-7.46138000E-06	-1.58362000E-05	 4.77066000E-06
		 0.00000000E+00	 0.00000000E+00	 0.00000000E+00
		 2.07171000E-05	-3.95035000E-05	-5.30862000E-06
		 0.00000000E+00	 0.00000000E+00	 0.00000000E+00
		 2.03820000E-05	-2.95203000E-05	-8.01885000E-06
		 0.00000000E+00	 0.00000000E+00	 0.00000000E+00
		 7.31620000E-06	-1.59725000E-05	-5.22677000E-06
		 1.04758000E-05	-4.02142000E-05	 7.08449000E-07
		-2.01661000E-07	 2.45318000E-05	-6.06633000E-07
		-5.15198000E-05	 2.93182000E-05	-3.20039000E-05
		-2.05676000E-07	-3.34790000E-05	-6.69696000E-07
		-6.39777000E-05	-2.77870000E-05	-3.06153000E-05
		-7.51813000E-08	 1.48658000E-06	-4.98569000E-07
		-2.59136000E-05	 2.55520000E-05	-1.57018000E-05
		-3.15092000E-05	 4.24872000E-06	-5.83475000E-06
		-2.02501000E-07	-3.17382000E-06	-6.42691000E-07
		-5.77348000E-05	 2.21602000E-06	-3.47746000E-05
		-1.04336000E-07	-3.28639000E-05	-5.76102000E-07
		-3.20078000E-05	-3.19598000E-05	-1.86733000E-05
		-3.72019000E-05	-2.98279000E-05	-4.80206000E-06
		 5.10934000E-05	 2.92462000E-05	 3.08760000E-05
		 6.35336000E-05	-2.78234000E-05	 2.93635000E-05
		 3.13662000E-05	 4.15546000E-06	 4.84201000E-06
		 2.55232000E-05	 2.54855000E-05	 1.45109000E-05
		 5.72940000E-05	 2.17085000E-06	 3.35608000E-05
		 3.69854000E-05	-2.99264000E-05	 3.66498000E-06
		 3.15907000E-05	-3.19819000E-05	 1.73380000E-05
		-2.09915000E-07	-1.02978000E-04	-7.15050000E-07
		-7.42278000E-05	-9.60347000E-05	-3.21254000E-05
		-2.11918000E-07	-6.67766000E-05	-6.79028000E-07
		-6.90340000E-05	-6.07509000E-05	-2.60918000E-05
		-1.37568000E-07	-7.27027000E-05	-6.31016000E-07
		-3.74380000E-05	-1.00821000E-04	-2.45370000E-05
		-4.19037000E-05	-6.89561000E-05	-5.95464000E-06
		 7.38055000E-05	-9.60500000E-05	 3.07760000E-05
		 6.86093000E-05	-6.07640000E-05	 2.48123000E-05
		 4.16299000E-05	-6.90592000E-05	 4.72588000E-06
		 3.70198000E-05	-1.00821000E-04	 2.31111000E-05
		-3.29060000E-07	 2.70383000E-04	-4.40377000E-07
		-1.43356000E-04	 2.79949000E-04	-1.65158000E-04
		-2.52929000E-07	 1.08617000E-04	-3.17884000E-07
		-1.74735000E-04	 1.21984000E-04	-1.65003000E-04
		-3.03046000E-07	 9.72682000E-05	-6.35100000E-07
		-7.25379000E-05	 2.71195000E-04	-7.36458000E-05
		-8.53011000E-05	 1.05374000E-04	-8.63862000E-05
		-2.99218000E-07	 1.92880000E-04	-4.30820000E-07
		-1.59054000E-04	 2.05151000E-04	-1.75834000E-04
		-3.04688000E-07	 6.13945000E-07	-6.22189000E-07
		-8.73013000E-05	 1.11351000E-04	-8.44245000E-05
		-1.06571000E-04	 1.04665000E-05	-8.44905000E-05
		 1.42647000E-04	 2.80307000E-04	 1.64238000E-04
		 1.74240000E-04	 1.22462000E-04	 1.64337000E-04
		 8.46272000E-05	 1.05488000E-04	 8.52433000E-05
		 7.17919000E-05	 2.71467000E-04	 7.27674000E-05
		 1.58465000E-04	 2.05542000E-04	 1.74961000E-04
		 1.05946000E-04	 1.06837000E-05	 8.33580000E-05
		 8.67892000E-05	 1.11592000E-04	 8.38380000E-05
		-5.87875000E-08	-7.86046000E-05	 1.56198000E-08
		-2.00907000E-04	-6.39953000E-05	-1.64647000E-04
		-1.68185000E-07	 1.88138000E-05	-1.86976000E-07
		-1.87640000E-04	 3.24188000E-05	-1.52451000E-04
		-2.38266000E-07	-1.15243000E-04	-5.39301000E-07
		-1.00605000E-04	-7.49842000E-05	-9.62896000E-05
		-1.24766000E-04	-1.04171000E-04	-8.63178000E-05
		 2.00694000E-04	-6.33449000E-05	 1.64674000E-04
		 1.87207000E-04	 3.29244000E-05	 1.52107000E-04
		 1.24248000E-04	-1.03872000E-04	 8.53028000E-05
		 1.00462000E-04	-7.46954000E-05	 9.63403000E-05
		-1.28742000E-07	 1.18843000E-03	 8.78293000E-07
		-4.42546000E-04	 1.17529000E-03	-3.10906000E-04
		 8.61642000E-07	 7.35069000E-04	 1.39505000E-06
		-4.47486000E-04	 7.32236000E-04	-3.21764000E-04
		-3.32575000E-07	 6.20456000E-04	-2.30926000E-08
		-2.24296000E-04	 1.17950000E-03	-1.03271000E-04
		-2.55002000E-04	 6.21368000E-04	-2.63742000E-04
		 3.70840000E-07	 9.62120000E-04	 1.28902000E-06
		-4.44972000E-04	 9.57364000E-04	-3.48674000E-04
		 1.74204000E-07	 3.47634000E-04	 3.25602000E-07
		-2.22733000E-04	 7.30745000E-04	-1.40395000E-04
		-2.82134000E-04	 3.55211000E-04	-2.66583000E-04
		 4.42449000E-04	 1.17692000E-03	 3.13571000E-04
		 4.49246000E-04	 7.33605000E-04	 3.25316000E-04
		 2.54432000E-04	 6.22034000E-04	 2.63692000E-04
		 2.24423000E-04	 1.17988000E-03	 1.05245000E-04
		 4.45726000E-04	 9.59042000E-04	 3.52054000E-04
		 2.82421000E-04	 3.55858000E-04	 2.67281000E-04
		 2.24571000E-04	 7.31365000E-04	 1.43224000E-04
		 1.49789000E-06	 2.91777000E-04	 1.90474000E-06
		-4.42670000E-04	 2.88754000E-04	-3.10216000E-04
		 1.16932000E-06	 5.14685000E-04	 1.59332000E-06
		-4.44551000E-04	 5.12292000E-04	-2.92944000E-04
		 5.89657000E-07	 5.58915000E-05	 9.05566000E-07
		-2.19190000E-04	 2.88091000E-04	-1.57975000E-04
		-3.02083000E-04	 6.38979000E-05	-2.62713000E-04
		 4.46057000E-04	 2.89692000E-04	 3.14500000E-04
		 4.47278000E-04	 5.13601000E-04	 2.96550000E-04
		 3.03259000E-04	 6.45911000E-05	 2.64728000E-04
		 2.22346000E-04	 2.88682000E-04	 1.61873000E-04
		-1.65700000E-06	 2.74412000E-03	 9.23444000E-06
		-1.24480000E-03	 2.63242000E-03	 2.54857000E-04
		 4.22679000E-07	 1.59755000E-03	 5.89759000E-06
		-1.04186000E-03	 1.49322000E-03	 2.23069000E-04
		 2.10185000E-07	 1.98184000E-03	 3.43962000E-06
		-6.25628000E-04	 2.71269000E-03	 2.71429000E-04
		-7.67268000E-04	 1.91794000E-03	-1.85606000E-04
		-4.08907000E-07	 2.14456000E-03	 7.54491000E-06
		-1.14228000E-03	 2.03888000E-03	 1.60412000E-04
		 1.34956000E-06	 1.24245000E-03	 3.03791000E-06
		-5.20674000E-04	 1.57044000E-03	 1.79587000E-04
		-6.94117000E-04	 1.19109000E-03	-2.08671000E-04
		 1.24303000E-03	 2.64224000E-03	-2.36885000E-04
		 1.04511000E-03	 1.49959000E-03	-2.11569000E-04
		 7.67981000E-04	 1.92251000E-03	 1.94200000E-04
		 6.21517000E-04	 2.71877000E-03	-2.53455000E-04
		 1.14381000E-03	 2.04676000E-03	-1.45335000E-04
		 6.97970000E-04	 1.19461000E-03	 2.16000000E-04
		 5.21846000E-04	 1.57367000E-03	-1.67370000E-04
		 1.75221000E-06	 6.56586000E-04	 3.54572000E-06
		-8.30563000E-04	 5.58592000E-04	 2.49824000E-04
		 1.28710000E-06	 1.10258000E-03	 4.29254000E-06
		-9.36340000E-04	 9.99759000E-04	 2.76353000E-04
		 2.05491000E-06	 5.89741000E-04	 2.78213000E-06
		-4.15984000E-04	 6.33759000E-04	 1.47325000E-04
		-6.07771000E-04	 5.41588000E-04	-1.86973000E-04
		 8.35320000E-04	 5.62310000E-04	-2.42637000E-04
		 9.40190000E-04	 1.00409000E-03	-2.67577000E-04
		 6.12793000E-04	 5.43504000E-04	 1.92879000E-04
		 4.19788000E-04	 6.35046000E-04	-1.39866000E-04
		-1.66287000E-05	 1.88152000E-03	 1.46278000E-05
		-2.46155000E-03	 1.67690000E-03	 2.53257000E-03
		-9.07950000E-06	-3.28501000E-04	 7.19968000E-06
		-2.01705000E-03	-5.51441000E-04	 2.52519000E-03
		-8.86720000E-06	 2.95522000E-03	 1.60294000E-05
		-1.23028000E-03	 1.83993000E-03	 1.35597000E-03
		-1.84690000E-03	 2.79215000E-03	 1.22513000E-03
		-1.27732000E-05	 7.21942000E-04	 1.05378000E-05
		-2.24014000E-03	 5.02250000E-04	 2.45035000E-03
		-4.01365000E-06	 1.29085000E-03	 8.51481000E-06
		-1.01152000E-03	-3.79265000E-04	 1.26841000E-03
		-1.50006000E-03	 1.12673000E-03	 1.19195000E-03
		 2.42795000E-03	 1.69811000E-03	-2.50061000E-03
		 1.99692000E-03	-5.31317000E-04	-2.50687000E-03
		 1.83179000E-03	 2.80506000E-03	-1.19615000E-03
		 1.20034000E-03	 1.84777000E-03	-1.32484000E-03
		 2.21258000E-03	 5.22439000E-04	-2.42599000E-03
		 1.49284000E-03	 1.13473000E-03	-1.17576000E-03
		 9.93923000E-04	-3.68607000E-04	-1.25406000E-03
		-4.88426000E-06	-2.13193000E-03	-2.36209000E-06
		-1.57825000E-03	-2.34454000E-03	 2.51676000E-03
		-6.65040000E-06	-1.28765000E-03	 3.74598000E-06
		-1.79625000E-03	-1.51087000E-03	 2.59890000E-03
		-1.41057000E-06	-3.74813000E-05	 1.99168000E-06
		-7.96289000E-04	-2.18089000E-03	 1.18281000E-03
		-1.14398000E-03	-1.88318000E-04	 1.21471000E-03
		 1.57452000E-03	-2.32723000E-03	-2.51673000E-03
		 1.78603000E-03	-1.48763000E-03	-2.58910000E-03
		 1.14480000E-03	-1.84214000E-04	-1.20806000E-03
		 7.88096000E-04	-2.17018000E-03	-1.18591000E-03
		 2.91912000E-05	-5.75176000E-03	-3.81967000E-06
		-2.79635000E-03	-5.87966000E-03	 4.72333000E-03
		 2.71862000E-05	-8.50971000E-03	-2.61275000E-05
		-2.63092000E-03	-8.62796000E-03	 4.73521000E-03
		 1.39954000E-06	-1.12375000E-03	 1.74816000E-07
		-1.39153000E-03	-5.80098000E-03	 2.28454000E-03
		-2.80093000E-03	-1.28367000E-03	 3.83664000E-03
		 2.82770000E-05	-7.15329000E-03	-1.23744000E-05
		-2.71275000E-03	-7.28027000E-03	 4.73942000E-03
		 1.92119000E-06	-3.73202000E-03	-3.25613000E-06
		-1.31042000E-03	-8.54841000E-03	 2.28786000E-03
		-2.43342000E-03	-3.91498000E-03	 3.85936000E-03
		 2.88079000E-03	-5.77677000E-03	-4.75949000E-03
		 2.70504000E-03	-8.55537000E-03	-4.81631000E-03
		 2.79608000E-03	-1.23072000E-03	-3.82586000E-03
		 1.45090000E-03	-5.73506000E-03	-2.31067000E-03
		 2.79719000E-03	-7.18916000E-03	-4.79068000E-03
		 2.44295000E-03	-3.85815000E-03	-3.86328000E-03
		 1.36632000E-03	-8.51215000E-03	-2.34751000E-03
		 2.33087000E-05	-1.10949000E-02	-4.19579000E-05
		-2.49532000E-03	-1.12234000E-02	 4.69435000E-03
		 2.45128000E-05	-9.82345000E-03	-3.85683000E-05
		-2.56658000E-03	-9.93353000E-03	 4.75222000E-03
		 2.87637000E-06	-6.00776000E-03	-9.60843000E-06
		-1.22909000E-03	-1.11325000E-02	 2.21994000E-03
		-2.10636000E-03	-6.19455000E-03	 3.81276000E-03
		 2.53893000E-03	-1.11601000E-02	-4.78815000E-03
		 2.62051000E-03	-9.87929000E-03	-4.84397000E-03
		 2.11067000E-03	-6.14097000E-03	-3.84199000E-03
		 1.27857000E-03	-1.11102000E-02	-2.30449000E-03
		-8.92068000E-07	-1.60460000E-02	-4.53493000E-05
		-2.87374000E-03	-1.57986000E-02	 4.80938000E-03
		 9.12540000E-05	-1.89642000E-02	-9.83207000E-05
		-2.84421000E-03	-1.91114000E-02	 5.01584000E-03
		 1.45070000E-05	-1.09649000E-02	 4.09247000E-06
		-1.39994000E-03	-1.59133000E-02	 2.44189000E-03
		-2.78723000E-03	-1.10075000E-02	 4.91965000E-03
		 5.06852000E-05	-1.74767000E-02	-7.15217000E-05
		-2.85445000E-03	-1.74044000E-02	 4.86813000E-03
		 5.05917000E-05	-1.37705000E-02	-7.01975000E-05
		-1.32139000E-03	-1.90340000E-02	 2.43144000E-03
		-2.78532000E-03	-1.38303000E-02	 4.97418000E-03
		 2.74894000E-03	-1.61414000E-02	-5.08840000E-03
		 2.81737000E-03	-1.89472000E-02	-5.16567000E-03
		 2.83042000E-03	-1.09741000E-02	-5.05654000E-03
		 1.36446000E-03	-1.61293000E-02	-2.55841000E-03
		 2.77578000E-03	-1.75402000E-02	-5.14039000E-03
		 2.79377000E-03	-1.37891000E-02	-5.13093000E-03
		 1.44837000E-03	-1.89657000E-02	-2.62691000E-03
		 7.73278000E-05	-2.18663000E-02	-9.52320000E-05
		-2.81775000E-03	-2.20846000E-02	 5.07410000E-03
		 9.82884000E-05	-2.04222000E-02	-1.04070000E-04
		-2.83657000E-03	-2.06477000E-02	 5.08146000E-03
		 5.15268000E-05	-1.65424000E-02	-9.41020000E-05
		-1.38055000E-03	-2.20075000E-02	 2.43541000E-03
		-2.70509000E-03	-1.66404000E-02	 4.99753000E-03
		 2.85566000E-03	-2.17185000E-02	-5.15260000E-03
		 2.84200000E-03	-2.03363000E-02	-5.16188000E-03
		 2.75718000E-03	-1.65246000E-02	-5.11308000E-03
		 1.47760000E-03	-2.17769000E-02	-2.62152000E-03
		 0.00000000E+00	 0.00000000E+00	 0.00000000E+00
		 0.00000000E+00	 0.00000000E+00	 0.00000000E+00
		 7.09824000E-05	-1.13318000E-02	-1.49190000E-04
		-3.25699000E-03	-1.23222000E-02	 1.26789000E-02
		 0.00000000E+00	 0.00000000E+00	 0.00000000E+00
		 0.00000000E+00	 0.00000000E+00	 0.00000000E+00
		 6.38281000E-05	-1.37539000E-02	-1.77949000E-04
		-1.48913000E-03	-1.47951000E-02	 1.27711000E-02
		 0.00000000E+00	 0.00000000E+00	 0.00000000E+00
		 4.38860000E-05	-1.89762000E-03	-4.49761000E-05
		-1.59764000E-03	-1.15279000E-02	 6.32070000E-03
		-2.62831000E-03	-3.07902000E-03	 6.34161000E-03
		 0.00000000E+00	 0.00000000E+00	 0.00000000E+00
		 0.00000000E+00	 0.00000000E+00	 0.00000000E+00
		 6.90897000E-05	-1.28360000E-02	-1.67311000E-04
		-2.35824000E-03	-1.38461000E-02	 1.25698000E-02
		 0.00000000E+00	 0.00000000E+00	 0.00000000E+00
		 2.41410000E-05	-3.51842000E-03	-5.05117000E-05
		-7.12405000E-04	-1.39619000E-02	 6.19351000E-03
		-7.27221000E-04	-4.67782000E-03	 6.15045000E-03
		 0.00000000E+00	 0.00000000E+00	 0.00000000E+00
		 3.37029000E-03	-1.19354000E-02	-1.30336000E-02
		 0.00000000E+00	 0.00000000E+00	 0.00000000E+00
		 1.62189000E-03	-1.44040000E-02	-1.31884000E-02
		 0.00000000E+00	 0.00000000E+00	 0.00000000E+00
		 2.69612000E-03	-2.95544000E-03	-6.44978000E-03
		 1.72977000E-03	-1.13266000E-02	-6.63974000E-03
		 0.00000000E+00	 0.00000000E+00	 0.00000000E+00
		 2.48840000E-03	-1.34553000E-02	-1.29596000E-02
		 0.00000000E+00	 0.00000000E+00	 0.00000000E+00
		 7.77326000E-04	-4.55745000E-03	-6.25890000E-03
		 8.40723000E-04	-1.37626000E-02	-6.57067000E-03
		 0.00000000E+00	 0.00000000E+00	 0.00000000E+00
		 0.00000000E+00	 0.00000000E+00	 0.00000000E+00
		 5.04932000E-05	-1.44421000E-02	-1.58154000E-04
		 2.89423000E-04	-1.54085000E-02	 1.26740000E-02
		 0.00000000E+00	 0.00000000E+00	 0.00000000E+00
		 0.00000000E+00	 0.00000000E+00	 0.00000000E+00
		 5.70452000E-05	-1.43882000E-02	-1.77692000E-04
		-6.11692000E-04	-1.53940000E-02	 1.28473000E-02
		 0.00000000E+00	 0.00000000E+00	 0.00000000E+00
		 3.42875000E-06	-3.40131000E-03	-3.09893000E-05
		 1.69878000E-04	-1.46188000E-02	 6.02569000E-03
		 1.23112000E-03	-4.52353000E-03	 6.35914000E-03
		 0.00000000E+00	 0.00000000E+00	 0.00000000E+00
		-1.55415000E-04	-1.50353000E-02	-1.30415000E-02
		 0.00000000E+00	 0.00000000E+00	 0.00000000E+00
		 7.40144000E-04	-1.50058000E-02	-1.32630000E-02
		 0.00000000E+00	 0.00000000E+00	 0.00000000E+00
		-1.20519000E-03	-4.39945000E-03	-6.43227000E-03
		-5.55840000E-05	-1.44371000E-02	-6.35599000E-03
		 1.82588000E-04	-4.82003000E-02	-8.57105000E-04
		-4.51289000E-03	-4.95452000E-02	 2.31803000E-02
		 1.91639000E-04	-5.21313000E-02	-9.80441000E-04
		-2.99125000E-03	-5.34739000E-02	 2.30898000E-02
		 1.27138000E-04	-2.68960000E-02	-4.02264000E-04
		-2.16480000E-03	-4.87055000E-02	 1.11827000E-02
		-3.94097000E-03	-2.81320000E-02	 1.83195000E-02
		 1.88946000E-04	-5.03355000E-02	-9.28747000E-04
		-3.75030000E-03	-5.16770000E-02	 2.30430000E-02
		 1.19858000E-04	-3.01161000E-02	-4.71622000E-04
		-1.39662000E-03	-5.26334000E-02	 1.09924000E-02
		-2.25802000E-03	-3.13492000E-02	 1.82919000E-02
		 4.87824000E-03	-4.82991000E-02	-2.49793000E-02
		 3.38313000E-03	-5.22603000E-02	-2.51367000E-02
		 4.17398000E-03	-2.73686000E-02	-1.92025000E-02
		 2.52651000E-03	-4.80787000E-02	-1.29185000E-02
		 4.13595000E-03	-5.04584000E-02	-2.49809000E-02
		 2.50466000E-03	-3.05954000E-02	-1.93153000E-02
		 1.78604000E-03	-5.20309000E-02	-1.29708000E-02
		 1.80996000E-04	-5.45766000E-02	-1.02743000E-03
		-1.47034000E-03	-5.58772000E-02	 2.30058000E-02
		 1.87689000E-04	-5.35227000E-02	-1.01328000E-03
		-2.22837000E-03	-5.48833000E-02	 2.31673000E-02
		 1.02285000E-04	-3.16641000E-02	-4.75981000E-04
		-6.53847000E-04	-5.50466000E-02	 1.07985000E-02
		-5.90816000E-04	-3.28844000E-02	 1.82452000E-02
		 1.88599000E-03	-5.47152000E-02	-2.51466000E-02
		 2.63434000E-03	-5.36523000E-02	-2.52850000E-02
		 8.39881000E-04	-3.21653000E-02	-1.92753000E-02
		 1.03207000E-03	-5.44836000E-02	-1.28678000E-02
		 3.62107000E-04	-1.05347000E-01	-2.49505000E-03
		-5.50574000E-03	-1.06991000E-01	 3.03456000E-02
		 3.87428000E-04	-1.10591000E-01	-2.72832000E-03
		-4.29731000E-03	-1.12339000E-01	 3.01496000E-02
		 2.64184000E-04	-7.45322000E-02	-1.54594000E-03
		-2.56709000E-03	-1.06020000E-01	 1.39381000E-02
		-5.02843000E-03	-7.60515000E-02	 2.71693000E-02
		 3.78945000E-04	-1.08120000E-01	-2.61662000E-03
		-4.90071000E-03	-1.09826000E-01	 3.01485000E-02
		 2.78132000E-04	-7.91480000E-02	-1.72720000E-03
		-1.98155000E-03	-1.11315000E-01	 1.36219000E-02
		-3.67278000E-03	-8.06671000E-02	 2.70314000E-02
		 6.19215000E-03	-1.04788000E-01	-3.53988000E-02
		 5.08474000E-03	-1.10062000E-01	-3.57078000E-02
		 5.55127000E-03	-7.43261000E-02	-3.03497000E-02
		 3.27724000E-03	-1.04920000E-01	-1.89375000E-02
		 5.63952000E-03	-1.07573000E-01	-3.54737000E-02
		 4.24951000E-03	-7.89515000E-02	-3.05723000E-02
		 2.73607000E-03	-1.10188000E-01	-1.91184000E-02
		 3.88398000E-04	-1.14709000E-01	-2.89226000E-03
		-3.21760000E-03	-1.16553000E-01	 2.99417000E-02
		 3.90222000E-04	-1.12810000E-01	-2.82301000E-03
		-3.75924000E-03	-1.14486000E-01	 3.01729000E-02
		 2.81808000E-04	-8.24425000E-02	-1.83174000E-03
		-1.38768000E-03	-1.15477000E-01	 1.32982000E-02
		-2.36712000E-03	-8.39684000E-02	 2.68873000E-02
		 3.97451000E-03	-1.14226000E-01	-3.58578000E-02
		 4.53235000E-03	-1.12275000E-01	-3.59266000E-02
		 2.92601000E-03	-8.22676000E-02	-3.06384000E-02
		 2.17055000E-03	-1.14346000E-01	-1.91454000E-02
		 6.61905000E-04	-1.78110000E-01	-5.14546000E-03
		-5.96196000E-03	-1.79894000E-01	 3.37942000E-02
		 6.91808000E-04	-1.84426000E-01	-5.47434000E-03
		-5.36029000E-03	-1.86671000E-01	 3.35180000E-02
		 4.67462000E-04	-1.40086000E-01	-3.69872000E-03
		-2.64785000E-03	-1.78910000E-01	 1.42713000E-02
		-5.84260000E-03	-1.41910000E-01	 3.25335000E-02
		 6.81552000E-04	-1.81316000E-01	-5.31398000E-03
		-5.64842000E-03	-1.83281000E-01	 3.36257000E-02
		 4.89665000E-04	-1.45957000E-01	-4.02550000E-03
		-2.21408000E-03	-1.85440000E-01	 1.39311000E-02
		-4.94495000E-03	-1.47731000E-01	 3.23386000E-02
		 7.12596000E-03	-1.76878000E-01	-4.41398000E-02
		 6.46093000E-03	-1.83067000E-01	-4.45131000E-02
		 6.75463000E-03	-1.39174000E-01	-3.99984000E-02
		 3.88774000E-03	-1.77419000E-01	-2.45703000E-02
		 6.80030000E-03	-1.80056000E-01	-4.43092000E-02
		 5.86506000E-03	-1.45029000E-01	-4.03574000E-02
		 3.56207000E-03	-1.83645000E-01	-2.48945000E-02
		 5.61491000E-04	-1.90106000E-01	-5.75620000E-03
		-4.65998000E-03	-1.92687000E-01	 3.31981000E-02
		 6.30238000E-04	-1.87313000E-01	-5.62566000E-03
		-5.00691000E-03	-1.90254000E-01	 3.34237000E-02
		 4.66567000E-04	-1.50926000E-01	-4.31713000E-03
		-2.16964000E-03	-1.91269000E-01	 1.35517000E-02
		-3.90757000E-03	-1.52564000E-01	 3.20672000E-02
		 5.80681000E-03	-1.88616000E-01	-4.47419000E-02