# vtk DataFile Version 3.0

ASCII
DATASET UNSTRUCTURED_GRID

POINTS 522 double
	 1.00000000E+00	 1.00000000E+00	-5.96046000E-08
	 1.00000000E+00	 5.00000000E-01	-5.96046000E-08
	 1.00000000E+00	 5.00000000E-01	 1.00000000E+00
	 1.00000000E+00	 1.00000000E+00	 1.00000000E+00
	 5.00000000E-01	 1.00000000E+00	-5.96046000E-08
	 5.00000000E-01	 5.00000000E-01	-5.96046000E-08
	 5.00000000E-01	 5.00000000E-01	 1.00000000E+00
	 5.00000000E-01	 1.00000000E+00	 1.00000000E+00
	 1.00000000E+00	 7.50000000E-01	-5.96046000E-08
	 1.00000000E+00	 5.00000000E-01	 5.00000000E-01
	 1.00000000E+00	 7.50000000E-01	 1.00000000E+00
	 1.00000000E+00	 1.00000000E+00	 5.00000000E-01
	 7.50000000E-01	 1.00000000E+00	-5.96046000E-08
	 7.50000000E-01	 5.00000000E-01	-5.96046000E-08
	 7.50000000E-01	 5.00000000E-01	 1.00000000E+00
	 7.50000000E-01	 1.00000000E+00	 1.00000000E+00
	 5.00000000E-01	 7.50000000E-01	-5.96046000E-08
	 5.00000000E-01	 5.00000000E-01	 5.00000000E-01
	 5.00000000E-01	 7.50000000E-01	 1.00000000E+00
	 5.00000000E-01	 1.00000000E+00	 5.00000000E-01
	 1.00000000E+00	-1.49012000E-08	-5.96046000E-08
	 1.00000000E+00	-1.49012000E-08	 1.00000000E+00
	 5.00000000E-01	-1.49012000E-08	-5.96046000E-08
	 5.00000000E-01	-1.49012000E-08	 1.00000000E+00
	 1.00000000E+00	 2.50000000E-01	-5.96046000E-08
	 1.00000000E+00	-1.49012000E-08	 5.00000000E-01
	 1.00000000E+00	 2.50000000E-01	 1.00000000E+00
	 7.50000000E-01	-1.49012000E-08	-5.96046000E-08
	 7.50000000E-01	-1.49012000E-08	 1.00000000E+00
	 5.00000000E-01	 2.50000000E-01	-5.96046000E-08
	 5.00000000E-01	-1.49012000E-08	 5.00000000E-01
	 5.00000000E-01	 2.50000000E-01	 1.00000000E+00
	-7.45058000E-09	 1.00000000E+00	-5.96046000E-08
	-7.45058000E-09	 5.00000000E-01	-5.96046000E-08
	-7.45058000E-09	 5.00000000E-01	 1.00000000E+00
	-7.45058000E-09	 1.00000000E+00	 1.00000000E+00
	 2.50000000E-01	 1.00000000E+00	-5.96046000E-08
	 2.50000000E-01	 5.00000000E-01	-5.96046000E-08
	 2.50000000E-01	 5.00000000E-01	 1.00000000E+00
	 2.50000000E-01	 1.00000000E+00	 1.00000000E+00
	-7.45058000E-09	 7.50000000E-01	-5.96046000E-08
	-7.45058000E-09	 5.00000000E-01	 5.00000000E-01
	-7.45058000E-09	 7.50000000E-01	 1.00000000E+00
	-7.45058000E-09	 1.00000000E+00	 5.00000000E-01
	-7.45058000E-09	-1.49012000E-08	-5.96046000E-08
	-7.45058000E-09	-1.49012000E-08	 1.00000000E+00
	 2.50000000E-01	-1.49012000E-08	-5.96046000E-08
	 2.50000000E-01	-1.49012000E-08	 1.00000000E+00
	-7.45058000E-09	 2.50000000E-01	-5.96046000E-08
	-7.45058000E-09	-1.49012000E-08	 5.00000000E-01
	-7.45058000E-09	 2.50000000E-01	 1.00000000E+00
	 1.00000000E+00	 5.00000000E-01	 2.00000000E+00
	 1.00000000E+00	 1.00000000E+00	 2.00000000E+00
	 5.00000000E-01	 5.00000000E-01	 2.00000000E+00
	 5.00000000E-01	 1.00000000E+00	 2.00000000E+00
	 1.00000000E+00	 5.00000000E-01	 1.50000000E+00
	 1.00000000E+00	 7.50000000E-01	 2.00000000E+00
	 1.00000000E+00	 1.00000000E+00	 1.50000000E+00
	 7.50000000E-01	 5.00000000E-01	 2.00000000E+00
	 7.50000000E-01	 1.00000000E+00	 2.00000000E+00
	 5.00000000E-01	 5.00000000E-01	 1.50000000E+00
	 5.00000000E-01	 7.50000000E-01	 2.00000000E+00
	 5.00000000E-01	 1.00000000E+00	 1.50000000E+00
	 1.00000000E+00	-1.49012000E-08	 2.00000000E+00
	 5.00000000E-01	-1.49012000E-08	 2.00000000E+00
	 1.00000000E+00	-1.49012000E-08	 1.50000000E+00
	 1.00000000E+00	 2.50000000E-01	 2.00000000E+00
	 7.50000000E-01	-1.49012000E-08	 2.00000000E+00
	 5.00000000E-01	-1.49012000E-08	 1.50000000E+00
	 5.00000000E-01	 2.50000000E-01	 2.00000000E+00
	-7.45058000E-09	 5.00000000E-01	 2.00000000E+00
	-7.45058000E-09	 1.00000000E+00	 2.00000000E+00
	 2.50000000E-01	 5.00000000E-01	 2.00000000E+00
	 2.50000000E-01	 1.00000000E+00	 2.00000000E+00
	-7.45058000E-09	 5.00000000E-01	 1.50000000E+00
	-7.45058000E-09	 7.50000000E-01	 2.00000000E+00
	-7.45058000E-09	 1.00000000E+00	 1.50000000E+00
	-7.45058000E-09	-1.49012000E-08	 2.00000000E+00
	 2.50000000E-01	-1.49012000E-08	 2.00000000E+00
	-7.45058000E-09	-1.49012000E-08	 1.50000000E+00
	-7.45058000E-09	 2.50000000E-01	 2.00000000E+00
	 1.00000000E+00	 5.00000000E-01	 3.00000000E+00
	 1.00000000E+00	 1.00000000E+00	 3.00000000E+00
	 5.00000000E-01	 5.00000000E-01	 3.00000000E+00
	 5.00000000E-01	 1.00000000E+00	 3.00000000E+00
	 1.00000000E+00	 5.00000000E-01	 2.50000000E+00
	 1.00000000E+00	 7.50000000E-01	 3.00000000E+00
	 1.00000000E+00	 1.00000000E+00	 2.50000000E+00
	 7.50000000E-01	 5.00000000E-01	 3.00000000E+00
	 7.50000000E-01	 1.00000000E+00	 3.00000000E+00
	 5.00000000E-01	 5.00000000E-01	 2.50000000E+00
	 5.00000000E-01	 7.50000000E-01	 3.00000000E+00
	 5.00000000E-01	 1.00000000E+00	 2.50000000E+00
	 1.00000000E+00	-1.49012000E-08	 3.00000000E+00
	 5.00000000E-01	-1.49012000E-08	 3.00000000E+00
	 1.00000000E+00	-1.49012000E-08	 2.50000000E+00
	 1.00000000E+00	 2.50000000E-01	 3.00000000E+00
	 7.50000000E-01	-1.49012000E-08	 3.00000000E+00
	 5.00000000E-01	-1.49012000E-08	 2.50000000E+00
	 5.00000000E-01	 2.50000000E-01	 3.00000000E+00
	-7.45058000E-09	 5.00000000E-01	 3.00000000E+00
	-7.45058000E-09	 1.00000000E+00	 3.00000000E+00
	 2.50000000E-01	 5.00000000E-01	 3.00000000E+00
	 2.50000000E-01	 1.00000000E+00	 3.00000000E+00
	-7.45058000E-09	 5.00000000E-01	 2.50000000E+00
	-7.45058000E-09	 7.50000000E-01	 3.00000000E+00
	-7.45058000E-09	 1.00000000E+00	 2.50000000E+00
	-7.45058000E-09	-1.49012000E-08	 3.00000000E+00
	 2.50000000E-01	-1.49012000E-08	 3.00000000E+00
	-7.45058000E-09	-1.49012000E-08	 2.50000000E+00
	-7.45058000E-09	 2.50000000E-01	 3.00000000E+00
	 1.00000000E+00	 5.00000000E-01	 4.00000000E+00
	 1.00000000E+00	 1.00000000E+00	 4.00000000E+00
	 5.00000000E-01	 5.00000000E-01	 4.00000000E+00
	 5.00000000E-01	 1.00000000E+00	 4.00000000E+00
	 1.00000000E+00	 5.00000000E-01	 3.50000000E+00
	 1.00000000E+00	 7.50000000E-01	 4.00000000E+00
	 1.00000000E+00	 1.00000000E+00	 3.50000000E+00
	 7.50000000E-01	 5.00000000E-01	 4.00000000E+00
	 7.50000000E-01	 1.00000000E+00	 4.00000000E+00
	 5.00000000E-01	 5.00000000E-01	 3.50000000E+00
	 5.00000000E-01	 7.50000000E-01	 4.00000000E+00
	 5.00000000E-01	 1.00000000E+00	 3.50000000E+00
	 1.00000000E+00	-1.49012000E-08	 4.00000000E+00
	 5.00000000E-01	-1.49012000E-08	 4.00000000E+00
	 1.00000000E+00	-1.49012000E-08	 3.50000000E+00
	 1.00000000E+00	 2.50000000E-01	 4.00000000E+00
	 7.50000000E-01	-1.49012000E-08	 4.00000000E+00
	 5.00000000E-01	-1.49012000E-08	 3.50000000E+00
	 5.00000000E-01	 2.50000000E-01	 4.00000000E+00
	-7.45058000E-09	 5.00000000E-01	 4.00000000E+00
	-7.45058000E-09	 1.00000000E+00	 4.00000000E+00
	 2.50000000E-01	 5.00000000E-01	 4.00000000E+00
	 2.50000000E-01	 1.00000000E+00	 4.00000000E+00
	-7.45058000E-09	 5.00000000E-01	 3.50000000E+00
	-7.45058000E-09	 7.50000000E-01	 4.00000000E+00
	-7.45058000E-09	 1.00000000E+00	 3.50000000E+00
	-7.45058000E-09	-1.49012000E-08	 4.00000000E+00
	 2.50000000E-01	-1.49012000E-08	 4.00000000E+00
	-7.45058000E-09	-1.49012000E-08	 3.50000000E+00
	-7.45058000E-09	 2.50000000E-01	 4.00000000E+00
	 1.00000000E+00	 5.00000000E-01	 5.00000000E+00
	 1.00000000E+00	 1.00000000E+00	 5.00000000E+00
	 5.00000000E-01	 5.00000000E-01	 5.00000000E+00
	 5.00000000E-01	 1.00000000E+00	 5.00000000E+00
	 1.00000000E+00	 5.00000000E-01	 4.50000000E+00
	 1.00000000E+00	 7.50000000E-01	 5.00000000E+00
	 1.00000000E+00	 1.00000000E+00	 4.50000000E+00
	 7.50000000E-01	 5.00000000E-01	 5.00000000E+00
	 7.50000000E-01	 1.00000000E+00	 5.00000000E+00
	 5.00000000E-01	 5.00000000E-01	 4.50000000E+00
	 5.00000000E-01	 7.50000000E-01	 5.00000000E+00
	 5.00000000E-01	 1.00000000E+00	 4.50000000E+00
	 1.00000000E+00	-1.49012000E-08	 5.00000000E+00
	 5.00000000E-01	-1.49012000E-08	 5.00000000E+00
	 1.00000000E+00	-1.49012000E-08	 4.50000000E+00
	 1.00000000E+00	 2.50000000E-01	 5.00000000E+00
	 7.50000000E-01	-1.49012000E-08	 5.00000000E+00
	 5.00000000E-01	-1.49012000E-08	 4.50000000E+00
	 5.00000000E-01	 2.50000000E-01	 5.00000000E+00
	-7.45058000E-09	 5.00000000E-01	 5.00000000E+00
	-7.45058000E-09	 1.00000000E+00	 5.00000000E+00
	 2.50000000E-01	 5.00000000E-01	 5.00000000E+00
	 2.50000000E-01	 1.00000000E+00	 5.00000000E+00
	-7.45058000E-09	 5.00000000E-01	 4.50000000E+00
	-7.45058000E-09	 7.50000000E-01	 5.00000000E+00
	-7.45058000E-09	 1.00000000E+00	 4.50000000E+00
	-7.45058000E-09	-1.49012000E-08	 5.00000000E+00
	 2.50000000E-01	-1.49012000E-08	 5.00000000E+00
	-7.45058000E-09	-1.49012000E-08	 4.50000000E+00
	-7.45058000E-09	 2.50000000E-01	 5.00000000E+00
	 1.00000000E+00	 5.00000000E-01	 6.00000000E+00
	 1.00000000E+00	 1.00000000E+00	 6.00000000E+00
	 5.00000000E-01	 5.00000000E-01	 6.00000000E+00
	 5.00000000E-01	 1.00000000E+00	 6.00000000E+00
	 1.00000000E+00	 5.00000000E-01	 5.50000000E+00
	 1.00000000E+00	 7.50000000E-01	 6.00000000E+00
	 1.00000000E+00	 1.00000000E+00	 5.50000000E+00
	 7.50000000E-01	 5.00000000E-01	 6.00000000E+00
	 7.50000000E-01	 1.00000000E+00	 6.00000000E+00
	 5.00000000E-01	 5.00000000E-01	 5.50000000E+00
	 5.00000000E-01	 7.50000000E-01	 6.00000000E+00
	 5.00000000E-01	 1.00000000E+00	 5.50000000E+00
	 1.00000000E+00	-1.49012000E-08	 6.00000000E+00
	 5.00000000E-01	-1.49012000E-08	 6.00000000E+00
	 1.00000000E+00	-1.49012000E-08	 5.50000000E+00
	 1.00000000E+00	 2.50000000E-01	 6.00000000E+00
	 7.50000000E-01	-1.49012000E-08	 6.00000000E+00
	 5.00000000E-01	-1.49012000E-08	 5.50000000E+00
	 5.00000000E-01	 2.50000000E-01	 6.00000000E+00
	-7.45058000E-09	 5.00000000E-01	 6.00000000E+00
	-7.45058000E-09	 1.00000000E+00	 6.00000000E+00
	 2.50000000E-01	 5.00000000E-01	 6.00000000E+00
	 2.50000000E-01	 1.00000000E+00	 6.00000000E+00
	-7.45058000E-09	 5.00000000E-01	 5.50000000E+00
	-7.45058000E-09	 7.50000000E-01	 6.00000000E+00
	-7.45058000E-09	 1.00000000E+00	 5.50000000E+00
	-7.45058000E-09	-1.49012000E-08	 6.00000000E+00
	 2.50000000E-01	-1.49012000E-08	 6.00000000E+00
	-7.45058000E-09	-1.49012000E-08	 5.50000000E+00
	-7.45058000E-09	 2.50000000E-01	 6.00000000E+00
	 1.00000000E+00	 5.00000000E-01	 7.00000000E+00
[...]
POINT_DATA 522
FIELD U 1
	U 3 522 double
		 0.00000000E+00	 0.00000000E+00	 0.00000000E+00
		 0.00000000E+00	 0.00000000E+00	 0.00000000E+00
		-6.06036000E-06	 3.11007000E-03	 1.60037000E-05
		 1.09649000E-03	 3.30557000E-03	-3.65476000E-03
		 0.00000000E+00	 0.00000000E+00	 0.00000000E+00
		 0.00000000E+00	 0.00000000E+00	 0.00000000E+00
		-2.65169000E-06	 3.95681000E-03	 8.36221000E-06
		 6.06545000E-04	 4.17280000E-03	-3.70558000E-03
		 0.00000000E+00	 0.00000000E+00	 0.00000000E+00
		-3.32836000E-06	 4.14818000E-04	 1.01844000E-05
		 5.45616000E-04	 3.12081000E-03	-1.82685000E-03
		 8.61832000E-04	 7.22532000E-04	-1.82068000E-03
		 0.00000000E+00	 0.00000000E+00	 0.00000000E+00
		 0.00000000E+00	 0.00000000E+00	 0.00000000E+00
		-4.18176000E-06	 3.61591000E-03	 1.14419000E-05
		 8.48646000E-04	 3.82152000E-03	-3.63150000E-03
		 0.00000000E+00	 0.00000000E+00	 0.00000000E+00
		-9.38898000E-07	 9.83067000E-04	 5.88808000E-06
		 3.01541000E-04	 3.97423000E-03	-1.80440000E-03
		 3.20653000E-04	 1.28589000E-03	-1.77081000E-03
		 0.00000000E+00	 0.00000000E+00	 0.00000000E+00
		-1.11008000E-03	 3.34552000E-03	 3.68131000E-03
		 0.00000000E+00	 0.00000000E+00	 0.00000000E+00
		-6.10994000E-04	 4.21232000E-03	 3.71663000E-03
		 0.00000000E+00	 0.00000000E+00	 0.00000000E+00
		-8.69234000E-04	 7.41973000E-04	 1.84071000E-03
		-5.58313000E-04	 3.14156000E-03	 1.85680000E-03
		 0.00000000E+00	 0.00000000E+00	 0.00000000E+00
		-8.56917000E-04	 3.86120000E-03	 3.64915000E-03
		 0.00000000E+00	 0.00000000E+00	 0.00000000E+00
		-3.21614000E-04	 1.30319000E-03	 1.78325000E-03
		-3.06646000E-04	 3.99424000E-03	 1.81913000E-03
		 0.00000000E+00	 0.00000000E+00	 0.00000000E+00
		 0.00000000E+00	 0.00000000E+00	 0.00000000E+00
		 7.93149000E-08	 4.32758000E-03	 4.73319000E-06
		 1.16005000E-04	 4.52476000E-03	-3.66553000E-03
		 0.00000000E+00	 0.00000000E+00	 0.00000000E+00
		 0.00000000E+00	 0.00000000E+00	 0.00000000E+00
		-1.19074000E-06	 4.22410000E-03	 5.93502000E-06
		 3.64098000E-04	 4.43149000E-03	-3.73785000E-03
		 0.00000000E+00	 0.00000000E+00	 0.00000000E+00
		 5.11277000E-07	 1.05709000E-03	 4.99906000E-06
		 5.84448000E-05	 4.33953000E-03	-1.73699000E-03
		-2.42651000E-04	 1.34549000E-03	-1.82549000E-03
		 0.00000000E+00	 0.00000000E+00	 0.00000000E+00
		-1.12950000E-04	 4.56181000E-03	 3.67053000E-03
		 0.00000000E+00	 0.00000000E+00	 0.00000000E+00
		-3.64990000E-04	 4.47088000E-03	 3.74422000E-03
		 0.00000000E+00	 0.00000000E+00	 0.00000000E+00
		 2.46087000E-04	 1.36135000E-03	 1.83591000E-03
		-5.72913000E-05	 4.35745000E-03	 1.74520000E-03
		-5.62314000E-06	 1.39469000E-02	-1.89714000E-05
		 1.17722000E-03	 1.40217000E-02	-6.41457000E-03
		-4.04320000E-07	 1.49792000E-02	-3.05138000E-05
		 8.96361000E-04	 1.50671000E-02	-6.45427000E-03
		-6.62205000E-06	 7.73170000E-03	 6.59253000E-06
		 5.83087000E-04	 1.39551000E-02	-3.14060000E-03
		 1.22353000E-03	 7.88992000E-03	-5.22019000E-03
		-3.00390000E-06	 1.44920000E-02	-2.52671000E-05
		 1.03792000E-03	 1.45770000E-02	-6.45303000E-03
		-2.67251000E-06	 8.74619000E-03	-3.65551000E-06
		 4.49033000E-04	 1.49954000E-02	-3.18172000E-03
		 8.10794000E-04	 8.91773000E-03	-5.25906000E-03
		-1.18786000E-03	 1.41171000E-02	 6.37236000E-03
		-8.95948000E-04	 1.51610000E-02	 6.38838000E-03
		-1.23794000E-03	 7.95721000E-03	 5.22730000E-03
		-5.94291000E-04	 1.40010000E-02	 3.10186000E-03
		-1.04288000E-03	 1.46721000E-02	 6.39786000E-03
		-8.15252000E-04	 8.98431000E-03	 5.24519000E-03
		-4.49491000E-04	 1.50408000E-02	 3.11968000E-03
		 4.01780000E-06	 1.57391000E-02	-3.78982000E-05
		 6.31570000E-04	 1.58329000E-02	-6.43392000E-03
		 1.96736000E-06	 1.53904000E-02	-3.48050000E-05
		 7.64276000E-04	 1.54782000E-02	-6.46210000E-03
		 5.67521000E-07	 9.35769000E-03	-9.03654000E-06
		 3.15965000E-04	 1.57583000E-02	-3.16027000E-03
		 4.18744000E-04	 9.53896000E-03	-5.23605000E-03
		-6.21869000E-04	 1.59241000E-02	 6.35297000E-03
		-7.58980000E-04	 1.55714000E-02	 6.38755000E-03
		-4.14879000E-04	 9.60312000E-03	 5.21139000E-03
		-3.07361000E-04	 1.58017000E-02	 3.08336000E-03
		-1.10833000E-06	 2.90065000E-02	-1.01882000E-04
		 7.24485000E-04	 2.89607000E-02	-7.45269000E-03
		 3.77590000E-06	 2.97189000E-02	-1.11831000E-04
		 7.00322000E-04	 2.96743000E-02	-7.48446000E-03
		-2.83669000E-06	 2.12119000E-02	-5.65995000E-05
		 3.62493000E-04	 2.89815000E-02	-3.69647000E-03
		 9.97978000E-04	 2.12268000E-02	-7.12237000E-03
		 1.37288000E-06	 2.93663000E-02	-1.06878000E-04
		 7.12555000E-04	 2.93200000E-02	-7.50981000E-03
		 2.39685000E-06	 2.21360000E-02	-6.81383000E-05
		 3.52266000E-04	 2.96942000E-02	-3.75649000E-03
		 8.53699000E-04	 2.21554000E-02	-7.16206000E-03
		-7.26079000E-04	 2.90797000E-02	 7.24828000E-03
		-6.91934000E-04	 2.97926000E-02	 7.26033000E-03
		-1.00293000E-03	 2.13385000E-02	 7.00650000E-03
		-3.64623000E-04	 2.90387000E-02	 3.49249000E-03
		-7.09054000E-04	 2.94398000E-02	 7.29550000E-03
		-8.47749000E-04	 2.22660000E-02	 7.02300000E-03
		-3.44471000E-04	 2.97522000E-02	 3.53260000E-03
		 8.35342000E-06	 3.03986000E-02	-1.21469000E-04
		 6.83745000E-04	 3.03621000E-02	-7.47225000E-03
		 6.13735000E-06	 3.00630000E-02	-1.16639000E-04
		 6.92332000E-04	 3.00203000E-02	-7.45907000E-03
		 7.02891000E-06	 2.29132000E-02	-7.74897000E-05
		 3.43803000E-04	 3.03777000E-02	-3.77653000E-03
		 7.22724000E-04	 2.29440000E-02	-7.14341000E-03
		-6.66082000E-04	 3.04784000E-02	 7.22876000E-03
		-6.79124000E-04	 3.01371000E-02	 7.22536000E-03
		-7.07194000E-04	 2.30518000E-02	 6.98545000E-03
		-3.26876000E-04	 3.04352000E-02	 3.53332000E-03
		-2.11191000E-06	 4.44784000E-02	-1.93852000E-04
		 1.05022000E-04	 4.43762000E-02	-7.21671000E-03
		 1.52653000E-06	 4.46411000E-02	-1.96312000E-04
		 2.14183000E-04	 4.45360000E-02	-7.22835000E-03
		-9.39989000E-07	 3.68590000E-02	-1.48711000E-04
		 5.22549000E-05	 4.44422000E-02	-3.64588000E-03
		 4.17420000E-04	 3.67820000E-02	-7.43992000E-03
		-3.29922000E-07	 4.45464000E-02	-1.95248000E-04
		 1.59721000E-04	 4.44415000E-02	-7.26573000E-03
		 3.20692000E-06	 3.73041000E-02	-1.55646000E-04
		 1.07843000E-04	 4.46031000E-02	-3.69540000E-03
		 4.71608000E-04	 3.72256000E-02	-7.46128000E-03
		-1.09885000E-04	 4.44820000E-02	 6.83040000E-03
		-2.11609000E-04	 4.46432000E-02	 6.83719000E-03
		-4.19023000E-04	 3.68974000E-02	 7.14269000E-03
		-5.66019000E-05	 4.44932000E-02	 3.25879000E-03
		-1.60882000E-04	 4.45492000E-02	 6.87639000E-03
		-4.64941000E-04	 3.73411000E-02	 7.15054000E-03
		-1.04877000E-04	 4.46561000E-02	 3.30322000E-03
		 5.54009000E-06	 4.49040000E-02	-2.00411000E-04
		 3.23145000E-04	 4.48003000E-02	-7.22298000E-03
		 3.50796000E-06	 4.47589000E-02	-1.97816000E-04
		 2.68334000E-04	 4.46550000E-02	-7.19032000E-03
		 7.49637000E-06	 3.77955000E-02	-1.63399000E-04
		 1.64219000E-04	 4.48658000E-02	-3.73011000E-03
		 5.29451000E-04	 3.77222000E-02	-7.45438000E-03
		-3.12244000E-04	 4.49078000E-02	 6.82391000E-03
		-2.61738000E-04	 4.47615000E-02	 6.79658000E-03
		-5.14046000E-04	 3.78369000E-02	 7.12817000E-03
		-1.53088000E-04	 4.49200000E-02	 3.32951000E-03
		 9.11335000E-07	 5.83404000E-02	-2.76333000E-04
		-4.07213000E-04	 5.82249000E-02	-6.38566000E-03
		 2.72236000E-06	 5.80225000E-02	-2.61735000E-04
		-2.36033000E-04	 5.78996000E-02	-6.37454000E-03
		-3.02253000E-06	 5.16717000E-02	-2.36185000E-04
		-2.01446000E-04	 5.83047000E-02	-3.29500000E-03
		-1.73432000E-04	 5.15627000E-02	-6.85027000E-03
		 1.53793000E-06	 5.81604000E-02	-2.68854000E-04
		-3.21841000E-04	 5.80396000E-02	-6.40782000E-03
		-1.75324000E-07	 5.15749000E-02	-2.31927000E-04
		-1.16534000E-04	 5.79831000E-02	-3.30977000E-03
		-3.05726000E-05	 5.14597000E-02	-6.85261000E-03
		 4.05026000E-04	 5.82999000E-02	 5.83435000E-03
		 2.39247000E-04	 5.79815000E-02	 5.85308000E-03
		 1.65319000E-04	 5.16546000E-02	 6.37920000E-03
		 2.01784000E-04	 5.83420000E-02	 2.74241000E-03
		 3.21576000E-04	 5.81187000E-02	 5.87218000E-03
		 2.87040000E-05	 5.15549000E-02	 6.39062000E-03
		 1.21357000E-04	 5.80243000E-02	 2.78655000E-03
		 7.75268000E-06	 5.78649000E-02	-2.49848000E-04
		-6.43498000E-05	 5.77419000E-02	-6.35896000E-03
		 4.74352000E-06	 5.79226000E-02	-2.55154000E-04
		-1.50779000E-04	 5.77991000E-02	-6.34402000E-03
		 4.17718000E-06	 5.16122000E-02	-2.29814000E-04
		-2.91515000E-05	 5.78250000E-02	-3.31888000E-03
		 1.07458000E-04	 5.14941000E-02	-6.84315000E-03
		 7.77423000E-05	 5.78291000E-02	 5.86143000E-03
		 1.58368000E-04	 5.78831000E-02	 5.83541000E-03
		-1.00646000E-04	 5.15924000E-02	 6.38625000E-03
		 4.40377000E-05	 5.78691000E-02	 2.81995000E-03
		 4.42323000E-05	 6.96764000E-02	-3.35689000E-04
		-6.93749000E-04	 6.95887000E-02	-5.35355000E-03
		 4.53436000E-05	 6.90100000E-02	-3.01938000E-04
		-5.59552000E-04	 6.89160000E-02	-5.30699000E-03
		 1.66257000E-05	 6.43437000E-02	-3.10146000E-04
		-3.23795000E-04	 6.96513000E-02	-2.84580000E-03
		-5.67281000E-04	 6.42369000E-02	-5.84625000E-03
		 4.44051000E-05	 6.93261000E-02	-3.18759000E-04
		-6.26871000E-04	 6.92346000E-02	-5.35469000E-03
		 1.84700000E-05	 6.38466000E-02	-2.84529000E-04
		-2.56497000E-04	 6.89816000E-02	-2.83029000E-03
		-3.99962000E-04	 6.37354000E-02	-5.81729000E-03
		 7.79415000E-04	 6.96397000E-02	 4.67946000E-03
		 6.48002000E-04	 6.89730000E-02	 4.70104000E-03
		 5.99801000E-04	 6.43028000E-02	 5.22503000E-03
		 4.11994000E-04	 6.96749000E-02	 2.17286000E-03
		 7.13773000E-04	 6.92892000E-02	 4.71415000E-03
		 4.34376000E-04	 6.38048000E-02	 5.24852000E-03
		 3.47173000E-04	 6.90094000E-02	 2.22582000E-03
		 4.81220000E-05	 6.84707000E-02	-2.67969000E-04
		-4.23510000E-04	 6.83778000E-02	-5.28271000E-03
		 4.66993000E-05	 6.87231000E-02	-2.85172000E-04
		-4.91724000E-04	 6.86293000E-02	-5.25493000E-03
		 2.23185000E-05	 6.35109000E-02	-2.60500000E-04
		-1.88068000E-04	 6.84414000E-02	-2.83979000E-03
		-2.26117000E-04	 6.34031000E-02	-5.79713000E-03
		 5.19235000E-04	 6.84367000E-02	 4.74708000E-03
		 5.83206000E-04	 6.86866000E-02	 4.68495000E-03
		 2.69078000E-04	 6.34762000E-02	 5.27575000E-03
		 2.85093000E-04	 6.84721000E-02	 2.30294000E-03
		 1.12129000E-04	 7.91336000E-02	-3.70932000E-04
		-8.94468000E-04	 7.91017000E-02	-4.97222000E-03
		 1.16186000E-04	 7.81137000E-02	-3.26998000E-04
		-9.01278000E-04	 7.80896000E-02	-4.93076000E-03
		 7.47076000E-05	 7.45182000E-02	-3.63650000E-04
		-3.89634000E-04	 7.91141000E-02	-2.66803000E-03
		-8.16682000E-04	 7.44643000E-02	-5.06066000E-03
		 1.14663000E-04	 7.86275000E-02	-3.47746000E-04
		-8.97327000E-04	 7.85971000E-02	-4.96343000E-03
		 7.85978000E-05	 7.36566000E-02	-3.17739000E-04
		-3.90897000E-04	 7.80972000E-02	-2.64918000E-03
		-7.47710000E-04	 7.36014000E-02	-5.00455000E-03
		 1.14275000E-03	 7.91786000E-02	 4.20954000E-03
		 1.14430000E-03	 7.81432000E-02	 4.26736000E-03
		 9.60195000E-04	 7.45057000E-02	 4.34621000E-03
		 6.25162000E-04	 7.91569000E-02	 1.91551000E-03
		 1.14188000E-03	 7.86633000E-02	 4.25557000E-03
		 9.02166000E-04	 7.36475000E-02	 4.37461000E-03
		 6.27212000E-04	 7.81280000E-02	 1.98939000E-03
		 1.20948000E-04	 7.70836000E-02	-2.79586000E-04
		-9.17033000E-04	 7.70569000E-02	-4.91366000E-03
		 1.18123000E-04	 7.75979000E-02	-3.03177000E-04
		-9.08606000E-04	 7.75752000E-02	-4.89923000E-03
		 8.29911000E-05	 7.28553000E-02	-2.75639000E-04
		-3.95769000E-04	 7.70661000E-02	-2.64404000E-03
		-6.87839000E-04	 7.27939000E-02	-4.98347000E-03
		 1.15660000E-03	 7.71099000E-02	 4.33627000E-03
		 1.15032000E-03	 7.76272000E-02	 4.27464000E-03
		 8.47833000E-04	 7.28507000E-02	 4.43526000E-03
		 6.35984000E-04	 7.70951000E-02	 2.07972000E-03
		 1.71321000E-04	 8.85066000E-02	-3.88527000E-04
		-9.91845000E-04	 8.84946000E-02	-5.06557000E-03
		 1.78037000E-04	 8.74127000E-02	-3.68002000E-04
		-9.61265000E-04	 8.74263000E-02	-5.12144000E-03
		 1.56126000E-04	 8.38041000E-02	-3.71092000E-04
		-4.24191000E-04	 8.85031000E-02	-2.72093000E-03
		-9.51260000E-04	 8.37762000E-02	-5.02391000E-03
		 1.75506000E-04	 8.79481000E-02	-3.78917000E-04
		-9.79112000E-04	 8.79587000E-02	-5.09096000E-03
		 1.55217000E-04	 8.26942000E-02	-3.39251000E-04
		-4.09216000E-04	 8.74155000E-02	-2.72742000E-03
		-9.46261000E-04	 8.26758000E-02	-5.03496000E-03
		 1.31775000E-03	 8.85062000E-02	 4.24591000E-03
		 1.32821000E-03	 8.74214000E-02	 4.33422000E-03
		 1.26301000E-03	 8.38217000E-02	 4.22867000E-03
		 7.52736000E-04	 8.85063000E-02	 1.92457000E-03
		 1.32686000E-03	 8.79535000E-02	 4.27761000E-03
		 1.26691000E-03	 8.27217000E-02	 4.30745000E-03
		 7.69574000E-04	 8.74133000E-02	 1.97538000E-03
		 1.88842000E-04	 8.63349000E-02	-3.39214000E-04
		-9.35071000E-04	 8.63580000E-02	-5.11815000E-03
		 1.80817000E-04	 8.68837000E-02	-3.56591000E-04
		-9.44247000E-04	 8.68999000E-02	-5.13778000E-03
		 1.53804000E-04	 8.15945000E-02	-2.99825000E-04
		-3.82789000E-04	 8.63491000E-02	-2.71166000E-03
		-9.64701000E-04	 8.15905000E-02	-5.02430000E-03
		 1.35634000E-03	 8.63348000E-02	 4.42921000E-03
		 1.34140000E-03	 8.68977000E-02	 4.39938000E-03
		 1.30839000E-03	 8.15917000E-02	 4.38882000E-03
		 7.71234000E-04	 8.63261000E-02	 2.02974000E-03
		 0.00000000E+00	 0.00000000E+00	 0.00000000E+00
		 0.00000000E+00	 0.00000000E+00	 0.00000000E+00
		-2.01068000E-05	-1.29589000E-02	-2.42799000E-04
		-3.26785000E-03	-1.39507000E-02	 1.33944000E-02
		 0.00000000E+00	 0.00000000E+00	 0.00000000E+00
		 0.00000000E+00	 0.00000000E+00	 0.00000000E+00
		-4.50474000E-05	-1.52827000E-02	-3.66966000E-04
		-1.49341000E-03	-1.63287000E-02	 1.34288000E-02
		 0.00000000E+00	 0.00000000E+00	 0.00000000E+00
		 3.24583000E-05	-2.38190000E-03	-8.12850000E-05
		-1.64751000E-03	-1.31416000E-02	 6.54440000E-03
		-2.73873000E-03	-3.61659000E-03	 6.82110000E-03
		 0.00000000E+00	 0.00000000E+00	 0.00000000E+00
		 0.00000000E+00	 0.00000000E+00	 0.00000000E+00
		-2.88473000E-05	-1.44231000E-02	-3.11938000E-04
		-2.36267000E-03	-1.54401000E-02	 1.32811000E-02
		 0.00000000E+00	 0.00000000E+00	 0.00000000E+00
		-7.25699000E-06	-4.02483000E-03	-1.31147000E-04
		-7.71421000E-04	-1.54779000E-02	 6.36551000E-03
		-7.26819000E-04	-5.23344000E-03	 6.58284000E-03
		 0.00000000E+00	 0.00000000E+00	 0.00000000E+00
		 3.20750000E-03	-1.35388000E-02	-1.39444000E-02
		 0.00000000E+00	 0.00000000E+00	 0.00000000E+00
		 1.41804000E-03	-1.59328000E-02	-1.42318000E-02
		 0.00000000E+00	 0.00000000E+00	 0.00000000E+00
		 2.79445000E-03	-3.49360000E-03	-7.01226000E-03
		 1.59791000E-03	-1.29308000E-02	-7.05091000E-03
		 0.00000000E+00	 0.00000000E+00	 0.00000000E+00
		 2.30668000E-03	-1.50333000E-02	-1.39689000E-02
		 0.00000000E+00	 0.00000000E+00	 0.00000000E+00
		 7.25726000E-04	-5.14207000E-03	-6.86501000E-03
		 6.83003000E-04	-1.52785000E-02	-7.12136000E-03
		 0.00000000E+00	 0.00000000E+00	 0.00000000E+00
		 0.00000000E+00	 0.00000000E+00	 0.00000000E+00
		-8.54280000E-05	-1.58650000E-02	-4.31355000E-04
		 2.75718000E-04	-1.68198000E-02	 1.32129000E-02
		 0.00000000E+00	 0.00000000E+00	 0.00000000E+00
		 0.00000000E+00	 0.00000000E+00	 0.00000000E+00
		-6.33934000E-05	-1.58739000E-02	-4.08039000E-04
		-6.20403000E-04	-1.68777000E-02	 1.34454000E-02
		 0.00000000E+00	 0.00000000E+00	 0.00000000E+00
		-6.26191000E-05	-3.83222000E-03	-1.58709000E-04
		 9.16476000E-05	-1.60224000E-02	 6.10005000E-03
		 1.32109000E-03	-4.98722000E-03	 6.74550000E-03
		 0.00000000E+00	 0.00000000E+00	 0.00000000E+00
		-4.01312000E-04	-1.64616000E-02	-1.41306000E-02
		 0.00000000E+00	 0.00000000E+00	 0.00000000E+00
		 5.18025000E-04	-1.64936000E-02	-1.43276000E-02
		 0.00000000E+00	 0.00000000E+00	 0.00000000E+00
		-1.41457000E-03	-4.91703000E-03	-7.08932000E-03
		-2.46882000E-04	-1.58510000E-02	-6.97580000E-03
		-1.76804000E-04	-5.24305000E-02	-1.12110000E-03
		-4.11142000E-03	-5.35857000E-02	 2.28414000E-02
		-1.81274000E-04	-5.57499000E-02	-1.36342000E-03
		-2.91830000E-03	-5.69095000E-02	 2.26734000E-02
		-8.51116000E-05	-2.99675000E-02	-5.77380000E-04
		-2.14345000E-03	-5.28746000E-02	 1.07465000E-02
		-3.78204000E-03	-3.11361000E-02	 1.87746000E-02
		-1.77742000E-04	-5.42189000E-02	-1.25339000E-03
		-3.51434000E-03	-5.53772000E-02	 2.27205000E-02
		-1.06791000E-04	-3.28743000E-02	-7.65263000E-04
		-1.54687000E-03	-5.61971000E-02	 1.05113000E-02
		-2.24324000E-03	-3.40432000E-02	 1.86687000E-02
		 3.76361000E-03	-5.23947000E-02	-2.51538000E-02
		 2.56364000E-03	-5.57455000E-02	-2.54711000E-02
		 3.59940000E-03	-3.03561000E-02	-2.00139000E-02
		 1.78927000E-03	-5.22899000E-02	-1.30046000E-02
		 3.16841000E-03	-5.42064000E-02	-2.52951000E-02
		 2.04328000E-03	-3.32816000E-02	-2.02843000E-02
		 1.19076000E-03	-5.56293000E-02	-1.32516000E-02
		-2.03869000E-04	-5.78988000E-02	-1.53922000E-03
		-1.73188000E-03	-5.90198000E-02	 2.24243000E-02
		-1.91200000E-04	-5.69526000E-02	-1.45759000E-03
		-2.32243000E-03	-5.81297000E-02	 2.26597000E-02
		-1.44026000E-04	-3.42472000E-02	-8.84588000E-04
		-9.75467000E-04	-5.83165000E-02	 1.01869000E-02
		-7.34317000E-04	-3.53975000E-02	 1.84706000E-02
		 1.36964000E-03	-5.79066000E-02	-2.55719000E-02
		 1.96693000E-03	-5.69502000E-02	-2.56474000E-02
		 4.95827000E-04	-3.46869000E-02	-2.03204000E-02
		 5.81236000E-04	-5.77855000E-02	-1.32772000E-02
		-3.26402000E-04	-1.08177000E-01	-2.75199000E-03
		-4.51364000E-03	-1.09264000E-01	 2.67534000E-02
		-3.18609000E-04	-1.12070000E-01	-3.03519000E-03
		-3.97929000E-03	-1.13265000E-01	 2.65337000E-02
		-2.57208000E-04	-7.89150000E-02	-1.85710000E-03
		-2.41696000E-03	-1.08648000E-01	 1.18957000E-02
		-4.34087000E-03	-8.00838000E-02	 2.54097000E-02
		-3.20795000E-04	-1.10193000E-01	-2.89468000E-03
		-4.24855000E-03	-1.11345000E-01	 2.66113000E-02
		-2.56846000E-04	-8.25644000E-02	-2.13156000E-03
		-2.17373000E-03	-1.12598000E-01	 1.16020000E-02
		-3.49521000E-03	-8.37399000E-02	 2.52165000E-02
		 3.82544000E-03	-1.07548000E-01	-3.22736000E-02
		 3.34533000E-03	-1.11454000E-01	-3.26554000E-02
		 3.82235000E-03	-7.85779000E-02	-2.91800000E-02
		 1.75236000E-03	-1.07805000E-01	-1.73972000E-02
		 3.58439000E-03	-1.09562000E-01	-3.24456000E-02
		 2.99194000E-03	-8.22272000E-02	-2.95342000E-02
		 1.51465000E-03	-1.11711000E-01	-1.77005000E-02
		-3.21391000E-04	-1.15469000E-01	-3.28786000E-03
		-3.55720000E-03	-1.16778000E-01	 2.62110000E-02
		-3.18963000E-04	-1.13848000E-01	-3.16720000E-03
		-3.77062000E-03	-1.14974000E-01	 2.64733000E-02
		-2.59428000E-04	-8.53789000E-02	-2.35464000E-03
		-1.90698000E-03	-1.16053000E-01	 1.12120000E-02
		-2.69880000E-03	-8.65768000E-02	 2.49171000E-02
		 2.87661000E-03	-1.14893000E-01	-3.28663000E-02
		 3.11190000E-03	-1.13225000E-01	-3.28620000E-02
		 2.15409000E-03	-8.50607000E-02	-2.96825000E-02
		 1.26653000E-03	-1.15143000E-01	-1.78393000E-02
		-3.53837000E-04	-1.70321000E-01	-4.76023000E-03
		-4.66231000E-03	-1.71159000E-01	 2.60783000E-02
		-3.47263000E-04	-1.74702000E-01	-5.02769000E-03
		-4.82362000E-03	-1.75994000E-01	 2.58496000E-02
		-3.88438000E-04	-1.38979000E-01	-3.73907000E-03
		-2.51000000E-03	-1.70745000E-01	 1.05958000E-02
		-4.63249000E-03	-1.40054000E-01	 2.68360000E-02
		-3.49277000E-04	-1.72469000E-01	-4.89110000E-03
		-4.73346000E-03	-1.73479000E-01	 2.59660000E-02
		-3.84963000E-04	-1.43156000E-01	-4.06022000E-03
		-2.46262000E-03	-1.75339000E-01	 1.03379000E-02
		-4.48567000E-03	-1.44177000E-01	 2.66557000E-02
		 3.78991000E-03	-1.69356000E-01	-3.55943000E-02
		 3.83582000E-03	-1.73580000E-01	-3.58925000E-02
		 3.83093000E-03	-1.38152000E-01	-3.43255000E-02
		 1.71832000E-03	-1.69858000E-01	-2.01122000E-02
		 3.81664000E-03	-1.71454000E-01	-3.57432000E-02
		 3.64756000E-03	-1.42286000E-01	-3.46831000E-02
		 1.73189000E-03	-1.74134000E-01	-2.03935000E-02
		-4.82338000E-04	-1.79148000E-01	-5.30164000E-03
		-4.85558000E-03	-1.80801000E-01	 2.55469000E-02
		-4.12539000E-04	-1.76879000E-01	-5.16746000E-03
		-4.83739000E-03	-1.78874000E-01	 2.57338000E-02
		-4.09894000E-04	-1.47134000E-01	-4.39563000E-03
		-2.78507000E-03	-1.79948000E-01	 1.00097000E-02
		-4.17785000E-03	-1.48043000E-01	 2.63271000E-02
		 3.89537000E-03	-1.77879000E-01	-3.61270000E-02