<?xml version="1.0"?>
<VTKFile type="UnstructuredGrid" version="0.1" byte_order="LittleEndian">
	<UnstructuredGrid>
		<Piece NumberOfPoints="522" NumberOfCells="64">
			<Points>
				<DataArray type="Float64" NumberOfComponents="3" format="ascii">
					 1.00000000E+00	 1.00000000E+00	-5.96046000E-08
					 1.00000000E+00	 5.00000000E-01	-5.96046000E-08
					 1.00000000E+00	 5.00000000E-01	 1.00000000E+00
					 1.00000000E+00	 1.00000000E+00	 1.00000000E+00
					 5.00000000E-01	 1.00000000E+00	-5.96046000E-08
					 5.00000000E-01	 5.00000000E-01	-5.96046000E-08
					 5.00000000E-01	 5.00000000E-01	 1.00000000E+00
					 5.00000000E-01	 1.00000000E+00	 1.00000000E+00
					 1.00000000E+00	 7.50000000E-01	-5.96046000E-08
					 1.00000000E+00	 5.00000000E-01	 5.00000000E-01
					 1.00000000E+00	 7.50000000E-01	 1.00000000E+00
					 1.00000000E+00	 1.00000000E+00	 5.00000000E-01
					 7.50000000E-01	 1.00000000E+00	-5.96046000E-08
					 7.50000000E-01	 5.00000000E-01	-5.96046000E-08
					 7.50000000E-01	 5.00000000E-01	 1.00000000E+00
					 7.50000000E-01	 1.00000000E+00	 1.00000000E+00
					 5.00000000E-01	 7.50000000E-01	-5.96046000E-08
					 5.00000000E-01	 5.00000000E-01	 5.00000000E-01
					 5.00000000E-01	 7.50000000E-01	 1.00000000E+00
					 5.00000000E-01	 1.00000000E+00	 5.00000000E-01
					 1.00000000E+00	-1.49012000E-08	-5.96046000E-08
					 1.00000000E+00	-1.49012000E-08	 1.00000000E+00
					 5.00000000E-01	-1.49012000E-08	-5.96046000E-08
					 5.00000000E-01	-1.49012000E-08	 1.00000000E+00
					 1.00000000E+00	 2.50000000E-01	-5.96046000E-08
					 1.00000000E+00	-1.49012000E-08	 5.00000000E-01
					 1.00000000E+00	 2.50000000E-01	 1.00000000E+00
					 7.50000000E-01	-1.49012000E-08	-5.96046000E-08
					 7.50000000E-01	-1.49012000E-08	 1.00000000E+00
					 5.00000000E-01	 2.50000000E-01	-5.96046000E-08
					 5.00000000E-01	-1.49012000E-08	 5.00000000E-01
					 5.00000000E-01	 2.50000000E-01	 1.00000000E+00
					-7.45058000E-09	 1.00000000E+00	-5.96046000E-08
					-7.45058000E-09	 5.00000000E-01	-5.96046000E-08
					-7.45058000E-09	 5.00000000E-01	 1.00000000E+00
					-7.45058000E-09	 1.00000000E+00	 1.00000000E+00
					 2.50000000E-01	 1.00000000E+00	-5.96046000E-08
					 2.50000000E-01	 5.00000000E-01	-5.96046000E-08
					 2.50000000E-01	 5.00000000E-01	 1.00000000E+00
					 2.50000000E-01	 1.00000000E+00	 1.00000000E+00
					-7.45058000E-09	 7.50000000E-01	-5.96046000E-08
					-7.45058000E-09	 5.00000000E-01	 5.00000000E-01
					-7.45058000E-09	 7.50000000E-01	 1.00000000E+00
					-7.45058000E-09	 1.00000000E+00	 5.00000000E-01
					-7.45058000E-09	-1.49012000E-08	-5.96046000E-08
					-7.45058000E-09	-1.49012000E-08	 1.00000000E+00
					 2.50000000E-01	-1.49012000E-08	-5.96046000E-08
					 2.50000000E-01	-1.49012000E-08	 1.00000000E+00
					-7.45058000E-09	 2.50000000E-01	-5.96046000E-08
					-7.45058000E-09	-1.49012000E-08	 5.00000000E-01
					-7.45058000E-09	 2.50000000E-01	 1.00000000E+00
					 1.00000000E+00	 5.00000000E-01	 2.00000000E+00
					 1.00000000E+00	 1.00000000E+00	 2.00000000E+00
					 5.00000000E-01	 5.00000000E-01	 2.00000000E+00
					 5.00000000E-01	 1.00000000E+00	 2.00000000E+00
					 1.00000000E+00	 5.00000000E-01	 1.50000000E+00
					 1.00000000E+00	 7.50000000E-01	 2.00000000E+00
					 1.00000000E+00	 1.00000000E+00	 1.50000000E+00
					 7.50000000E-01	 5.00000000E-01	 2.00000000E+00
					 7.50000000E-01	 1.00000000E+00	 2.00000000E+00
					 5.00000000E-01	 5.00000000E-01	 1.50000000E+00
					 5.00000000E-01	 7.50000000E-01	 2.00000000E+00
					 5.00000000E-01	 1.00000000E+00	 1.50000000E+00
					 1.00000000E+00	-1.49012000E-08	 2.00000000E+00
					 5.00000000E-01	-1.49012000E-08	 2.00000000E+00
					 1.00000000E+00	-1.49012000E-08	 1.50000000E+00
					 1.00000000E+00	 2.50000000E-01	 2.00000000E+00
					 7.50000000E-01	-1.49012000E-08	 2.00000000E+00
					 5.00000000E-01	-1.49012000E-08	 1.50000000E+00
					 5.00000000E-01	 2.50000000E-01	 2.00000000E+00
					-7.45058000E-09	 5.00000000E-01	 2.00000000E+00
					-7.45058000E-09	 1.00000000E+00	 2.00000000E+00
					 2.50000000E-01	 5.00000000E-01	 2.00000000E+00
					 2.50000000E-01	 1.00000000E+00	 2.00000000E+00
					-7.45058000E-09	 5.00000000E-01	 1.50000000E+00
					-7.45058000E-09	 7.50000000E-01	 2.00000000E+00
					-7.45058000E-09	 1.00000000E+00	 1.50000000E+00
					-7.45058000E-09	-1.49012000E-08	 2.00000000E+00
					 2.50000000E-01	-1.49012000E-08	 2.00000000E+00
					-7.45058000E-09	-1.49012000E-08	 1.50000000E+00
					-7.45058000E-09	 2.50000000E-01	 2.00000000E+00
					 1.00000000E+00	 5.00000000E-01	 3.00000000E+00
					 1.00000000E+00	 1.00000000E+00	 3.00000000E+00
					 5.00000000E-01	 5.00000000E-01	 3.00000000E+00
					 5.00000000E-01	 1.00000000E+00	 3.00000000E+00
					 1.00000000E+00	 5.00000000E-01	 2.50000000E+00
					 1.00000000E+00	 7.50000000E-01	 3.00000000E+00
					 1.00000000E+00	 1.00000000E+00	 2.50000000E+00
					 7.50000000E-01	 5.00000000E-01	 3.00000000E+00
					 7.50000000E-01	 1.00000000E+00	 3.00000000E+00
					 5.00000000E-01	 5.00000000E-01	 2.50000000E+00
					 5.00000000E-01	 7.50000000E-01	 3.00000000E+00
					 5.00000000E-01	 1.00000000E+00	 2.50000000E+00
					 1.00000000E+00	-1.49012000E-08	 3.00000000E+00
					 5.00000000E-01	-1.49012000E-08	 3.00000000E+00
					 1.00000000E+00	-1.49012000E-08	 2.50000000E+00
					 1.00000000E+00	 2.50000000E-01	 3.00000000E+00
					 7.50000000E-01	-1.49012000E-08	 3.00000000E+00
					 5.00000000E-01	-1.49012000E-08	 2.50000000E+00
					 5.00000000E-01	 2.50000000E-01	 3.00000000E+00
					-7.45058000E-09	 5.00000000E-01	 3.00000000E+00
					-7.45058000E-09	 1.00000000E+00	 3.00000000E+00
					 2.50000000E-01	 5.00000000E-01	 3.00000000E+00
					 2.50000000E-01	 1.00000000E+00	 3.00000000E+00
					-7.45058000E-09	 5.00000000E-01	 2.50000000E+00
					-7.45058000E-09	 7.50000000E-01	 3.00000000E+00
					-7.45058000E-09	 1.00000000E+00	 2.50000000E+00
					-7.45058000E-09	-1.49012000E-08	 3.00000000E+00
					 2.50000000E-01	-1.49012000E-08	 3.00000000E+00
					-7.45058000E-09	-1.49012000E-08	 2.50000000E+00
					-7.45058000E-09	 2.50000000E-01	 3.00000000E+00
					 1.00000000E+00	 5.00000000E-01	 4.00000000E+00
					 1.00000000E+00	 1.00000000E+00	 4.00000000E+00
					 5.00000000E-01	 5.00000000E-01	 4.00000000E+00
					 5.00000000E-01	 1.00000000E+00	 4.00000000E+00
					 1.00000000E+00	 5.00000000E-01	 3.50000000E+00
					 1.00000000E+00	 7.50000000E-01	 4.00000000E+00
					 1.00000000E+00	 1.00000000E+00	 3.50000000E+00
					 7.50000000E-01	 5.00000000E-01	 4.00000000E+00
					 7.50000000E-01	 1.00000000E+00	 4.00000000E+00
					 5.00000000E-01	 5.00000000E-01	 3.50000000E+00
					 5.00000000E-01	 7.50000000E-01	 4.00000000E+00
					 5.00000000E-01	 1.00000000E+00	 3.50000000E+00
					 1.00000000E+00	-1.49012000E-08	 4.00000000E+00
					 5.00000000E-01	-1.49012000E-08	 4.00000000E+00
					 1.00000000E+00	-1.49012000E-08	 3.50000000E+00
					 1.00000000E+00	 2.50000000E-01	 4.00000000E+00
					 7.50000000E-01	-1.49012000E-08	 4.00000000E+00
					 5.00000000E-01	-1.49012000E-08	 3.50000000E+00
					 5.00000000E-01	 2.50000000E-01	 4.00000000E+00
					-7.45058000E-09	 5.00000000E-01	 4.00000000E+00
					-7.45058000E-09	 1.00000000E+00	 4.00000000E+00
					 2.50000000E-01	 5.00000000E-01	 4.00000000E+00
					 2.50000000E-01	 1.00000000E+00	 4.00000000E+00
					-7.45058000E-09	 5.00000000E-01	 3.50000000E+00
					-7.45058000E-09	 7.50000000E-01	 4.00000000E+00
					-7.45058000E-09	 1.00000000E+00	 3.50000000E+00
					-7.45058000E-09	-1.49012000E-08	 4.00000000E+00
					 2.50000000E-01	-1.49012000E-08	 4.00000000E+00
					-7.45058000E-09	-1.49012000E-08	 3.50000000E+00
					-7.45058000E-09	 2.50000000E-01	 4.00000000E+00
					 1.00000000E+00	 5.00000000E-01	 5.00000000E+00
					 1.00000000E+00	 1.00000000E+00	 5.00000000E+00
					 5.00000000E-01	 5.00000000E-01	 5.00000000E+00
					 5.00000000E-01	 1.00000000E+00	 5.00000000E+00
					 1.00000000E+00	 5.00000000E-01	 4.50000000E+00
					 1.00000000E+00	 7.50000000E-01	 5.00000000E+00
					 1.00000000E+00	 1.00000000E+00	 4.50000000E+00
					 7.50000000E-01	 5.00000000E-01	 5.00000000E+00
					 7.50000000E-01	 1.00000000E+00	 5.00000000E+00
					 5.00000000E-01	 5.00000000E-01	 4.50000000E+00
					 5.00000000E-01	 7.50000000E-01	 5.00000000E+00
					 5.00000000E-01	 1.00000000E+00	 4.50000000E+00
					 1.00000000E+00	-1.49012000E-08	 5.00000000E+00
					 5.00000000E-01	-1.49012000E-08	 5.00000000E+00
					 1.00000000E+00	-1.49012000E-08	 4.50000000E+00
					 1.00000000E+00	 2.50000000E-01	 5.00000000E+00
					 7.50000000E-01	-1.49012000E-08	 5.00000000E+00
					 5.00000000E-01	-1.49012000E-08	 4.50000000E+00
					 5.00000000E-01	 2.50000000E-01	 5.00000000E+00
					-7.45058000E-09	 5.00000000E-01	 5.00000000E+00
					-7.45058000E-09	 1.00000000E+00	 5.00000000E+00
					 2.50000000E-01	 5.00000000E-01	 5.00000000E+00
					 2.50000000E-01	 1.00000000E+00	 5.00000000E+00
					-7.45058000E-09	 5.00000000E-01	 4.50000000E+00
					-7.45058000E-09	 7.50000000E-01	 5.00000000E+00
					-7.45058000E-09	 1.00000000E+00	 4.50000000E+00
					-7.45058000E-09	-1.49012000E-08	 5.00000000E+00
					 2.50000000E-01	-1.49012000E-08	 5.00000000E+00
					-7.45058000E-09	-1.49012000E-08	 4.50000000E+00
					-7.45058000E-09	 2.50000000E-01	 5.00000000E+00
					 1.00000000E+00	 5.00000000E-01	 6.00000000E+00
					 1.00000000E+00	 1.00000000E+00	 6.00000000E+00
					 5.00000000E-01	 5.00000000E-01	 6.00000000E+00
					 5.00000000E-01	 1.00000000E+00	 6.00000000E+00
					 1.00000000E+00	 5.00000000E-01	 5.50000000E+00
					 1.00000000E+00	 7.50000000E-01	 6.00000000E+00
					 1.00000000E+00	 1.00000000E+00	 5.50000000E+00
					 7.50000000E-01	 5.00000000E-01	 6.00000000E+00
					 7.50000000E-01	 1.00000000E+00	 6.00000000E+00
					 5.00000000E-01	 5.00000000E-01	 5.50000000E+00
					 5.00000000E-01	 7.50000000E-01	 6.00000000E+00
					 5.00000000E-01	 1.00000000E+00	 5.50000000E+00
					 1.00000000E+00	-1.49012000E-08	 6.00000000E+00
[...]
			<PointData>
				<DataArray type="Float32" Name="U" NumberOfComponents="3" ComponentName0="D1" ComponentName1="D2" ComponentName2="D3" format="ascii">
					 0.00000000E+00	 0.00000000E+00	 0.00000000E+00
					 0.00000000E+00	 0.00000000E+00	 0.00000000E+00
					 2.07664000E-05	-3.32217000E-04	-6.34179000E-05
					 3.41634000E-04	-2.52827000E-04	-4.99352000E-04
					 0.00000000E+00	 0.00000000E+00	 0.00000000E+00
					 0.00000000E+00	 0.00000000E+00	 0.00000000E+00
					 1.34541000E-05	-8.01960000E-05	-5.22715000E-05
					 1.95658000E-04	-1.44457000E-06	-4.72636000E-04
					 0.00000000E+00	 0.00000000E+00	 0.00000000E+00
					 9.82643000E-06	-2.53109000E-04	-3.08185000E-05
					 1.82211000E-04	-3.10202000E-04	-3.45307000E-04
					 1.61722000E-04	-1.95457000E-04	-1.49953000E-04
					 0.00000000E+00	 0.00000000E+00	 0.00000000E+00
					 0.00000000E+00	 0.00000000E+00	 0.00000000E+00
					 1.67348000E-05	-1.88051000E-04	-5.71435000E-05
					 2.68205000E-04	-1.09987000E-04	-4.57626000E-04
					 0.00000000E+00	 0.00000000E+00	 0.00000000E+00
					 9.28186000E-07	-1.25582000E-04	-2.35826000E-05
					 1.04388000E-04	-5.83586000E-05	-3.01041000E-04
					 9.37761000E-05	-7.63755000E-05	-1.27411000E-04
					 0.00000000E+00	 0.00000000E+00	 0.00000000E+00
					-3.00105000E-04	-2.67560000E-04	 3.73781000E-04
					 0.00000000E+00	 0.00000000E+00	 0.00000000E+00
					-1.68747000E-04	-1.68412000E-05	 3.68814000E-04
					 0.00000000E+00	 0.00000000E+00	 0.00000000E+00
					-1.42652000E-04	-2.14403000E-04	 8.55276000E-05
					-1.40739000E-04	-3.17402000E-04	 2.18957000E-04
					 0.00000000E+00	 0.00000000E+00	 0.00000000E+00
					-2.34406000E-04	-1.25300000E-04	 3.44552000E-04
					 0.00000000E+00	 0.00000000E+00	 0.00000000E+00
					-9.28398000E-05	-9.30041000E-05	 7.74342000E-05
					-7.72531000E-05	-6.62168000E-05	 1.97022000E-04
					 0.00000000E+00	 0.00000000E+00	 0.00000000E+00
					 0.00000000E+00	 0.00000000E+00	 0.00000000E+00
					 7.04403000E-06	 3.25827000E-05	-3.93660000E-05
					 4.73578000E-05	 1.08437000E-04	-4.76422000E-04
					 0.00000000E+00	 0.00000000E+00	 0.00000000E+00
					 0.00000000E+00	 0.00000000E+00	 0.00000000E+00
					 1.01670000E-05	-5.90086000E-06	-4.65392000E-05
					 1.21351000E-04	 7.14152000E-05	-4.79611000E-04
					 0.00000000E+00	 0.00000000E+00	 0.00000000E+00
					-5.98842000E-06	-6.64891000E-05	-1.84048000E-05
					 2.70113000E-05	 5.28193000E-05	-2.89822000E-04
					 2.07923000E-05	-1.85118000E-05	-1.37836000E-04
					 0.00000000E+00	 0.00000000E+00	 0.00000000E+00
					-3.37438000E-05	 9.52555000E-05	 3.97647000E-04
					 0.00000000E+00	 0.00000000E+00	 0.00000000E+00
					-1.01427000E-04	 5.69939000E-05	 3.86725000E-04
					 0.00000000E+00	 0.00000000E+00	 0.00000000E+00
					-3.44571000E-05	-3.11993000E-05	 9.83032000E-05
					-1.27031000E-05	 4.59890000E-05	 2.11528000E-04
					 4.78154000E-05	 1.23204000E-03	-1.07702000E-04
					 6.84819000E-04	 1.36244000E-03	-1.97076000E-03
					 4.25778000E-05	 1.73401000E-03	-1.02254000E-04
					 4.14214000E-04	 1.86848000E-03	-1.95926000E-03
					 3.64615000E-05	 5.19594000E-05	-8.73865000E-05
					 3.64497000E-04	 1.26309000E-03	-1.06507000E-03
					 5.27549000E-04	 1.55980000E-04	-1.14147000E-03
					 4.54842000E-05	 1.51641000E-03	-1.04824000E-04
					 5.50138000E-04	 1.65029000E-03	-1.94936000E-03
					 3.05953000E-05	 4.31707000E-04	-7.68542000E-05
					 2.28078000E-04	 1.76665000E-03	-1.04133000E-03
					 3.03072000E-04	 5.39940000E-04	-1.11701000E-03
					-5.88492000E-04	 1.35867000E-03	 1.75590000E-03
					-3.28445000E-04	 1.86146000E-03	 1.75507000E-03
					-4.53455000E-04	 1.45226000E-04	 9.67148000E-04
					-2.68876000E-04	 1.26095000E-03	 8.49865000E-04
					-4.58574000E-04	 1.64485000E-03	 1.74014000E-03
					-2.41388000E-04	 5.26794000E-04	 9.63695000E-04
					-1.43017000E-04	 1.76310000E-03	 8.36915000E-04
					 3.47956000E-05	 1.97538000E-03	-9.68627000E-05
					 1.39549000E-04	 2.10705000E-03	-1.96003000E-03
					 3.91950000E-05	 1.88839000E-03	-9.98060000E-05
					 2.76921000E-04	 2.02270000E-03	-1.97132000E-03
					 2.36971000E-05	 5.97140000E-04	-6.56708000E-05
					 8.84253000E-05	 2.00688000E-03	-1.02745000E-03
					 7.85145000E-05	 7.03928000E-04	-1.12022000E-03
					-6.88526000E-05	 2.09766000E-03	 1.76666000E-03
					-1.97872000E-04	 2.01448000E-03	 1.77190000E-03
					-3.09322000E-05	 6.89628000E-04	 9.89101000E-04
					-1.86220000E-05	 2.00242000E-03	 8.33965000E-04
					 5.02129000E-05	 6.41869000E-03	-1.52540000E-04
					 9.53658000E-04	 6.54820000E-03	-3.82769000E-03
					 4.40806000E-05	 7.18628000E-03	-1.63664000E-04
					 6.74441000E-04	 7.31479000E-03	-3.83674000E-03
					 5.26408000E-05	 3.37621000E-03	-1.28882000E-04
					 5.02856000E-04	 6.44911000E-03	-2.02027000E-03
					 8.08226000E-04	 3.50936000E-03	-2.88651000E-03
					 4.77673000E-05	 6.83733000E-03	-1.58324000E-04
					 8.14253000E-04	 6.96480000E-03	-3.80693000E-03
					 4.67494000E-05	 3.99754000E-03	-1.30843000E-04
					 3.58502000E-04	 7.21620000E-03	-2.00507000E-03
					 5.32327000E-04	 4.13069000E-03	-2.88786000E-03
					-8.52493000E-04	 6.57060000E-03	 3.52258000E-03
					-5.83376000E-04	 7.33306000E-03	 3.50905000E-03
					-7.02565000E-04	 3.51600000E-03	 2.62952000E-03
					-4.02405000E-04	 6.46103000E-03	 1.71512000E-03
					-7.17078000E-04	 6.98522000E-03	 3.49043000E-03
					-4.37400000E-04	 4.13413000E-03	 2.62656000E-03
					-2.69616000E-04	 7.22596000E-03	 1.67774000E-03
					 3.51856000E-05	 7.67632000E-03	-1.73685000E-04
					 3.87637000E-04	 7.80683000E-03	-3.84900000E-03
					 3.97067000E-05	 7.46530000E-03	-1.68802000E-04
					 5.31118000E-04	 7.59525000E-03	-3.86717000E-03
					 3.82145000E-05	 4.34630000E-03	-1.32613000E-04
					 2.11268000E-04	 7.70719000E-03	-1.99193000E-03
					 2.48808000E-04	 4.47836000E-03	-2.89040000E-03
					-3.12117000E-04	 7.81752000E-03	 3.50090000E-03
					-4.47475000E-04	 7.61054000E-03	 3.52848000E-03
					-1.69746000E-04	 4.47731000E-03	 2.62511000E-03
					-1.39498000E-04	 7.71247000E-03	 1.64480000E-03
					 2.23467000E-05	 1.51341000E-02	-2.15922000E-04
					 1.40143000E-03	 1.52539000E-02	-5.84581000E-03
					 1.63299000E-05	 1.63512000E-02	-2.49712000E-04
					 1.08286000E-03	 1.64777000E-02	-5.87834000E-03
					 4.05835000E-05	 1.03045000E-02	-1.80078000E-04
					 7.10862000E-04	 1.51535000E-02	-3.07621000E-03
					 1.15836000E-03	 1.04342000E-02	-4.80556000E-03
					 2.00403000E-05	 1.57814000E-02	-2.33429000E-04
					 1.24251000E-03	 1.59058000E-02	-5.82302000E-03
					 3.42039000E-05	 1.12780000E-02	-2.02307000E-04
					 5.49465000E-04	 1.63740000E-02	-3.07038000E-03
					 8.64537000E-04	 1.14074000E-02	-4.82382000E-03
					-1.35656000E-03	 1.53156000E-02	 5.40941000E-03
					-1.04652000E-03	 1.65354000E-02	 5.37492000E-03
					-1.07608000E-03	 1.04750000E-02	 4.44346000E-03
					-6.66345000E-04	 1.51861000E-02	 2.64327000E-03
					-1.20080000E-03	 1.59652000E-02	 5.35174000E-03
					-7.92132000E-04	 1.14432000E-02	 4.41729000E-03
					-5.15813000E-04	 1.64040000E-02	 2.56993000E-03
					 7.75565000E-06	 1.72626000E-02	-2.79884000E-04
					 7.66849000E-04	 1.73942000E-02	-5.90960000E-03
					 1.20057000E-05	 1.68460000E-02	-2.65046000E-04
					 9.25471000E-04	 1.69741000E-02	-5.92941000E-03
					 2.50347000E-05	 1.19605000E-02	-2.22179000E-04
					 3.86680000E-04	 1.72892000E-02	-3.06544000E-03
					 5.62102000E-04	 1.20916000E-02	-4.84774000E-03
					-7.44271000E-04	 1.74425000E-02	 5.34650000E-03
					-8.95668000E-04	 1.70287000E-02	 5.39584000E-03
					-5.04964000E-04	 1.21178000E-02	 4.40149000E-03
					-3.69216000E-04	 1.73129000E-02	 2.50471000E-03
					-2.71826000E-05	 2.83453000E-02	-3.39276000E-04
					 1.59063000E-03	 2.84137000E-02	-8.00940000E-03
					-3.22359000E-05	 2.98121000E-02	-3.85858000E-04
					 1.30288000E-03	 2.98932000E-02	-8.06959000E-03
					-1.52619000E-06	 2.11138000E-02	-2.67649000E-04
					 7.77735000E-04	 2.83425000E-02	-4.14094000E-03
					 1.57360000E-03	 2.12067000E-02	-6.94863000E-03
					-2.92889000E-05	 2.91131000E-02	-3.63664000E-04
					 1.44738000E-03	 2.91923000E-02	-8.04789000E-03
					-7.35157000E-06	 2.25229000E-02	-3.09999000E-04
					 6.36130000E-04	 2.98150000E-02	-4.20041000E-03
					 1.25294000E-03	 2.26291000E-02	-6.99481000E-03
					-1.64678000E-03	 2.85239000E-02	 7.32553000E-03
					-1.36690000E-03	 3.00039000E-02	 7.29244000E-03
					-1.57778000E-03	 2.12912000E-02	 6.40738000E-03
					-8.32699000E-04	 2.83965000E-02	 3.46137000E-03
					-1.50694000E-03	 2.93034000E-02	 7.31492000E-03
					-1.26580000E-03	 2.27122000E-02	 6.36938000E-03
					-7.00595000E-04	 2.98699000E-02	 3.42752000E-03
					-3.88729000E-05	 3.10144000E-02	-4.27194000E-04
					 1.02847000E-03	 3.10994000E-02	-8.09777000E-03
					-3.55662000E-05	 3.04497000E-02	-4.06839000E-04
					 1.16642000E-03	 3.05315000E-02	-8.09102000E-03
					-1.50848000E-05	 2.36316000E-02	-3.47634000E-04
					 4.94845000E-04	 3.10208000E-02	-4.22937000E-03
					 9.47184000E-04	 2.37452000E-02	-7.02861000E-03
					-1.10342000E-03	 3.12062000E-02	 7.23819000E-03
					-1.23571000E-03	 3.06409000E-02	 7.27225000E-03
					-9.72685000E-04	 2.38221000E-02	 6.32870000E-03
					-5.71786000E-04	 3.10734000E-02	 3.37370000E-03
					-7.65369000E-05	 4.60763000E-02	-5.35978000E-04
					 1.06322000E-03	 4.60313000E-02	-9.39781000E-03
					-8.08950000E-05	 4.71917000E-02	-5.76948000E-04
					 1.00613000E-03	 4.71436000E-02	-9.46421000E-03
					-5.25951000E-05	 3.68003000E-02	-4.30982000E-04
					 4.94685000E-04	 4.60502000E-02	-4.86392000E-03
					 1.40117000E-03	 3.68077000E-02	-8.86661000E-03
					-7.85549000E-05	 4.66400000E-02	-5.57030000E-04
					 1.03443000E-03	 4.65914000E-02	-9.48206000E-03
					-5.71292000E-05	 3.81528000E-02	-4.76839000E-04
					 4.62567000E-04	 4.71632000E-02	-4.96463000E-03
					 1.20770000E-03	 3.81701000E-02	-8.93792000E-03
					-1.21893000E-03	 4.61797000E-02	 8.32747000E-03
					-1.16868000E-03	 4.72958000E-02	 8.31220000E-03
					-1.50849000E-03	 3.69409000E-02	 8.00228000E-03
					-6.48454000E-04	 4.61204000E-02	 3.79247000E-03
					-1.19364000E-03	 4.67441000E-02	 8.36957000E-03
					-1.32210000E-03	 3.83055000E-02	 7.98152000E-03
					-6.24654000E-04	 4.72374000E-02	 3.81117000E-03
					-8.51830000E-05	 4.82504000E-02	-6.16460000E-04
					 9.50855000E-04	 4.82065000E-02	-9.47780000E-03
					-8.32506000E-05	 4.77273000E-02	-5.96552000E-04
					 9.78626000E-04	 4.76804000E-02	-9.45289000E-03
					-6.24684000E-05	 3.93297000E-02	-5.18715000E-04
					 4.31446000E-04	 4.82236000E-02	-5.01243000E-03
					 1.02872000E-03	 3.93528000E-02	-8.95464000E-03
					-1.12007000E-03	 4.83569000E-02	 8.24691000E-03
					-1.14460000E-03	 4.78315000E-02	 8.26183000E-03
					-1.15167000E-03	 3.94850000E-02	 7.91440000E-03
					-6.01597000E-04	 4.82973000E-02	 3.78000000E-03
					-1.15901000E-04	 6.44555000E-02	-7.27579000E-04
					 5.76218000E-04	 6.43511000E-02	-9.32306000E-03
					-1.18702000E-04	 6.51990000E-02	-7.59263000E-04
					 6.60163000E-04	 6.50839000E-02	-9.35469000E-03
					-9.69024000E-05	 5.54810000E-02	-6.39212000E-04
					 2.33426000E-04	 6.44158000E-02	-5.01852000E-03
					 7.42970000E-04	 5.54070000E-02	-9.47205000E-03
					-1.16887000E-04	 6.48166000E-02	-7.43365000E-04
					 6.18171000E-04	 6.47033000E-02	-9.34567000E-03
					-1.00920000E-04	 5.63572000E-02	-6.74077000E-04
					 2.70541000E-04	 6.51540000E-02	-5.05814000E-03
					 7.94047000E-04	 5.62687000E-02	-9.52181000E-03
					-8.11904000E-04	 6.44975000E-02	 7.86823000E-03
					-9.00486000E-04	 6.52349000E-02	 7.83702000E-03
					-9.40629000E-04	 5.55578000E-02	 8.19678000E-03
					-4.66403000E-04	 6.44896000E-02	 3.56265000E-03
					-8.55594000E-04	 6.48527000E-02	 7.85977000E-03
					-9.97789000E-04	 5.64247000E-02	 8.17758000E-03
					-5.08994000E-04	 6.52308000E-02	 3.53931000E-03
					-1.21692000E-04	 6.60151000E-02	-7.89669000E-04
					 7.36888000E-04	 6.59009000E-02	-9.38690000E-03
					-1.20587000E-04	 6.55952000E-02	-7.74521000E-04
					 6.98067000E-04	 6.54804000E-02	-9.35993000E-03
					-1.04939000E-04	 5.72714000E-02	-7.09036000E-04
					 3.06801000E-04	 6.59692000E-02	-5.09996000E-03
					 8.33754000E-04	 5.71840000E-02	-9.54135000E-03
					-9.81556000E-04	 6.60540000E-02	 7.80858000E-03
					-9.41415000E-04	 6.56321000E-02	 7.81222000E-03
					-1.04322000E-03	 5.73398000E-02	 8.12754000E-03
					-5.50496000E-04	 6.60477000E-02	 3.52011000E-03
					-1.58276000E-04	 8.11570000E-02	-8.71073000E-04
					 5.89250000E-04	 8.10781000E-02	-9.18974000E-03
					-1.52001000E-04	 8.19031000E-02	-9.03131000E-04
					 5.98056000E-04	 8.18289000E-02	-9.21700000E-03
					-1.36205000E-04	 7.28880000E-02	-8.01230000E-04
					 2.16456000E-04	 8.11177000E-02	-5.04988000E-03
					 5.66547000E-04	 7.28057000E-02	-9.20098000E-03
					-1.55623000E-04	 8.15294000E-02	-8.88114000E-04
					 5.92339000E-04	 8.14522000E-02	-9.19401000E-03
					-1.35994000E-04	 7.36186000E-02	-8.33161000E-04
					 2.21670000E-04	 8.18655000E-02	-5.07110000E-03
					 6.14333000E-04	 7.35306000E-02	-9.22618000E-03
					-9.02999000E-04	 8.12074000E-02	 7.43956000E-03
					-9.05400000E-04	 8.19558000E-02	 7.40193000E-03
					-8.39103000E-04	 7.29454000E-02	 7.59205000E-03
					-5.32442000E-04	 8.11816000E-02	 3.30543000E-03
					-9.03464000E-04	 8.15788000E-02	 7.40980000E-03
					-8.89512000E-04	 7.36712000E-02	 7.55358000E-03
					-5.26977000E-04	 8.19278000E-02	 3.26252000E-03
					-1.46319000E-04	 8.26692000E-02	-9.27037000E-04
					 6.06418000E-04	 8.25904000E-02	-9.25551000E-03
					-1.48480000E-04	 8.22873000E-02	-9.16006000E-04
					 6.03180000E-04	 8.22114000E-02	-9.23620000E-03
					-1.36111000E-04	 7.43918000E-02	-8.59437000E-04
					 2.29301000E-04	 8.26292000E-02	-5.10273000E-03
					 6.53536000E-04	 7.43001000E-02	-9.26517000E-03
					-9.07825000E-04	 8.27262000E-02	 7.39165000E-03
					-9.06944000E-04	 8.23411000E-02	 7.39510000E-03
					-9.31365000E-04	 7.44472000E-02	 7.53995000E-03
					-5.24413000E-04	 8.26972000E-02	 3.24567000E-03
					 0.00000000E+00	 0.00000000E+00	 0.00000000E+00
					 0.00000000E+00	 0.00000000E+00	 0.00000000E+00
					-1.02281000E-04	-3.64940000E-03	 1.18017000E-04
					-1.65744000E-03	-3.86990000E-03	 3.98646000E-03
					 0.00000000E+00	 0.00000000E+00	 0.00000000E+00
					 0.00000000E+00	 0.00000000E+00	 0.00000000E+00
					-8.71659000E-05	-4.99401000E-03	 5.04118000E-05
					-1.21445000E-03	-5.22247000E-03	 3.97926000E-03
					 0.00000000E+00	 0.00000000E+00	 0.00000000E+00
					-4.59166000E-05	-7.15133000E-04	 6.29668000E-05
					-8.82654000E-04	-3.67709000E-03	 2.07444000E-03
					-1.15521000E-03	-1.08451000E-03	 2.13602000E-03
					 0.00000000E+00	 0.00000000E+00	 0.00000000E+00
					 0.00000000E+00	 0.00000000E+00	 0.00000000E+00
					-9.33622000E-05	-4.40173000E-03	 8.17275000E-05
					-1.43080000E-03	-4.62314000E-03	 3.88316000E-03
					 0.00000000E+00	 0.00000000E+00	 0.00000000E+00
					-3.09283000E-05	-1.51803000E-03	 2.41172000E-05
					-6.51654000E-04	-5.02122000E-03	 1.93483000E-03
					-5.74687000E-04	-1.86346000E-03	 2.05166000E-03
					 0.00000000E+00	 0.00000000E+00	 0.00000000E+00
					 1.45790000E-03	-3.80225000E-03	-3.75931000E-03
					 0.00000000E+00	 0.00000000E+00	 0.00000000E+00
					 1.04598000E-03	-5.16279000E-03	-3.88475000E-03
					 0.00000000E+00	 0.00000000E+00	 0.00000000E+00
					 1.07114000E-03	-1.03052000E-03	-2.00878000E-03
					 6.78706000E-04	-3.64286000E-03	-1.84146000E-03
					 0.00000000E+00	 0.00000000E+00	 0.00000000E+00
					 1.24926000E-03	-4.55963000E-03	-3.72760000E-03
					 0.00000000E+00	 0.00000000E+00	 0.00000000E+00
					 5.21431000E-04	-1.82943000E-03	-2.00186000E-03
					 4.76713000E-04	-4.99215000E-03	-1.83695000E-03
					 0.00000000E+00	 0.00000000E+00	 0.00000000E+00
					 0.00000000E+00	 0.00000000E+00	 0.00000000E+00
					-7.66725000E-05	-5.90849000E-03	-1.26961000E-05
					-7.60795000E-04	-6.10672000E-03	 3.86072000E-03
					 0.00000000E+00	 0.00000000E+00	 0.00000000E+00
					 0.00000000E+00	 0.00000000E+00	 0.00000000E+00
					-8.05140000E-05	-5.52964000E-03	 1.92716000E-05
					-9.89096000E-04	-5.74097000E-03	 4.03357000E-03
					 0.00000000E+00	 0.00000000E+00	 0.00000000E+00
					-2.62548000E-05	-1.81036000E-03	-7.37942000E-06
					-4.21070000E-04	-5.92307000E-03	 1.73456000E-03
					 3.78335000E-05	-2.11905000E-03	 2.06610000E-03
					 0.00000000E+00	 0.00000000E+00	 0.00000000E+00
					 6.10583000E-04	-6.05536000E-03	-3.88828000E-03
					 0.00000000E+00	 0.00000000E+00	 0.00000000E+00
					 8.31729000E-04	-5.68998000E-03	-3.99896000E-03
					 0.00000000E+00	 0.00000000E+00	 0.00000000E+00
					-8.34923000E-05	-2.10137000E-03	-2.08060000E-03
					 2.68307000E-04	-5.89981000E-03	-1.76149000E-03
					-2.46971000E-04	-1.35838000E-02	 1.62104000E-04
					-2.85541000E-03	-1.37289000E-02	 6.25515000E-03
					-2.26405000E-04	-1.60974000E-02	 6.38892000E-05
					-2.65036000E-03	-1.62391000E-02	 6.19090000E-03
					-1.72400000E-04	-8.03821000E-03	 1.48921000E-04
					-1.55161000E-03	-1.36391000E-02	 3.22118000E-03
					-2.26068000E-03	-8.25691000E-03	 5.34877000E-03
					-2.37160000E-04	-1.48583000E-02	 1.10611000E-04
					-2.75315000E-03	-1.49989000E-02	 6.14649000E-03
					-1.55370000E-04	-9.96201000E-03	 6.24566000E-05
					-1.43242000E-03	-1.61493000E-02	 3.06497000E-03
					-1.91067000E-03	-1.01760000E-02	 5.29367000E-03
					 2.36325000E-03	-1.36155000E-02	-5.93427000E-03
					 2.19145000E-03	-1.61328000E-02	-6.06399000E-03
					 1.91769000E-03	-8.16599000E-03	-5.05850000E-03
					 1.05790000E-03	-1.35821000E-02	-2.89823000E-03
					 2.27891000E-03	-1.48951000E-02	-5.92550000E-03
					 1.60166000E-03	-1.00929000E-02	-5.17453000E-03
					 9.82663000E-04	-1.60980000E-02	-2.93458000E-03
					-2.12212000E-04	-1.84247000E-02	-3.12194000E-05
					-2.42177000E-03	-1.85446000E-02	 6.06111000E-03
					-2.19313000E-04	-1.72761000E-02	 1.83081000E-05
					-2.53462000E-03	-1.74407000E-02	 6.23841000E-03
					-1.43059000E-04	-1.15520000E-02	-1.96587000E-05
					-1.32386000E-03	-1.84622000E-02	 2.84508000E-03
					-1.56022000E-03	-1.17576000E-02	 5.18223000E-03
					 2.01954000E-03	-1.84556000E-02	-6.12442000E-03
					 2.10476000E-03	-1.73129000E-02	-6.20548000E-03
					 1.28485000E-03	-1.16869000E-02	-5.22381000E-03
					 9.05689000E-04	-1.84212000E-02	-2.90348000E-03
					-3.73655000E-04	-2.59129000E-02	 1.54606000E-04
					-4.16441000E-03	-2.58747000E-02	 6.42482000E-03
					-3.45550000E-04	-2.97281000E-02	 7.01501000E-05
					-4.23651000E-03	-2.97986000E-02	 6.36555000E-03
					-3.15234000E-04	-1.97514000E-02	 1.61829000E-04
					-2.26510000E-03	-2.59092000E-02	 3.33371000E-03
					-3.47451000E-03	-1.98285000E-02	 6.59153000E-03
					-3.58588000E-04	-2.78092000E-02	 1.15618000E-04
					-4.20351000E-03	-2.78361000E-02	 6.28757000E-03
					-2.92697000E-04	-2.28920000E-02	 6.28882000E-05
					-2.31398000E-03	-2.97837000E-02	 3.14148000E-03
					-3.42253000E-03	-2.29768000E-02	 6.53109000E-03
					 3.37178000E-03	-2.57943000E-02	-6.09599000E-03
					 3.53691000E-03	-2.96131000E-02	-6.23901000E-03
					 2.83318000E-03	-1.97103000E-02	-6.26480000E-03
					 1.50295000E-03	-2.58701000E-02	-3.01179000E-03
					 3.45198000E-03	-2.76839000E-02	-6.06527000E-03
					 2.83528000E-03	-2.28378000E-02	-6.40302000E-03
					 1.59715000E-03	-2.96929000E-02	-3.02008000E-03
					-3.20046000E-04	-3.36697000E-02	-1.90259000E-05
					-4.39908000E-03	-3.38637000E-02	 6.24851000E-03
					-3.32879000E-04	-3.16968000E-02	 2.41959000E-05
					-4.32050000E-03	-3.17009000E-02	 6.45423000E-03
					-2.62866000E-04	-2.60019000E-02	-3.57622000E-05
					-2.32780000E-03	-3.37900000E-02	 2.88830000E-03
					-3.38946000E-03	-2.61114000E-02	 6.39655000E-03
					 3.71154000E-03	-3.35789000E-02	-6.32649000E-03
					 3.62346000E-03	-3.15740000E-02	-6.41982000E-03
					 2.82199000E-03	-2.59389000E-02	-6.46821000E-03
					 1.68816000E-03	-3.36550000E-02	-2.96993000E-03
					-3.87312000E-04	-3.60448000E-02	 1.40384000E-04
					-5.62735000E-03	-3.58275000E-02	 4.74356000E-03