# vtk DataFile Version 3.0

ASCII
DATASET UNSTRUCTURED_GRID

POINTS 522 double
	 1.00000000E+00	 1.00000000E+00	-5.96046000E-08
	 1.00000000E+00	 5.00000000E-01	-5.96046000E-08
	 1.00000000E+00	 5.00000000E-01	 1.00000000E+00
	 1.00000000E+00	 1.00000000E+00	 1.00000000E+00
	 5.00000000E-01	 1.00000000E+00	-5.96046000E-08
	 5.00000000E-01	 5.00000000E-01	-5.96046000E-08
	 5.00000000E-01	 5.00000000E-01	 1.00000000E+00
	 5.00000000E-01	 1.00000000E+00	 1.00000000E+00
	 1.00000000E+00	 7.50000000E-01	-5.96046000E-08
	 1.00000000E+00	 5.00000000E-01	 5.00000000E-01
	 1.00000000E+00	 7.50000000E-01	 1.00000000E+00
	 1.00000000E+00	 1.00000000E+00	 5.00000000E-01
	 7.50000000E-01	 1.00000000E+00	-5.96046000E-08
	 7.50000000E-01	 5.00000000E-01	-5.96046000E-08
	 7.50000000E-01	 5.00000000E-01	 1.00000000E+00
	 7.50000000E-01	 1.00000000E+00	 1.00000000E+00
	 5.00000000E-01	 7.50000000E-01	-5.96046000E-08
	 5.00000000E-01	 5.00000000E-01	 5.00000000E-01
	 5.00000000E-01	 7.50000000E-01	 1.00000000E+00
	 5.00000000E-01	 1.00000000E+00	 5.00000000E-01
	 1.00000000E+00	-1.49012000E-08	-5.96046000E-08
	 1.00000000E+00	-1.49012000E-08	 1.00000000E+00
	 5.00000000E-01	-1.49012000E-08	-5.96046000E-08
	 5.00000000E-01	-1.49012000E-08	 1.00000000E+00
	 1.00000000E+00	 2.50000000E-01	-5.96046000E-08
	 1.00000000E+00	-1.49012000E-08	 5.00000000E-01
	 1.00000000E+00	 2.50000000E-01	 1.00000000E+00
	 7.50000000E-01	-1.49012000E-08	-5.96046000E-08
	 7.50000000E-01	-1.49012000E-08	 1.00000000E+00
	 5.00000000E-01	 2.50000000E-01	-5.96046000E-08
	 5.00000000E-01	-1.49012000E-08	 5.00000000E-01
	 5.00000000E-01	 2.50000000E-01	 1.00000000E+00
	-7.45058000E-09	 1.00000000E+00	-5.96046000E-08
	-7.45058000E-09	 5.00000000E-01	-5.96046000E-08
	-7.45058000E-09	 5.00000000E-01	 1.00000000E+00
	-7.45058000E-09	 1.00000000E+00	 1.00000000E+00
	 2.50000000E-01	 1.00000000E+00	-5.96046000E-08
	 2.50000000E-01	 5.00000000E-01	-5.96046000E-08
	 2.50000000E-01	 5.00000000E-01	 1.00000000E+00
	 2.50000000E-01	 1.00000000E+00	 1.00000000E+00
	-7.45058000E-09	 7.50000000E-01	-5.96046000E-08
	-7.45058000E-09	 5.00000000E-01	 5.00000000E-01
	-7.45058000E-09	 7.50000000E-01	 1.00000000E+00
	-7.45058000E-09	 1.00000000E+00	 5.00000000E-01
	-7.45058000E-09	-1.49012000E-08	-5.96046000E-08
	-7.45058000E-09	-1.49012000E-08	 1.00000000E+00
	 2.50000000E-01	-1.49012000E-08	-5.96046000E-08
	 2.50000000E-01	-1.49012000E-08	 1.00000000E+00
	-7.45058000E-09	 2.50000000E-01	-5.96046000E-08
	-7.45058000E-09	-1.49012000E-08	 5.00000000E-01
	-7.45058000E-09	 2.50000000E-01	 1.00000000E+00
	 1.00000000E+00	 5.00000000E-01	 2.00000000E+00
	 1.00000000E+00	 1.00000000E+00	 2.00000000E+00
	 5.00000000E-01	 5.00000000E-01	 2.00000000E+00
	 5.00000000E-01	 1.00000000E+00	 2.00000000E+00
	 1.00000000E+00	 5.00000000E-01	 1.50000000E+00
	 1.00000000E+00	 7.50000000E-01	 2.00000000E+00
	 1.00000000E+00	 1.00000000E+00	 1.50000000E+00
	 7.50000000E-01	 5.00000000E-01	 2.00000000E+00
	 7.50000000E-01	 1.00000000E+00	 2.00000000E+00
	 5.00000000E-01	 5.00000000E-01	 1.50000000E+00
	 5.00000000E-01	 7.50000000E-01	 2.00000000E+00
	 5.00000000E-01	 1.00000000E+00	 1.50000000E+00
	 1.00000000E+00	-1.49012000E-08	 2.00000000E+00
	 5.00000000E-01	-1.49012000E-08	 2.00000000E+00
	 1.00000000E+00	-1.49012000E-08	 1.50000000E+00
	 1.00000000E+00	 2.50000000E-01	 2.00000000E+00
	 7.50000000E-01	-1.49012000E-08	 2.00000000E+00
	 5.00000000E-01	-1.49012000E-08	 1.50000000E+00
	 5.00000000E-01	 2.50000000E-01	 2.00000000E+00
	-7.45058000E-09	 5.00000000E-01	 2.00000000E+00
	-7.45058000E-09	 1.00000000E+00	 2.00000000E+00
	 2.50000000E-01	 5.00000000E-01	 2.00000000E+00
	 2.50000000E-01	 1.00000000E+00	 2.00000000E+00
	-7.45058000E-09	 5.00000000E-01	 1.50000000E+00
	-7.45058000E-09	 7.50000000E-01	 2.00000000E+00
	-7.45058000E-09	 1.00000000E+00	 1.50000000E+00
	-7.45058000E-09	-1.49012000E-08	 2.00000000E+00
	 2.50000000E-01	-1.49012000E-08	 2.00000000E+00
	-7.45058000E-09	-1.49012000E-08	 1.50000000E+00
	-7.45058000E-09	 2.50000000E-01	 2.00000000E+00
	 1.00000000E+00	 5.00000000E-01	 3.00000000E+00
	 1.00000000E+00	 1.00000000E+00	 3.00000000E+00
	 5.00000000E-01	 5.00000000E-01	 3.00000000E+00
	 5.00000000E-01	 1.00000000E+00	 3.00000000E+00
	 1.00000000E+00	 5.00000000E-01	 2.50000000E+00
	 1.00000000E+00	 7.50000000E-01	 3.00000000E+00
	 1.00000000E+00	 1.00000000E+00	 2.50000000E+00
	 7.50000000E-01	 5.00000000E-01	 3.00000000E+00
	 7.50000000E-01	 1.00000000E+00	 3.00000000E+00
	 5.00000000E-01	 5.00000000E-01	 2.50000000E+00
	 5.00000000E-01	 7.50000000E-01	 3.00000000E+00
	 5.00000000E-01	 1.00000000E+00	 2.50000000E+00
	 1.00000000E+00	-1.49012000E-08	 3.00000000E+00
	 5.00000000E-01	-1.49012000E-08	 3.00000000E+00
	 1.00000000E+00	-1.49012000E-08	 2.50000000E+00
	 1.00000000E+00	 2.50000000E-01	 3.00000000E+00
	 7.50000000E-01	-1.49012000E-08	 3.00000000E+00
	 5.00000000E-01	-1.49012000E-08	 2.50000000E+00
	 5.00000000E-01	 2.50000000E-01	 3.00000000E+00
	-7.45058000E-09	 5.00000000E-01	 3.00000000E+00
	-7.45058000E-09	 1.00000000E+00	 3.00000000E+00
	 2.50000000E-01	 5.00000000E-01	 3.00000000E+00
	 2.50000000E-01	 1.00000000E+00	 3.00000000E+00
	-7.45058000E-09	 5.00000000E-01	 2.50000000E+00
	-7.45058000E-09	 7.50000000E-01	 3.00000000E+00
	-7.45058000E-09	 1.00000000E+00	 2.50000000E+00
	-7.45058000E-09	-1.49012000E-08	 3.00000000E+00
	 2.50000000E-01	-1.49012000E-08	 3.00000000E+00
	-7.45058000E-09	-1.49012000E-08	 2.50000000E+00
	-7.45058000E-09	 2.50000000E-01	 3.00000000E+00
	 1.00000000E+00	 5.00000000E-01	 4.00000000E+00
	 1.00000000E+00	 1.00000000E+00	 4.00000000E+00
	 5.00000000E-01	 5.00000000E-01	 4.00000000E+00
	 5.00000000E-01	 1.00000000E+00	 4.00000000E+00
	 1.00000000E+00	 5.00000000E-01	 3.50000000E+00
	 1.00000000E+00	 7.50000000E-01	 4.00000000E+00
	 1.00000000E+00	 1.00000000E+00	 3.50000000E+00
	 7.50000000E-01	 5.00000000E-01	 4.00000000E+00
	 7.50000000E-01	 1.00000000E+00	 4.00000000E+00
	 5.00000000E-01	 5.00000000E-01	 3.50000000E+00
	 5.00000000E-01	 7.50000000E-01	 4.00000000E+00
	 5.00000000E-01	 1.00000000E+00	 3.50000000E+00
	 1.00000000E+00	-1.49012000E-08	 4.00000000E+00
	 5.00000000E-01	-1.49012000E-08	 4.00000000E+00
	 1.00000000E+00	-1.49012000E-08	 3.50000000E+00
	 1.00000000E+00	 2.50000000E-01	 4.00000000E+00
	 7.50000000E-01	-1.49012000E-08	 4.00000000E+00
	 5.00000000E-01	-1.49012000E-08	 3.50000000E+00
	 5.00000000E-01	 2.50000000E-01	 4.00000000E+00
	-7.45058000E-09	 5.00000000E-01	 4.00000000E+00
	-7.45058000E-09	 1.00000000E+00	 4.00000000E+00
	 2.50000000E-01	 5.00000000E-01	 4.00000000E+00
	 2.50000000E-01	 1.00000000E+00	 4.00000000E+00
	-7.45058000E-09	 5.00000000E-01	 3.50000000E+00
	-7.45058000E-09	 7.50000000E-01	 4.00000000E+00
	-7.45058000E-09	 1.00000000E+00	 3.50000000E+00
	-7.45058000E-09	-1.49012000E-08	 4.00000000E+00
	 2.50000000E-01	-1.49012000E-08	 4.00000000E+00
	-7.45058000E-09	-1.49012000E-08	 3.50000000E+00
	-7.45058000E-09	 2.50000000E-01	 4.00000000E+00
	 1.00000000E+00	 5.00000000E-01	 5.00000000E+00
	 1.00000000E+00	 1.00000000E+00	 5.00000000E+00
	 5.00000000E-01	 5.00000000E-01	 5.00000000E+00
	 5.00000000E-01	 1.00000000E+00	 5.00000000E+00
	 1.00000000E+00	 5.00000000E-01	 4.50000000E+00
	 1.00000000E+00	 7.50000000E-01	 5.00000000E+00
	 1.00000000E+00	 1.00000000E+00	 4.50000000E+00
	 7.50000000E-01	 5.00000000E-01	 5.00000000E+00
	 7.50000000E-01	 1.00000000E+00	 5.00000000E+00
	 5.00000000E-01	 5.00000000E-01	 4.50000000E+00
	 5.00000000E-01	 7.50000000E-01	 5.00000000E+00
	 5.00000000E-01	 1.00000000E+00	 4.50000000E+00
	 1.00000000E+00	-1.49012000E-08	 5.00000000E+00
	 5.00000000E-01	-1.49012000E-08	 5.00000000E+00
	 1.00000000E+00	-1.49012000E-08	 4.50000000E+00
	 1.00000000E+00	 2.50000000E-01	 5.00000000E+00
	 7.50000000E-01	-1.49012000E-08	 5.00000000E+00
	 5.00000000E-01	-1.49012000E-08	 4.50000000E+00
	 5.00000000E-01	 2.50000000E-01	 5.00000000E+00
	-7.45058000E-09	 5.00000000E-01	 5.00000000E+00
	-7.45058000E-09	 1.00000000E+00	 5.00000000E+00
	 2.50000000E-01	 5.00000000E-01	 5.00000000E+00
	 2.50000000E-01	 1.00000000E+00	 5.00000000E+00
	-7.45058000E-09	 5.00000000E-01	 4.50000000E+00
	-7.45058000E-09	 7.50000000E-01	 5.00000000E+00
	-7.45058000E-09	 1.00000000E+00	 4.50000000E+00
	-7.45058000E-09	-1.49012000E-08	 5.00000000E+00
	 2.50000000E-01	-1.49012000E-08	 5.00000000E+00
	-7.45058000E-09	-1.49012000E-08	 4.50000000E+00
	-7.45058000E-09	 2.50000000E-01	 5.00000000E+00
	 1.00000000E+00	 5.00000000E-01	 6.00000000E+00
	 1.00000000E+00	 1.00000000E+00	 6.00000000E+00
	 5.00000000E-01	 5.00000000E-01	 6.00000000E+00
	 5.00000000E-01	 1.00000000E+00	 6.00000000E+00
	 1.00000000E+00	 5.00000000E-01	 5.50000000E+00
	 1.00000000E+00	 7.50000000E-01	 6.00000000E+00
	 1.00000000E+00	 1.00000000E+00	 5.50000000E+00
	 7.50000000E-01	 5.00000000E-01	 6.00000000E+00
	 7.50000000E-01	 1.00000000E+00	 6.00000000E+00
	 5.00000000E-01	 5.00000000E-01	 5.50000000E+00
	 5.00000000E-01	 7.50000000E-01	 6.00000000E+00
	 5.00000000E-01	 1.00000000E+00	 5.50000000E+00
	 1.00000000E+00	-1.49012000E-08	 6.00000000E+00
	 5.00000000E-01	-1.49012000E-08	 6.00000000E+00
	 1.00000000E+00	-1.49012000E-08	 5.50000000E+00
	 1.00000000E+00	 2.50000000E-01	 6.00000000E+00
	 7.50000000E-01	-1.49012000E-08	 6.00000000E+00
	 5.00000000E-01	-1.49012000E-08	 5.50000000E+00
	 5.00000000E-01	 2.50000000E-01	 6.00000000E+00
	-7.45058000E-09	 5.00000000E-01	 6.00000000E+00
	-7.45058000E-09	 1.00000000E+00	 6.00000000E+00
	 2.50000000E-01	 5.00000000E-01	 6.00000000E+00
	 2.50000000E-01	 1.00000000E+00	 6.00000000E+00
	-7.45058000E-09	 5.00000000E-01	 5.50000000E+00
	-7.45058000E-09	 7.50000000E-01	 6.00000000E+00
	-7.45058000E-09	 1.00000000E+00	 5.50000000E+00
	-7.45058000E-09	-1.49012000E-08	 6.00000000E+00
	 2.50000000E-01	-1.49012000E-08	 6.00000000E+00
	-7.45058000E-09	-1.49012000E-08	 5.50000000E+00
	-7.45058000E-09	 2.50000000E-01	 6.00000000E+00
	 1.00000000E+00	 5.00000000E-01	 7.00000000E+00
[...]
POINT_DATA 522
FIELD U 1
	U 3 522 double
		 0.00000000E+00	 0.00000000E+00	 0.00000000E+00
		 0.00000000E+00	 0.00000000E+00	 0.00000000E+00
		-6.66374000E-06	-3.96229000E-03	-2.81466000E-05
		 9.81780000E-04	-4.15150000E-03	 2.76742000E-03
		 0.00000000E+00	 0.00000000E+00	 0.00000000E+00
		 0.00000000E+00	 0.00000000E+00	 0.00000000E+00
		-1.26397000E-05	-2.76467000E-03	-2.57126000E-05
		 1.39056000E-03	-2.96415000E-03	 2.79865000E-03
		 0.00000000E+00	 0.00000000E+00	 0.00000000E+00
		 1.03435000E-06	-1.12365000E-03	-1.03211000E-05
		 4.88121000E-04	-3.98886000E-03	 1.23551000E-03
		 2.42052000E-04	-1.33857000E-03	 1.34428000E-03
		 0.00000000E+00	 0.00000000E+00	 0.00000000E+00
		 0.00000000E+00	 0.00000000E+00	 0.00000000E+00
		-9.96187000E-06	-3.42789000E-03	-2.80225000E-05
		 1.18667000E-03	-3.62617000E-03	 2.90360000E-03
		 0.00000000E+00	 0.00000000E+00	 0.00000000E+00
		-5.89008000E-06	-6.26584000E-04	-5.91810000E-06
		 6.86832000E-04	-2.79416000E-03	 1.37583000E-03
		 6.91625000E-04	-8.69082000E-04	 1.30526000E-03
		 0.00000000E+00	 0.00000000E+00	 0.00000000E+00
		-9.84902000E-04	-4.12778000E-03	-2.83354000E-03
		 0.00000000E+00	 0.00000000E+00	 0.00000000E+00
		-1.40133000E-03	-2.95490000E-03	-2.86120000E-03
		 0.00000000E+00	 0.00000000E+00	 0.00000000E+00
		-2.38492000E-04	-1.33103000E-03	-1.36633000E-03
		-4.98152000E-04	-3.97591000E-03	-1.29488000E-03
		 0.00000000E+00	 0.00000000E+00	 0.00000000E+00
		-1.19347000E-03	-3.60843000E-03	-2.97093000E-03
		 0.00000000E+00	 0.00000000E+00	 0.00000000E+00
		-7.02751000E-04	-8.63374000E-04	-1.32422000E-03
		-7.06583000E-04	-2.79023000E-03	-1.43148000E-03
		 0.00000000E+00	 0.00000000E+00	 0.00000000E+00
		 0.00000000E+00	 0.00000000E+00	 0.00000000E+00
		-1.34711000E-05	-1.17114000E-03	-1.51989000E-05
		 1.78960000E-03	-1.35628000E-03	 2.78404000E-03
		 0.00000000E+00	 0.00000000E+00	 0.00000000E+00
		 0.00000000E+00	 0.00000000E+00	 0.00000000E+00
		-1.42575000E-05	-2.03518000E-03	-2.05955000E-05
		 1.58751000E-03	-2.22346000E-03	 2.66478000E-03
		 0.00000000E+00	 0.00000000E+00	 0.00000000E+00
		-9.78774000E-06	 2.67887000E-04	-1.75905000E-06
		 8.90103000E-04	-1.19497000E-03	 1.50379000E-03
		 1.08991000E-03	-2.86456000E-06	 1.35392000E-03
		 0.00000000E+00	 0.00000000E+00	 0.00000000E+00
		-1.80047000E-03	-1.36346000E-03	-2.82603000E-03
		 0.00000000E+00	 0.00000000E+00	 0.00000000E+00
		-1.59981000E-03	-2.22217000E-03	-2.71786000E-03
		 0.00000000E+00	 0.00000000E+00	 0.00000000E+00
		-1.11522000E-03	 7.24623000E-06	-1.37051000E-03
		-9.11713000E-04	-1.20188000E-03	-1.53816000E-03
		-1.27303000E-05	-1.35953000E-02	-1.17478000E-04
		 2.24353000E-03	-1.37866000E-02	 5.17949000E-03
		-1.01342000E-05	-1.11770000E-02	-9.00092000E-05
		 2.55783000E-03	-1.13733000E-02	 5.21923000E-03
		-1.38404000E-05	-8.20596000E-03	-6.45093000E-05
		 1.11480000E-03	-1.36530000E-02	 2.44726000E-03
		 1.67065000E-03	-8.42069000E-03	 4.05968000E-03
		-1.22828000E-05	-1.24251000E-02	-1.03002000E-04
		 2.40110000E-03	-1.26160000E-02	 5.26864000E-03
		-1.42037000E-05	-6.34518000E-03	-5.72032000E-05
		 1.27687000E-03	-1.12390000E-02	 2.54905000E-03
		 2.03202000E-03	-6.54904000E-03	 4.08675000E-03
		-2.28567000E-03	-1.37381000E-02	-5.41593000E-03
		-2.59788000E-03	-1.13000000E-02	-5.39744000E-03
		-1.70207000E-03	-8.39303000E-03	-4.19740000E-03
		-1.14504000E-03	-1.36326000E-02	-2.68070000E-03
		-2.44389000E-03	-1.25530000E-02	-5.47700000E-03
		-2.05860000E-03	-6.51645000E-03	-4.19933000E-03
		-1.30358000E-03	-1.12014000E-02	-2.72782000E-03
		-5.31604000E-06	-8.44018000E-03	-6.22781000E-05
		 2.89598000E-03	-8.63647000E-03	 5.23922000E-03
		-7.31900000E-06	-9.84322000E-03	-7.68982000E-05
		 2.72721000E-03	-1.00442000E-02	 5.17495000E-03
		-1.09705000E-05	-4.11351000E-03	-4.36968000E-05
		 1.44312000E-03	-8.50348000E-03	 2.62710000E-03
		 2.42282000E-03	-4.30148000E-03	 4.09324000E-03
		-2.92734000E-03	-8.53230000E-03	-5.35845000E-03
		-2.76353000E-03	-9.95761000E-03	-5.32165000E-03
		-2.43445000E-03	-4.27353000E-03	-4.16912000E-03
		-1.45992000E-03	-8.44533000E-03	-2.75135000E-03
		-7.04648000E-06	-2.70070000E-02	-2.56003000E-04
		 2.96833000E-03	-2.71865000E-02	 6.87190000E-03
		-6.41222000E-06	-2.39282000E-02	-1.99414000E-04
		 3.19023000E-03	-2.40987000E-02	 6.93045000E-03
		-9.77256000E-06	-1.99313000E-02	-1.80845000E-04
		 1.47771000E-03	-2.70688000E-02	 3.27002000E-03
		 2.68559000E-03	-2.01165000E-02	 6.10187000E-03
		-6.21727000E-06	-2.54966000E-02	-2.29798000E-04
		 3.07983000E-03	-2.56687000E-02	 6.92805000E-03
		-8.00185000E-06	-1.71021000E-02	-1.32767000E-04
		 1.59231000E-03	-2.39861000E-02	 3.35433000E-03
		 2.94920000E-03	-1.72859000E-02	 6.15640000E-03
		-2.98999000E-03	-2.70852000E-02	-7.38774000E-03
		-3.20319000E-03	-2.39894000E-02	-7.33465000E-03
		-2.71930000E-03	-2.00447000E-02	-6.46733000E-03
		-1.49447000E-03	-2.70199000E-02	-3.78497000E-03
		-3.09698000E-03	-2.55619000E-02	-7.38911000E-03
		-2.98129000E-03	-1.71936000E-02	-6.43316000E-03
		-1.60487000E-03	-2.39322000E-02	-3.75430000E-03
		-2.96159000E-06	-2.06143000E-02	-1.40882000E-04
		 3.43146000E-03	-2.07768000E-02	 6.98131000E-03
		-5.68353000E-06	-2.22988000E-02	-1.69884000E-04
		 3.31014000E-03	-2.24649000E-02	 6.93450000E-03
		-3.55969000E-06	-1.40011000E-02	-8.52930000E-05
		 1.71515000E-03	-2.06673000E-02	 3.43132000E-03
		 3.23283000E-03	-1.41893000E-02	 6.18931000E-03
		-3.42750000E-03	-2.06754000E-02	-7.27251000E-03
		-3.31610000E-03	-2.23595000E-02	-7.28441000E-03
		-3.25830000E-03	-1.40727000E-02	-6.37800000E-03
		-1.71646000E-03	-2.06181000E-02	-3.71380000E-03
		 2.45220000E-06	-4.26382000E-02	-4.06128000E-04
		 2.96955000E-03	-4.28797000E-02	 8.32256000E-03
		 1.13312000E-05	-3.95296000E-02	-3.49620000E-04
		 3.27052000E-03	-3.97617000E-02	 8.36039000E-03
		-1.25496000E-06	-3.45786000E-02	-3.29792000E-04
		 1.48370000E-03	-4.27245000E-02	 4.02328000E-03
		 3.06309000E-03	-3.47914000E-02	 7.54662000E-03
		 5.23015000E-06	-4.11223000E-02	-3.77487000E-04
		 3.11975000E-03	-4.13558000E-02	 8.31376000E-03
		 6.67334000E-06	-3.14116000E-02	-2.74570000E-04
		 1.64137000E-03	-3.96097000E-02	 4.04454000E-03
		 3.29562000E-03	-3.16081000E-02	 7.59382000E-03
		-2.96223000E-03	-4.27124000E-02	-9.14213000E-03
		-3.24653000E-03	-3.95965000E-02	-9.07008000E-03
		-3.06052000E-03	-3.46510000E-02	-8.21069000E-03
		-1.47857000E-03	-4.26370000E-02	-4.83668000E-03
		-3.10593000E-03	-4.11908000E-02	-9.07990000E-03
		-3.27995000E-03	-3.14731000E-02	-8.14422000E-03
		-1.61816000E-03	-3.95258000E-02	-4.74828000E-03
		 2.45786000E-05	-3.61202000E-02	-2.91961000E-04
		 3.58791000E-03	-3.63495000E-02	 8.43458000E-03
		 1.85117000E-05	-3.78606000E-02	-3.21302000E-04
		 3.42985000E-03	-3.80935000E-02	 8.39962000E-03
		 1.61697000E-05	-2.80019000E-02	-2.14204000E-04
		 1.80476000E-03	-3.61978000E-02	 4.10370000E-03
		 3.54564000E-03	-2.81951000E-02	 7.66113000E-03
		-3.54383000E-03	-3.61748000E-02	-9.02446000E-03
		-3.39520000E-03	-3.79245000E-02	-9.04998000E-03
		-3.51440000E-03	-2.80592000E-02	-8.08867000E-03
		-1.75719000E-03	-3.61098000E-02	-4.69059000E-03
		 2.85637000E-05	-6.17532000E-02	-6.49467000E-04
		 2.39400000E-03	-6.20745000E-02	 1.06256000E-02
		 1.97906000E-05	-5.91603000E-02	-5.82462000E-04
		 2.80572000E-03	-5.95022000E-02	 1.06983000E-02
		 1.17752000E-05	-5.15147000E-02	-5.09544000E-04
		 1.21601000E-03	-6.18588000E-02	 5.02390000E-03
		 2.71090000E-03	-5.17983000E-02	 9.40504000E-03
		 2.47584000E-05	-6.05104000E-02	-6.17111000E-04
		 2.60027000E-03	-6.08443000E-02	 1.06144000E-02
		 8.53410000E-06	-4.86178000E-02	-4.47391000E-04
		 1.41429000E-03	-5.92750000E-02	 5.04537000E-03
		 3.09165000E-03	-4.89060000E-02	 9.45223000E-03
		-2.35967000E-03	-6.18305000E-02	-1.19313000E-02
		-2.77574000E-03	-5.92316000E-02	-1.18687000E-02
		-2.70132000E-03	-5.16014000E-02	-1.04340000E-02
		-1.16512000E-03	-6.17349000E-02	-6.32592000E-03
		-2.56882000E-03	-6.05858000E-02	-1.18523000E-02
		-3.07696000E-03	-4.86960000E-02	-1.03569000E-02
		-1.37719000E-03	-5.91369000E-02	-6.21184000E-03
		 1.88024000E-05	-5.61740000E-02	-5.02680000E-04
		 3.22854000E-03	-5.65102000E-02	 1.07669000E-02
		 1.65703000E-05	-5.77203000E-02	-5.43549000E-04
		 3.01479000E-03	-5.80652000E-02	 1.07846000E-02
		 1.33378000E-05	-4.53472000E-02	-3.83738000E-04
		 1.62075000E-03	-5.62851000E-02	 5.06481000E-03
		 3.49481000E-03	-4.56229000E-02	 9.52778000E-03
		-3.18910000E-03	-5.62312000E-02	-1.17831000E-02
		-2.98350000E-03	-5.77852000E-02	-1.18809000E-02
		-3.46179000E-03	-4.54086000E-02	-1.03035000E-02
		-1.58219000E-03	-5.61468000E-02	-6.07474000E-03
		 4.67169000E-05	-8.68292000E-02	-1.01159000E-03
		 2.06789000E-03	-8.71231000E-02	 1.24838000E-02
		 5.00622000E-05	-8.47067000E-02	-9.35986000E-04
		 2.28885000E-03	-8.49951000E-02	 1.25828000E-02
		 3.61177000E-05	-7.36266000E-02	-8.20774000E-04
		 1.05584000E-03	-8.69503000E-02	 5.69452000E-03
		 2.17776000E-03	-7.39406000E-02	 1.17205000E-02
		 4.59934000E-05	-8.57930000E-02	-9.75952000E-04
		 2.17774000E-03	-8.60839000E-02	 1.25204000E-02
		 3.13305000E-05	-7.13081000E-02	-7.46702000E-04
		 1.16841000E-03	-8.48218000E-02	 5.76762000E-03
		 2.51157000E-03	-7.16345000E-02	 1.18114000E-02
		-1.94673000E-03	-8.67360000E-02	-1.45329000E-02
		-2.17997000E-03	-8.46360000E-02	-1.44878000E-02
		-2.10280000E-03	-7.36123000E-02	-1.33674000E-02
		-9.55864000E-04	-8.67532000E-02	-7.72624000E-03
		-2.06231000E-03	-8.57181000E-02	-1.44995000E-02
		-2.44934000E-03	-7.13023000E-02	-1.33193000E-02
		-1.06462000E-03	-8.46471000E-02	-7.64952000E-03
		 6.02600000E-05	-8.23648000E-02	-8.35194000E-04
		 2.50327000E-03	-8.26669000E-02	 1.26574000E-02
		 5.58533000E-05	-8.35648000E-02	-8.88584000E-04
		 2.39438000E-03	-8.38559000E-02	 1.26618000E-02
		 3.38283000E-05	-6.86669000E-02	-6.53152000E-04
		 1.28614000E-03	-8.24871000E-02	 5.81474000E-03
		 2.84214000E-03	-6.90016000E-02	 1.18781000E-02
		-2.39233000E-03	-8.22961000E-02	-1.43669000E-02
		-2.28710000E-03	-8.34921000E-02	-1.44750000E-02
		-2.78047000E-03	-6.86562000E-02	-1.32101000E-02
		-1.16655000E-03	-8.23069000E-02	-7.49870000E-03
		 8.50750000E-05	-1.15406000E-01	-1.45554000E-03
		 2.30586000E-03	-1.15592000E-01	 1.27255000E-02
		 1.18445000E-04	-1.13186000E-01	-1.36643000E-03
		 2.35214000E-03	-1.13370000E-01	 1.28323000E-02
		 6.77764000E-05	-1.00928000E-01	-1.22248000E-03
		 1.19520000E-03	-1.15491000E-01	 5.58463000E-03
		 2.11337000E-03	-1.01164000E-01	 1.27601000E-02
		 9.67330000E-05	-1.14298000E-01	-1.41159000E-03
		 2.32380000E-03	-1.14483000E-01	 1.28080000E-02
		 8.69993000E-05	-9.88412000E-02	-1.14933000E-03
		 1.23568000E-03	-1.13271000E-01	 5.71361000E-03
		 2.23334000E-03	-9.90730000E-02	 1.28620000E-02
		-2.13005000E-03	-1.15239000E-01	-1.56314000E-02
		-2.12491000E-03	-1.13020000E-01	-1.55560000E-02
		-1.95435000E-03	-1.00787000E-01	-1.52385000E-02
		-1.02237000E-03	-1.15331000E-01	-8.49028000E-03
		-2.13164000E-03	-1.14130000E-01	-1.56275000E-02
		-2.05785000E-03	-9.87212000E-02	-1.51894000E-02
		-1.00324000E-03	-1.13111000E-01	-8.44239000E-03
		 1.52284000E-04	-1.10934000E-01	-1.27340000E-03
		 2.38867000E-03	-1.11143000E-01	 1.29164000E-02
		 1.40674000E-04	-1.12061000E-01	-1.32145000E-03
		 2.37539000E-03	-1.12252000E-01	 1.28519000E-02
		 1.08298000E-04	-9.66444000E-02	-1.04937000E-03
		 1.27533000E-03	-1.11032000E-01	 5.82667000E-03
		 2.33111000E-03	-9.69031000E-02	 1.29401000E-02
		-2.11739000E-03	-1.10763000E-01	-1.54544000E-02
		-2.11627000E-03	-1.11895000E-01	-1.54852000E-02
		-2.13653000E-03	-9.65307000E-02	-1.50658000E-02
		-9.81782000E-04	-1.10854000E-01	-8.36852000E-03
		 2.06094000E-04	-1.44150000E-01	-1.91380000E-03
		 2.71144000E-03	-1.44392000E-01	 1.22953000E-02
		 1.82049000E-04	-1.41674000E-01	-1.76407000E-03
		 2.68413000E-03	-1.41913000E-01	 1.24628000E-02
		 1.23011000E-04	-1.29862000E-01	-1.69676000E-03
		 1.46613000E-03	-1.44275000E-01	 5.17303000E-03
		 2.53023000E-03	-1.30054000E-01	 1.25258000E-02
		 1.94605000E-04	-1.42907000E-01	-1.83062000E-03
		 2.69790000E-03	-1.43154000E-01	 1.23968000E-02
		 1.44805000E-04	-1.27457000E-01	-1.56925000E-03
		 1.43730000E-03	-1.41798000E-01	 5.34511000E-03
		 2.55329000E-03	-1.27658000E-01	 1.26650000E-02
		-2.32476000E-03	-1.43919000E-01	-1.60315000E-02
		-2.31621000E-03	-1.41433000E-01	-1.59169000E-02
		-2.29468000E-03	-1.29679000E-01	-1.58534000E-02
		-1.06212000E-03	-1.44033000E-01	-8.97333000E-03
		-2.32073000E-03	-1.42671000E-01	-1.59761000E-02
		-2.26679000E-03	-1.27270000E-01	-1.57470000E-02
		-1.07124000E-03	-1.41550000E-01	-8.85207000E-03
		 1.61980000E-04	-1.39195000E-01	-1.69321000E-03
		 2.69291000E-03	-1.39413000E-01	 1.25569000E-02
		 1.70523000E-04	-1.40439000E-01	-1.72095000E-03
		 2.68740000E-03	-1.40668000E-01	 1.25033000E-02
		 1.69746000E-04	-1.25047000E-01	-1.48900000E-03
		 1.42815000E-03	-1.39307000E-01	 5.44369000E-03
		 2.58269000E-03	-1.25251000E-01	 1.27564000E-02
		-2.33586000E-03	-1.38950000E-01	-1.58533000E-02
		-2.32634000E-03	-1.40190000E-01	-1.58678000E-02
		-2.24619000E-03	-1.24861000E-01	-1.56738000E-02
		-1.09278000E-03	-1.39071000E-01	-8.79913000E-03
		 0.00000000E+00	 0.00000000E+00	 0.00000000E+00
		 0.00000000E+00	 0.00000000E+00	 0.00000000E+00
		 6.86715000E-05	-1.18838000E-02	-1.57708000E-04
		-3.90272000E-03	-1.28601000E-02	 1.30117000E-02
		 0.00000000E+00	 0.00000000E+00	 0.00000000E+00
		 0.00000000E+00	 0.00000000E+00	 0.00000000E+00
		 6.63698000E-05	-1.49862000E-02	-2.10422000E-04
		-2.18093000E-03	-1.60047000E-02	 1.30979000E-02
		 0.00000000E+00	 0.00000000E+00	 0.00000000E+00
		 5.11851000E-05	-2.08134000E-03	-5.33041000E-05
		-1.92269000E-03	-1.20741000E-02	 6.48194000E-03
		-3.02072000E-03	-3.30809000E-03	 6.64838000E-03
		 0.00000000E+00	 0.00000000E+00	 0.00000000E+00
		 0.00000000E+00	 0.00000000E+00	 0.00000000E+00
		 6.97253000E-05	-1.37263000E-02	-1.89351000E-04
		-3.02413000E-03	-1.47168000E-02	 1.28502000E-02
		 0.00000000E+00	 0.00000000E+00	 0.00000000E+00
		 2.65220000E-05	-4.07787000E-03	-6.26489000E-05
		-1.05829000E-03	-1.51796000E-02	 6.28581000E-03
		-1.09380000E-03	-5.26974000E-03	 6.45322000E-03
		 0.00000000E+00	 0.00000000E+00	 0.00000000E+00
		 4.02964000E-03	-1.24295000E-02	-1.33929000E-02
		 0.00000000E+00	 0.00000000E+00	 0.00000000E+00
		 2.34001000E-03	-1.55961000E-02	-1.35893000E-02
		 0.00000000E+00	 0.00000000E+00	 0.00000000E+00
		 3.10840000E-03	-3.16283000E-03	-6.78134000E-03
		 2.05637000E-03	-1.18490000E-02	-6.82201000E-03
		 0.00000000E+00	 0.00000000E+00	 0.00000000E+00
		 3.17590000E-03	-1.42975000E-02	-1.32917000E-02
		 0.00000000E+00	 0.00000000E+00	 0.00000000E+00
		 1.15112000E-03	-5.13699000E-03	-6.59887000E-03
		 1.19909000E-03	-1.49760000E-02	-6.73089000E-03
		 0.00000000E+00	 0.00000000E+00	 0.00000000E+00
		 0.00000000E+00	 0.00000000E+00	 0.00000000E+00
		 5.74395000E-05	-1.64047000E-02	-2.00175000E-04
		-4.48451000E-04	-1.73289000E-02	 1.29690000E-02
		 0.00000000E+00	 0.00000000E+00	 0.00000000E+00
		 0.00000000E+00	 0.00000000E+00	 0.00000000E+00
		 6.14298000E-05	-1.59828000E-02	-2.16439000E-04
		-1.32793000E-03	-1.69604000E-02	 1.32220000E-02
		 0.00000000E+00	 0.00000000E+00	 0.00000000E+00
		 4.37951000E-07	-4.32262000E-03	-4.21710000E-05
		-1.99419000E-04	-1.65541000E-02	 6.03104000E-03
		 9.09208000E-04	-5.45959000E-03	 6.65041000E-03
		 0.00000000E+00	 0.00000000E+00	 0.00000000E+00
		 6.16096000E-04	-1.69675000E-02	-1.34281000E-02
		 0.00000000E+00	 0.00000000E+00	 0.00000000E+00
		 1.48682000E-03	-1.65653000E-02	-1.37276000E-02
		 0.00000000E+00	 0.00000000E+00	 0.00000000E+00
		-8.97641000E-04	-5.32114000E-03	-6.76262000E-03
		 3.33976000E-04	-1.63904000E-02	-6.44506000E-03
		 1.91577000E-04	-4.89883000E-02	-8.46117000E-04
		-5.45822000E-03	-5.02373000E-02	 2.28295000E-02
		 2.21873000E-04	-5.39459000E-02	-9.94542000E-04
		-4.07867000E-03	-5.52085000E-02	 2.27281000E-02
		 1.21332000E-04	-2.76825000E-02	-4.06569000E-04
		-2.63165000E-03	-4.94660000E-02	 1.09860000E-02
		-4.81529000E-03	-2.88738000E-02	 1.84022000E-02
		 2.07738000E-04	-5.16137000E-02	-9.28670000E-04
		-4.76903000E-03	-5.28686000E-02	 2.26833000E-02
		 1.29540000E-04	-3.18165000E-02	-5.12292000E-04
		-1.92504000E-03	-5.44306000E-02	 1.07728000E-02
		-3.21206000E-03	-3.30131000E-02	 1.83551000E-02
		 5.83394000E-03	-4.90026000E-02	-2.45881000E-02
		 4.51537000E-03	-5.39884000E-02	-2.47813000E-02
		 5.04145000E-03	-2.80865000E-02	-1.92940000E-02
		 3.00933000E-03	-4.88493000E-02	-1.26929000E-02
		 5.18075000E-03	-5.16539000E-02	-2.46039000E-02
		 3.48671000E-03	-3.22407000E-02	-1.94482000E-02
		 2.36981000E-03	-5.38275000E-02	-1.27731000E-02
		 2.32345000E-04	-5.75807000E-02	-1.07450000E-03
		-2.71636000E-03	-5.88271000E-02	 2.26012000E-02
		 2.29578000E-04	-5.59118000E-02	-1.04307000E-03
		-3.39461000E-03	-5.72006000E-02	 2.28018000E-02
		 1.26932000E-04	-3.43841000E-02	-5.47896000E-04
		-1.24477000E-03	-5.80477000E-02	 1.05264000E-02
		-1.64278000E-03	-3.55710000E-02	 1.82690000E-02
		 3.21206000E-03	-5.76323000E-02	-2.48110000E-02
		 3.86385000E-03	-5.59495000E-02	-2.49503000E-02
		 1.95762000E-03	-3.48527000E-02	-1.94206000E-02
		 1.71840000E-03	-5.74677000E-02	-1.26860000E-02
		 4.45237000E-04	-1.04528000E-01	-2.33434000E-03
		-6.17496000E-03	-1.05935000E-01	 2.87044000E-02
		 4.92492000E-04	-1.10647000E-01	-2.53802000E-03
		-5.18990000E-03	-1.12171000E-01	 2.85496000E-02
		 3.02608000E-04	-7.48284000E-02	-1.48353000E-03
		-2.85704000E-03	-1.05110000E-01	 1.31451000E-02
		-5.90747000E-03	-7.61919000E-02	 2.62206000E-02
		 4.72491000E-04	-1.07707000E-01	-2.44214000E-03
		-5.68342000E-03	-1.09187000E-01	 2.85588000E-02
		 3.39521000E-04	-8.04626000E-02	-1.66385000E-03
		-2.37461000E-03	-1.11288000E-01	 1.28960000E-02
		-4.73970000E-03	-8.18410000E-02	 2.60887000E-02
		 7.02534000E-03	-1.03933000E-01	-3.34176000E-02
		 6.18763000E-03	-1.10086000E-01	-3.37089000E-02
		 6.50041000E-03	-7.45508000E-02	-2.92562000E-02
		 3.73266000E-03	-1.04116000E-01	-1.78194000E-02
		 6.60752000E-03	-1.07127000E-01	-3.35151000E-02
		 5.42081000E-03	-8.01927000E-02	-2.94930000E-02
		 3.34032000E-03	-1.10259000E-01	-1.80067000E-02
		 5.22300000E-04	-1.15893000E-01	-2.68742000E-03
		-4.33367000E-03	-1.17515000E-01	 2.83436000E-02
		 5.08576000E-04	-1.13401000E-01	-2.62209000E-03
		-4.76387000E-03	-1.14852000E-01	 2.85549000E-02
		 3.69443000E-04	-8.49835000E-02	-1.78091000E-03
		-1.87871000E-03	-1.16581000E-01	 1.26028000E-02
		-3.63436000E-03	-8.63938000E-02	 2.59191000E-02
		 5.36687000E-03	-1.15383000E-01	-3.38348000E-02
		 5.77828000E-03	-1.12839000E-01	-3.38918000E-02
		 4.33885000E-03	-8.47280000E-02	-2.95672000E-02
		 2.93521000E-03	-1.15547000E-01	-1.80350000E-02
		 9.06657000E-04	-1.72644000E-01	-4.57448000E-03
		-5.82803000E-03	-1.73955000E-01	 3.04400000E-02
		 9.64640000E-04	-1.79293000E-01	-4.78324000E-03
		-5.61349000E-03	-1.81064000E-01	 3.02947000E-02
		 6.19070000E-04	-1.37423000E-01	-3.37448000E-03
		-2.46123000E-03	-1.73256000E-01	 1.27859000E-02
		-6.15503000E-03	-1.38905000E-01	 3.01068000E-02
		 9.35922000E-04	-1.75965000E-01	-4.67706000E-03
		-5.71166000E-03	-1.77457000E-01	 3.03974000E-02
		 6.72434000E-04	-1.43925000E-01	-3.63436000E-03
		-2.20324000E-03	-1.80122000E-01	 1.26247000E-02
		-5.54299000E-03	-1.45363000E-01	 2.99999000E-02
		 7.48640000E-03	-1.71496000E-01	-3.96115000E-02
		 7.25661000E-03	-1.78009000E-01	-3.98813000E-02
		 7.38000000E-03	-1.36517000E-01	-3.68996000E-02
		 4.19216000E-03	-1.72054000E-01	-2.19355000E-02
		 7.37568000E-03	-1.74779000E-01	-3.97797000E-02
		 6.82985000E-03	-1.43005000E-01	-3.72066000E-02
		 4.09780000E-03	-1.78607000E-01	-2.22018000E-02
		 8.77986000E-04	-1.85703000E-01	-4.98347000E-03
		-5.29309000E-03	-1.87836000E-01	 3.00445000E-02
		 9.25392000E-04	-1.82493000E-01	-4.88909000E-03
		-5.44935000E-03	-1.84966000E-01	 3.02098000E-02
		 6.89635000E-04	-1.49839000E-01	-3.87999000E-03
		-2.32143000E-03	-1.86696000E-01	 1.23564000E-02
		-4.79232000E-03	-1.51152000E-01	 2.97565000E-02
		 7.05072000E-03	-1.84281000E-01	-4.00138000E-02