<?xml version="1.0"?>
<VTKFile type="UnstructuredGrid" version="0.1" byte_order="LittleEndian">
	<UnstructuredGrid>
		<Piece NumberOfPoints="522" NumberOfCells="64">
			<Points>
				<DataArray type="Float64" NumberOfComponents="3" format="ascii">
					 1.00000000E+00	 1.00000000E+00	-5.96046000E-08
					 1.00000000E+00	 5.00000000E-01	-5.96046000E-08
					 1.00000000E+00	 5.00000000E-01	 1.00000000E+00
					 1.00000000E+00	 1.00000000E+00	 1.00000000E+00
					 5.00000000E-01	 1.00000000E+00	-5.96046000E-08
					 5.00000000E-01	 5.00000000E-01	-5.96046000E-08
					 5.00000000E-01	 5.00000000E-01	 1.00000000E+00
					 5.00000000E-01	 1.00000000E+00	 1.00000000E+00
					 1.00000000E+00	 7.50000000E-01	-5.96046000E-08
					 1.00000000E+00	 5.00000000E-01	 5.00000000E-01
					 1.00000000E+00	 7.50000000E-01	 1.00000000E+00
					 1.00000000E+00	 1.00000000E+00	 5.00000000E-01
					 7.50000000E-01	 1.00000000E+00	-5.96046000E-08
					 7.50000000E-01	 5.00000000E-01	-5.96046000E-08
					 7.50000000E-01	 5.00000000E-01	 1.00000000E+00
					 7.50000000E-01	 1.00000000E+00	 1.00000000E+00
					 5.00000000E-01	 7.50000000E-01	-5.96046000E-08
					 5.00000000E-01	 5.00000000E-01	 5.00000000E-01
					 5.00000000E-01	 7.50000000E-01	 1.00000000E+00
					 5.00000000E-01	 1.00000000E+00	 5.00000000E-01
					 1.00000000E+00	-1.49012000E-08	-5.96046000E-08
					 1.00000000E+00	-1.49012000E-08	 1.00000000E+00
					 5.00000000E-01	-1.49012000E-08	-5.96046000E-08
					 5.00000000E-01	-1.49012000E-08	 1.00000000E+00
					 1.00000000E+00	 2.50000000E-01	-5.96046000E-08
					 1.00000000E+00	-1.49012000E-08	 5.00000000E-01
					 1.00000000E+00	 2.50000000E-01	 1.00000000E+00
					 7.50000000E-01	-1.49012000E-08	-5.96046000E-08
					 7.50000000E-01	-1.49012000E-08	 1.00000000E+00
					 5.00000000E-01	 2.50000000E-01	-5.96046000E-08
					 5.00000000E-01	-1.49012000E-08	 5.00000000E-01
					 5.00000000E-01	 2.50000000E-01	 1.00000000E+00
					-7.45058000E-09	 1.00000000E+00	-5.96046000E-08
					-7.45058000E-09	 5.00000000E-01	-5.96046000E-08
					-7.45058000E-09	 5.00000000E-01	 1.00000000E+00
					-7.45058000E-09	 1.00000000E+00	 1.00000000E+00
					 2.50000000E-01	 1.00000000E+00	-5.96046000E-08
					 2.50000000E-01	 5.00000000E-01	-5.96046000E-08
					 2.50000000E-01	 5.00000000E-01	 1.00000000E+00
					 2.50000000E-01	 1.00000000E+00	 1.00000000E+00
					-7.45058000E-09	 7.50000000E-01	-5.96046000E-08
					-7.45058000E-09	 5.00000000E-01	 5.00000000E-01
					-7.45058000E-09	 7.50000000E-01	 1.00000000E+00
					-7.45058000E-09	 1.00000000E+00	 5.00000000E-01
					-7.45058000E-09	-1.49012000E-08	-5.96046000E-08
					-7.45058000E-09	-1.49012000E-08	 1.00000000E+00
					 2.50000000E-01	-1.49012000E-08	-5.96046000E-08
					 2.50000000E-01	-1.49012000E-08	 1.00000000E+00
					-7.45058000E-09	 2.50000000E-01	-5.96046000E-08
					-7.45058000E-09	-1.49012000E-08	 5.00000000E-01
					-7.45058000E-09	 2.50000000E-01	 1.00000000E+00
					 1.00000000E+00	 5.00000000E-01	 2.00000000E+00
					 1.00000000E+00	 1.00000000E+00	 2.00000000E+00
					 5.00000000E-01	 5.00000000E-01	 2.00000000E+00
					 5.00000000E-01	 1.00000000E+00	 2.00000000E+00
					 1.00000000E+00	 5.00000000E-01	 1.50000000E+00
					 1.00000000E+00	 7.50000000E-01	 2.00000000E+00
					 1.00000000E+00	 1.00000000E+00	 1.50000000E+00
					 7.50000000E-01	 5.00000000E-01	 2.00000000E+00
					 7.50000000E-01	 1.00000000E+00	 2.00000000E+00
					 5.00000000E-01	 5.00000000E-01	 1.50000000E+00
					 5.00000000E-01	 7.50000000E-01	 2.00000000E+00
					 5.00000000E-01	 1.00000000E+00	 1.50000000E+00
					 1.00000000E+00	-1.49012000E-08	 2.00000000E+00
					 5.00000000E-01	-1.49012000E-08	 2.00000000E+00
					 1.00000000E+00	-1.49012000E-08	 1.50000000E+00
					 1.00000000E+00	 2.50000000E-01	 2.00000000E+00
					 7.50000000E-01	-1.49012000E-08	 2.00000000E+00
					 5.00000000E-01	-1.49012000E-08	 1.50000000E+00
					 5.00000000E-01	 2.50000000E-01	 2.00000000E+00
					-7.45058000E-09	 5.00000000E-01	 2.00000000E+00
					-7.45058000E-09	 1.00000000E+00	 2.00000000E+00
					 2.50000000E-01	 5.00000000E-01	 2.00000000E+00
					 2.50000000E-01	 1.00000000E+00	 2.00000000E+00
					-7.45058000E-09	 5.00000000E-01	 1.50000000E+00
					-7.45058000E-09	 7.50000000E-01	 2.00000000E+00
					-7.45058000E-09	 1.00000000E+00	 1.50000000E+00
					-7.45058000E-09	-1.49012000E-08	 2.00000000E+00
					 2.50000000E-01	-1.49012000E-08	 2.00000000E+00
					-7.45058000E-09	-1.49012000E-08	 1.50000000E+00
					-7.45058000E-09	 2.50000000E-01	 2.00000000E+00
					 1.00000000E+00	 5.00000000E-01	 3.00000000E+00
					 1.00000000E+00	 1.00000000E+00	 3.00000000E+00
					 5.00000000E-01	 5.00000000E-01	 3.00000000E+00
					 5.00000000E-01	 1.00000000E+00	 3.00000000E+00
					 1.00000000E+00	 5.00000000E-01	 2.50000000E+00
					 1.00000000E+00	 7.50000000E-01	 3.00000000E+00
					 1.00000000E+00	 1.00000000E+00	 2.50000000E+00
					 7.50000000E-01	 5.00000000E-01	 3.00000000E+00
					 7.50000000E-01	 1.00000000E+00	 3.00000000E+00
					 5.00000000E-01	 5.00000000E-01	 2.50000000E+00
					 5.00000000E-01	 7.50000000E-01	 3.00000000E+00
					 5.00000000E-01	 1.00000000E+00	 2.50000000E+00
					 1.00000000E+00	-1.49012000E-08	 3.00000000E+00
					 5.00000000E-01	-1.49012000E-08	 3.00000000E+00
					 1.00000000E+00	-1.49012000E-08	 2.50000000E+00
					 1.00000000E+00	 2.50000000E-01	 3.00000000E+00
					 7.50000000E-01	-1.49012000E-08	 3.00000000E+00
					 5.00000000E-01	-1.49012000E-08	 2.50000000E+00
					 5.00000000E-01	 2.50000000E-01	 3.00000000E+00
					-7.45058000E-09	 5.00000000E-01	 3.00000000E+00
					-7.45058000E-09	 1.00000000E+00	 3.00000000E+00
					 2.50000000E-01	 5.00000000E-01	 3.00000000E+00
					 2.50000000E-01	 1.00000000E+00	 3.00000000E+00
					-7.45058000E-09	 5.00000000E-01	 2.50000000E+00
					-7.45058000E-09	 7.50000000E-01	 3.00000000E+00
					-7.45058000E-09	 1.00000000E+00	 2.50000000E+00
					-7.45058000E-09	-1.49012000E-08	 3.00000000E+00
					 2.50000000E-01	-1.49012000E-08	 3.00000000E+00
					-7.45058000E-09	-1.49012000E-08	 2.50000000E+00
					-7.45058000E-09	 2.50000000E-01	 3.00000000E+00
					 1.00000000E+00	 5.00000000E-01	 4.00000000E+00
					 1.00000000E+00	 1.00000000E+00	 4.00000000E+00
					 5.00000000E-01	 5.00000000E-01	 4.00000000E+00
					 5.00000000E-01	 1.00000000E+00	 4.00000000E+00
					 1.00000000E+00	 5.00000000E-01	 3.50000000E+00
					 1.00000000E+00	 7.50000000E-01	 4.00000000E+00
					 1.00000000E+00	 1.00000000E+00	 3.50000000E+00
					 7.50000000E-01	 5.00000000E-01	 4.00000000E+00
					 7.50000000E-01	 1.00000000E+00	 4.00000000E+00
					 5.00000000E-01	 5.00000000E-01	 3.50000000E+00
					 5.00000000E-01	 7.50000000E-01	 4.00000000E+00
					 5.00000000E-01	 1.00000000E+00	 3.50000000E+00
					 1.00000000E+00	-1.49012000E-08	 4.00000000E+00
					 5.00000000E-01	-1.49012000E-08	 4.00000000E+00
					 1.00000000E+00	-1.49012000E-08	 3.50000000E+00
					 1.00000000E+00	 2.50000000E-01	 4.00000000E+00
					 7.50000000E-01	-1.49012000E-08	 4.00000000E+00
					 5.00000000E-01	-1.49012000E-08	 3.50000000E+00
					 5.00000000E-01	 2.50000000E-01	 4.00000000E+00
					-7.45058000E-09	 5.00000000E-01	 4.00000000E+00
					-7.45058000E-09	 1.00000000E+00	 4.00000000E+00
					 2.50000000E-01	 5.00000000E-01	 4.00000000E+00
					 2.50000000E-01	 1.00000000E+00	 4.00000000E+00
					-7.45058000E-09	 5.00000000E-01	 3.50000000E+00
					-7.45058000E-09	 7.50000000E-01	 4.00000000E+00
					-7.45058000E-09	 1.00000000E+00	 3.50000000E+00
					-7.45058000E-09	-1.49012000E-08	 4.00000000E+00
					 2.50000000E-01	-1.49012000E-08	 4.00000000E+00
					-7.45058000E-09	-1.49012000E-08	 3.50000000E+00
					-7.45058000E-09	 2.50000000E-01	 4.00000000E+00
					 1.00000000E+00	 5.00000000E-01	 5.00000000E+00
					 1.00000000E+00	 1.00000000E+00	 5.00000000E+00
					 5.00000000E-01	 5.00000000E-01	 5.00000000E+00
					 5.00000000E-01	 1.00000000E+00	 5.00000000E+00
					 1.00000000E+00	 5.00000000E-01	 4.50000000E+00
					 1.00000000E+00	 7.50000000E-01	 5.00000000E+00
					 1.00000000E+00	 1.00000000E+00	 4.50000000E+00
					 7.50000000E-01	 5.00000000E-01	 5.00000000E+00
					 7.50000000E-01	 1.00000000E+00	 5.00000000E+00
					 5.00000000E-01	 5.00000000E-01	 4.50000000E+00
					 5.00000000E-01	 7.50000000E-01	 5.00000000E+00
					 5.00000000E-01	 1.00000000E+00	 4.50000000E+00
					 1.00000000E+00	-1.49012000E-08	 5.00000000E+00
					 5.00000000E-01	-1.49012000E-08	 5.00000000E+00
					 1.00000000E+00	-1.49012000E-08	 4.50000000E+00
					 1.00000000E+00	 2.50000000E-01	 5.00000000E+00
					 7.50000000E-01	-1.49012000E-08	 5.00000000E+00
					 5.00000000E-01	-1.49012000E-08	 4.50000000E+00
					 5.00000000E-01	 2.50000000E-01	 5.00000000E+00
					-7.45058000E-09	 5.00000000E-01	 5.00000000E+00
					-7.45058000E-09	 1.00000000E+00	 5.00000000E+00
					 2.50000000E-01	 5.00000000E-01	 5.00000000E+00
					 2.50000000E-01	 1.00000000E+00	 5.00000000E+00
					-7.45058000E-09	 5.00000000E-01	 4.50000000E+00
					-7.45058000E-09	 7.50000000E-01	 5.00000000E+00
					-7.45058000E-09	 1.00000000E+00	 4.50000000E+00
					-7.45058000E-09	-1.49012000E-08	 5.00000000E+00
					 2.50000000E-01	-1.49012000E-08	 5.00000000E+00
					-7.45058000E-09	-1.49012000E-08	 4.50000000E+00
					-7.45058000E-09	 2.50000000E-01	 5.00000000E+00
					 1.00000000E+00	 5.00000000E-01	 6.00000000E+00
					 1.00000000E+00	 1.00000000E+00	 6.00000000E+00
					 5.00000000E-01	 5.00000000E-01	 6.00000000E+00
					 5.00000000E-01	 1.00000000E+00	 6.00000000E+00
					 1.00000000E+00	 5.00000000E-01	 5.50000000E+00
					 1.00000000E+00	 7.50000000E-01	 6.00000000E+00
					 1.00000000E+00	 1.00000000E+00	 5.50000000E+00
					 7.50000000E-01	 5.00000000E-01	 6.00000000E+00
					 7.50000000E-01	 1.00000000E+00	 6.00000000E+00
					 5.00000000E-01	 5.00000000E-01	 5.50000000E+00
					 5.00000000E-01	 7.50000000E-01	 6.00000000E+00
					 5.00000000E-01	 1.00000000E+00	 5.50000000E+00
					 1.00000000E+00	-1.49012000E-08	 6.00000000E+00
[...]
			<PointData>
				<DataArray type="Float32" Name="U" NumberOfComponents="3" ComponentName0="D1" ComponentName1="D2" ComponentName2="D3" format="ascii">
					 0.00000000E+00	 0.00000000E+00	 0.00000000E+00
					 0.00000000E+00	 0.00000000E+00	 0.00000000E+00
					 0.00000000E+00	 0.00000000E+00	 0.00000000E+00
					 0.00000000E+00	 0.00000000E+00	 0.00000000E+00
					 0.00000000E+00	 0.00000000E+00	 0.00000000E+00
					 0.00000000E+00	 0.00000000E+00	 0.00000000E+00
					 0.00000000E+00	 0.00000000E+00	 0.00000000E+00
					 0.00000000E+00	 0.00000000E+00	 0.00000000E+00
					 0.00000000E+00	 0.00000000E+00	 0.00000000E+00
					 0.00000000E+00	 0.00000000E+00	 0.00000000E+00
					 0.00000000E+00	 0.00000000E+00	 0.00000000E+00
					 0.00000000E+00	 0.00000000E+00	 0.00000000E+00
					 0.00000000E+00	 0.00000000E+00	 0.00000000E+00
					 0.00000000E+00	 0.00000000E+00	 0.00000000E+00
					 0.00000000E+00	 0.00000000E+00	 0.00000000E+00
					 0.00000000E+00	 0.00000000E+00	 0.00000000E+00
					 0.00000000E+00	 0.00000000E+00	 0.00000000E+00
					 0.00000000E+00	 0.00000000E+00	 0.00000000E+00
					 0.00000000E+00	 0.00000000E+00	 0.00000000E+00
					 0.00000000E+00	 0.00000000E+00	 0.00000000E+00
					 0.00000000E+00	 0.00000000E+00	 0.00000000E+00
					 0.00000000E+00	 0.00000000E+00	 0.00000000E+00
					 0.00000000E+00	 0.00000000E+00	 0.00000000E+00
					 0.00000000E+00	 0.00000000E+00	 0.00000000E+00
					 0.00000000E+00	 0.00000000E+00	 0.00000000E+00
					 0.00000000E+00	 0.00000000E+00	 0.00000000E+00
					 0.00000000E+00	 0.00000000E+00	 0.00000000E+00
					 0.00000000E+00	 0.00000000E+00	 0.00000000E+00
					 0.00000000E+00	 0.00000000E+00	 0.00000000E+00
					 0.00000000E+00	 0.00000000E+00	 0.00000000E+00
					 0.00000000E+00	 0.00000000E+00	 0.00000000E+00
					 0.00000000E+00	 0.00000000E+00	 0.00000000E+00
					 0.00000000E+00	 0.00000000E+00	 0.00000000E+00
					 0.00000000E+00	 0.00000000E+00	 0.00000000E+00
					 0.00000000E+00	 0.00000000E+00	 0.00000000E+00
					 0.00000000E+00	 0.00000000E+00	 0.00000000E+00
					 0.00000000E+00	 0.00000000E+00	 0.00000000E+00
					 0.00000000E+00	 0.00000000E+00	 0.00000000E+00
					 0.00000000E+00	 0.00000000E+00	 0.00000000E+00
					 0.00000000E+00	 0.00000000E+00	 0.00000000E+00
					 0.00000000E+00	 0.00000000E+00	 0.00000000E+00
					 0.00000000E+00	 0.00000000E+00	 0.00000000E+00
					 0.00000000E+00	 0.00000000E+00	 0.00000000E+00
					 0.00000000E+00	 0.00000000E+00	 0.00000000E+00
					 0.00000000E+00	 0.00000000E+00	 0.00000000E+00
					 0.00000000E+00	 0.00000000E+00	 0.00000000E+00
					 0.00000000E+00	 0.00000000E+00	 0.00000000E+00
					 0.00000000E+00	 0.00000000E+00	 0.00000000E+00
					 0.00000000E+00	 0.00000000E+00	 0.00000000E+00
					 0.00000000E+00	 0.00000000E+00	 0.00000000E+00
					 0.00000000E+00	 0.00000000E+00	 0.00000000E+00
					 0.00000000E+00	 0.00000000E+00	 0.00000000E+00
					 0.00000000E+00	 0.00000000E+00	 0.00000000E+00
					 0.00000000E+00	 0.00000000E+00	 0.00000000E+00
					 0.00000000E+00	 0.00000000E+00	 0.00000000E+00
					 0.00000000E+00	 0.00000000E+00	 0.00000000E+00
					 0.00000000E+00	 0.00000000E+00	 0.00000000E+00
					 0.00000000E+00	 0.00000000E+00	 0.00000000E+00
					 0.00000000E+00	 0.00000000E+00	 0.00000000E+00
					 0.00000000E+00	 0.00000000E+00	 0.00000000E+00
					 0.00000000E+00	 0.00000000E+00	 0.00000000E+00
					 0.00000000E+00	 0.00000000E+00	 0.00000000E+00
					 0.00000000E+00	 0.00000000E+00	 0.00000000E+00
					 0.00000000E+00	 0.00000000E+00	 0.00000000E+00
					 0.00000000E+00	 0.00000000E+00	 0.00000000E+00
					 0.00000000E+00	 0.00000000E+00	 0.00000000E+00
					 0.00000000E+00	 0.00000000E+00	 0.00000000E+00
					 0.00000000E+00	 0.00000000E+00	 0.00000000E+00
					 0.00000000E+00	 0.00000000E+00	 0.00000000E+00
					 0.00000000E+00	 0.00000000E+00	 0.00000000E+00
					 0.00000000E+00	 0.00000000E+00	 0.00000000E+00
					 0.00000000E+00	 0.00000000E+00	 0.00000000E+00
					 0.00000000E+00	 0.00000000E+00	 0.00000000E+00
					 0.00000000E+00	 0.00000000E+00	 0.00000000E+00
					 0.00000000E+00	 0.00000000E+00	 0.00000000E+00
					 0.00000000E+00	 0.00000000E+00	 0.00000000E+00
					 0.00000000E+00	 0.00000000E+00	 0.00000000E+00
					 0.00000000E+00	 0.00000000E+00	 0.00000000E+00
					 0.00000000E+00	 0.00000000E+00	 0.00000000E+00
					 0.00000000E+00	 0.00000000E+00	 0.00000000E+00
					 0.00000000E+00	 0.00000000E+00	 0.00000000E+00
					 0.00000000E+00	 0.00000000E+00	 0.00000000E+00
					 0.00000000E+00	 0.00000000E+00	 0.00000000E+00
					 0.00000000E+00	 0.00000000E+00	 0.00000000E+00
					 0.00000000E+00	 0.00000000E+00	 0.00000000E+00
					 0.00000000E+00	 0.00000000E+00	 0.00000000E+00
					 0.00000000E+00	 0.00000000E+00	 0.00000000E+00
					 0.00000000E+00	 0.00000000E+00	 0.00000000E+00
					 0.00000000E+00	 0.00000000E+00	 0.00000000E+00
					 0.00000000E+00	 0.00000000E+00	 0.00000000E+00
					 0.00000000E+00	 0.00000000E+00	 0.00000000E+00
					 0.00000000E+00	 0.00000000E+00	 0.00000000E+00
					 0.00000000E+00	 0.00000000E+00	 0.00000000E+00
					 0.00000000E+00	 0.00000000E+00	 0.00000000E+00
					 0.00000000E+00	 0.00000000E+00	 0.00000000E+00
					 0.00000000E+00	 0.00000000E+00	 0.00000000E+00
					 0.00000000E+00	 0.00000000E+00	 0.00000000E+00
					 0.00000000E+00	 0.00000000E+00	 0.00000000E+00
					 0.00000000E+00	 0.00000000E+00	 0.00000000E+00
					 0.00000000E+00	 0.00000000E+00	 0.00000000E+00
					 0.00000000E+00	 0.00000000E+00	 0.00000000E+00
					 0.00000000E+00	 0.00000000E+00	 0.00000000E+00
					 0.00000000E+00	 0.00000000E+00	 0.00000000E+00
					 0.00000000E+00	 0.00000000E+00	 0.00000000E+00
					 0.00000000E+00	 0.00000000E+00	 0.00000000E+00
					 0.00000000E+00	 0.00000000E+00	 0.00000000E+00
					 0.00000000E+00	 0.00000000E+00	 0.00000000E+00
					 0.00000000E+00	 0.00000000E+00	 0.00000000E+00
					 0.00000000E+00	 0.00000000E+00	 0.00000000E+00
					 0.00000000E+00	 0.00000000E+00	 0.00000000E+00
					 0.00000000E+00	 0.00000000E+00	 0.00000000E+00
					 0.00000000E+00	 0.00000000E+00	 0.00000000E+00
					 0.00000000E+00	 0.00000000E+00	 0.00000000E+00
					 0.00000000E+00	 0.00000000E+00	 0.00000000E+00
					 0.00000000E+00	 0.00000000E+00	 0.00000000E+00
					 0.00000000E+00	 0.00000000E+00	 0.00000000E+00
					 0.00000000E+00	 0.00000000E+00	 0.00000000E+00
					 0.00000000E+00	 0.00000000E+00	 0.00000000E+00
					 0.00000000E+00	 0.00000000E+00	 0.00000000E+00
					 0.00000000E+00	 0.00000000E+00	 0.00000000E+00
					 0.00000000E+00	 0.00000000E+00	 0.00000000E+00
					 0.00000000E+00	 0.00000000E+00	 0.00000000E+00
					 0.00000000E+00	 0.00000000E+00	 0.00000000E+00
					 0.00000000E+00	 0.00000000E+00	 0.00000000E+00
					 0.00000000E+00	 0.00000000E+00	 0.00000000E+00
					 0.00000000E+00	 0.00000000E+00	 0.00000000E+00
					 0.00000000E+00	 0.00000000E+00	 0.00000000E+00
					 0.00000000E+00	 0.00000000E+00	 0.00000000E+00
					 0.00000000E+00	 0.00000000E+00	 0.00000000E+00
					 0.00000000E+00	 0.00000000E+00	 0.00000000E+00
					 0.00000000E+00	 0.00000000E+00	 0.00000000E+00
					 0.00000000E+00	 0.00000000E+00	 0.00000000E+00
					 0.00000000E+00	 0.00000000E+00	 0.00000000E+00
					 0.00000000E+00	 0.00000000E+00	 0.00000000E+00
					 0.00000000E+00	 0.00000000E+00	 0.00000000E+00
					 0.00000000E+00	 0.00000000E+00	 0.00000000E+00
					 0.00000000E+00	 0.00000000E+00	 0.00000000E+00
					 0.00000000E+00	 0.00000000E+00	 0.00000000E+00
					 0.00000000E+00	 0.00000000E+00	 0.00000000E+00
					 0.00000000E+00	 0.00000000E+00	 0.00000000E+00
					 0.00000000E+00	 0.00000000E+00	 0.00000000E+00
					 0.00000000E+00	 0.00000000E+00	 0.00000000E+00
					 0.00000000E+00	 0.00000000E+00	 0.00000000E+00
					 0.00000000E+00	 0.00000000E+00	 0.00000000E+00
					 0.00000000E+00	 0.00000000E+00	 0.00000000E+00
					 0.00000000E+00	 0.00000000E+00	 0.00000000E+00
					 0.00000000E+00	 0.00000000E+00	 0.00000000E+00
					 0.00000000E+00	 0.00000000E+00	 0.00000000E+00
					 0.00000000E+00	 0.00000000E+00	 0.00000000E+00
					 0.00000000E+00	 0.00000000E+00	 0.00000000E+00
					 0.00000000E+00	 0.00000000E+00	 0.00000000E+00
					 0.00000000E+00	 0.00000000E+00	 0.00000000E+00
					 0.00000000E+00	 0.00000000E+00	 0.00000000E+00
					 0.00000000E+00	 0.00000000E+00	 0.00000000E+00
					 0.00000000E+00	 0.00000000E+00	 0.00000000E+00
					 0.00000000E+00	 0.00000000E+00	 0.00000000E+00
					 0.00000000E+00	 0.00000000E+00	 0.00000000E+00
					 0.00000000E+00	 0.00000000E+00	 0.00000000E+00
					 0.00000000E+00	 0.00000000E+00	 0.00000000E+00
					 0.00000000E+00	 0.00000000E+00	 0.00000000E+00
					 0.00000000E+00	 0.00000000E+00	 0.00000000E+00
					 0.00000000E+00	 0.00000000E+00	 0.00000000E+00
					 0.00000000E+00	 0.00000000E+00	 0.00000000E+00
					 0.00000000E+00	 0.00000000E+00	 0.00000000E+00
					 0.00000000E+00	 0.00000000E+00	 0.00000000E+00
					 0.00000000E+00	 0.00000000E+00	 0.00000000E+00
					 0.00000000E+00	 0.00000000E+00	 0.00000000E+00
					 0.00000000E+00	 0.00000000E+00	 0.00000000E+00
					 0.00000000E+00	 0.00000000E+00	 0.00000000E+00
					 0.00000000E+00	 0.00000000E+00	 0.00000000E+00
					 0.00000000E+00	 0.00000000E+00	 0.00000000E+00
					 0.00000000E+00	 0.00000000E+00	 0.00000000E+00
					 0.00000000E+00	 0.00000000E+00	 0.00000000E+00
					 0.00000000E+00	 0.00000000E+00	 0.00000000E+00
					 0.00000000E+00	 0.00000000E+00	 0.00000000E+00
					 0.00000000E+00	 0.00000000E+00	 0.00000000E+00
					 0.00000000E+00	 0.00000000E+00	 0.00000000E+00
					 0.00000000E+00	 0.00000000E+00	 0.00000000E+00
					 0.00000000E+00	 0.00000000E+00	 0.00000000E+00
					 0.00000000E+00	 0.00000000E+00	 0.00000000E+00
					 0.00000000E+00	 0.00000000E+00	 0.00000000E+00
					 0.00000000E+00	 0.00000000E+00	 0.00000000E+00
					 0.00000000E+00	 0.00000000E+00	 0.00000000E+00
					 0.00000000E+00	 0.00000000E+00	 0.00000000E+00
					 0.00000000E+00	 0.00000000E+00	 0.00000000E+00
					 0.00000000E+00	 0.00000000E+00	 0.00000000E+00
					 0.00000000E+00	 0.00000000E+00	 0.00000000E+00
					 0.00000000E+00	 0.00000000E+00	 0.00000000E+00
					 0.00000000E+00	 0.00000000E+00	 0.00000000E+00
					 0.00000000E+00	 0.00000000E+00	 0.00000000E+00
					 0.00000000E+00	 0.00000000E+00	 0.00000000E+00
					 0.00000000E+00	 0.00000000E+00	 0.00000000E+00
					 0.00000000E+00	 0.00000000E+00	 0.00000000E+00
					 0.00000000E+00	 0.00000000E+00	 0.00000000E+00
					 0.00000000E+00	 0.00000000E+00	 0.00000000E+00
					 0.00000000E+00	 0.00000000E+00	 0.00000000E+00
					 0.00000000E+00	 0.00000000E+00	 0.00000000E+00
					 0.00000000E+00	 0.00000000E+00	 0.00000000E+00
					 0.00000000E+00	 0.00000000E+00	 0.00000000E+00
					 0.00000000E+00	 0.00000000E+00	 0.00000000E+00
					 0.00000000E+00	 0.00000000E+00	 0.00000000E+00
					 0.00000000E+00	 0.00000000E+00	 0.00000000E+00
					 0.00000000E+00	 0.00000000E+00	 0.00000000E+00
					 0.00000000E+00	 0.00000000E+00	 0.00000000E+00
					 0.00000000E+00	 0.00000000E+00	 0.00000000E+00
					 0.00000000E+00	 0.00000000E+00	 0.00000000E+00
					 0.00000000E+00	 0.00000000E+00	 0.00000000E+00
					 0.00000000E+00	 0.00000000E+00	 0.00000000E+00
					 0.00000000E+00	 0.00000000E+00	 0.00000000E+00
					 0.00000000E+00	 0.00000000E+00	 0.00000000E+00
					 0.00000000E+00	 0.00000000E+00	 0.00000000E+00
					 0.00000000E+00	 0.00000000E+00	 0.00000000E+00
					 0.00000000E+00	 0.00000000E+00	 0.00000000E+00
					 0.00000000E+00	 0.00000000E+00	 0.00000000E+00
					 0.00000000E+00	 0.00000000E+00	 0.00000000E+00
					 0.00000000E+00	 0.00000000E+00	 0.00000000E+00
					 0.00000000E+00	 0.00000000E+00	 0.00000000E+00
					 0.00000000E+00	 0.00000000E+00	 0.00000000E+00
					 0.00000000E+00	 0.00000000E+00	 0.00000000E+00
					 0.00000000E+00	 0.00000000E+00	 0.00000000E+00
					 0.00000000E+00	 0.00000000E+00	 0.00000000E+00
					 0.00000000E+00	 0.00000000E+00	 0.00000000E+00
					 0.00000000E+00	 0.00000000E+00	 0.00000000E+00
					 0.00000000E+00	 0.00000000E+00	 0.00000000E+00
					 0.00000000E+00	 0.00000000E+00	 0.00000000E+00
					 0.00000000E+00	 0.00000000E+00	 0.00000000E+00
					 0.00000000E+00	 0.00000000E+00	 0.00000000E+00
					 0.00000000E+00	 0.00000000E+00	 0.00000000E+00
					 0.00000000E+00	 0.00000000E+00	 0.00000000E+00
					 0.00000000E+00	 0.00000000E+00	 0.00000000E+00
					 0.00000000E+00	 0.00000000E+00	 0.00000000E+00
					 0.00000000E+00	 0.00000000E+00	 0.00000000E+00
					 0.00000000E+00	 0.00000000E+00	 0.00000000E+00
					 0.00000000E+00	 0.00000000E+00	 0.00000000E+00
					 0.00000000E+00	 0.00000000E+00	 0.00000000E+00
					 0.00000000E+00	 0.00000000E+00	 0.00000000E+00
					 0.00000000E+00	 0.00000000E+00	 0.00000000E+00
					 0.00000000E+00	 0.00000000E+00	 0.00000000E+00
					 0.00000000E+00	 0.00000000E+00	 0.00000000E+00
					 0.00000000E+00	 0.00000000E+00	 0.00000000E+00
					 0.00000000E+00	 0.00000000E+00	 0.00000000E+00
					 0.00000000E+00	 0.00000000E+00	 0.00000000E+00
					 0.00000000E+00	 0.00000000E+00	 0.00000000E+00
					 0.00000000E+00	 0.00000000E+00	 0.00000000E+00
					 0.00000000E+00	 0.00000000E+00	 0.00000000E+00
					 0.00000000E+00	 0.00000000E+00	 0.00000000E+00
					 0.00000000E+00	 0.00000000E+00	 0.00000000E+00
					 0.00000000E+00	 0.00000000E+00	 0.00000000E+00
					 0.00000000E+00	 0.00000000E+00	 0.00000000E+00
					 0.00000000E+00	 0.00000000E+00	 0.00000000E+00
					 0.00000000E+00	 0.00000000E+00	 0.00000000E+00
					 0.00000000E+00	 0.00000000E+00	 0.00000000E+00
					 0.00000000E+00	 0.00000000E+00	 0.00000000E+00
					 0.00000000E+00	 0.00000000E+00	 0.00000000E+00
					 0.00000000E+00	 0.00000000E+00	 0.00000000E+00
					 0.00000000E+00	 0.00000000E+00	 0.00000000E+00
					 0.00000000E+00	 0.00000000E+00	 0.00000000E+00
					 0.00000000E+00	 0.00000000E+00	 0.00000000E+00
					 0.00000000E+00	 0.00000000E+00	 0.00000000E+00
					 0.00000000E+00	 0.00000000E+00	 0.00000000E+00
					 0.00000000E+00	 0.00000000E+00	 0.00000000E+00
					 0.00000000E+00	 0.00000000E+00	 0.00000000E+00
					 0.00000000E+00	 0.00000000E+00	 0.00000000E+00
					 6.20801000E-06	-1.40738000E-02	-1.93088000E-04
					-1.80486000E-03	-1.49992000E-02	 1.29351000E-02
					 0.00000000E+00	 0.00000000E+00	 0.00000000E+00
					 0.00000000E+00	 0.00000000E+00	 0.00000000E+00
					-8.26456000E-06	-1.50066000E-02	-2.30689000E-04
					-1.15535000E-04	-1.60017000E-02	 1.30511000E-02
					 0.00000000E+00	 0.00000000E+00	 0.00000000E+00
					 2.51385000E-05	-3.12631000E-03	-5.43430000E-05
					-8.99390000E-04	-1.42349000E-02	 6.21563000E-03
					-2.01695000E-03	-4.29386000E-03	 6.64333000E-03
					 0.00000000E+00	 0.00000000E+00	 0.00000000E+00
					 0.00000000E+00	 0.00000000E+00	 0.00000000E+00
					 1.50387000E-07	-1.48267000E-02	-2.19245000E-04
					-9.46138000E-04	-1.57902000E-02	 1.29811000E-02
					 0.00000000E+00	 0.00000000E+00	 0.00000000E+00
					-8.97530000E-07	-4.05194000E-03	-7.27269000E-05
					-6.32634000E-05	-1.51920000E-02	 6.24000000E-03
					-4.47222000E-05	-5.23096000E-03	 6.44676000E-03
					 0.00000000E+00	 0.00000000E+00	 0.00000000E+00
					 1.78795000E-03	-1.46165000E-02	-1.33793000E-02
					 0.00000000E+00	 0.00000000E+00	 0.00000000E+00
					 1.00176000E-04	-1.56071000E-02	-1.35786000E-02
					 0.00000000E+00	 0.00000000E+00	 0.00000000E+00
					 2.04876000E-03	-4.16790000E-03	-6.77346000E-03
					 9.00962000E-04	-1.40450000E-02	-6.61861000E-03
					 0.00000000E+00	 0.00000000E+00	 0.00000000E+00
					 9.36272000E-04	-1.53942000E-02	-1.34824000E-02
					 0.00000000E+00	 0.00000000E+00	 0.00000000E+00
					 4.43732000E-05	-5.11171000E-03	-6.60685000E-03
					 4.55733000E-05	-1.49942000E-02	-6.72285000E-03
					 0.00000000E+00	 0.00000000E+00	 0.00000000E+00
					 0.00000000E+00	 0.00000000E+00	 0.00000000E+00
					-2.41614000E-05	-1.42881000E-02	-2.16288000E-04
					 1.57132000E-03	-1.52154000E-02	 1.29135000E-02
					 0.00000000E+00	 0.00000000E+00	 0.00000000E+00
					 0.00000000E+00	 0.00000000E+00	 0.00000000E+00
					-1.66339000E-05	-1.49343000E-02	-2.30978000E-04
					 7.14279000E-04	-1.58921000E-02	 1.29939000E-02
					 0.00000000E+00	 0.00000000E+00	 0.00000000E+00
					-2.86090000E-05	-3.21461000E-03	-6.42372000E-05
					 7.74437000E-04	-1.44505000E-02	 6.16872000E-03
					 1.92828000E-03	-4.37715000E-03	 6.63364000E-03
					 0.00000000E+00	 0.00000000E+00	 0.00000000E+00
					-1.59193000E-03	-1.48319000E-02	-1.34028000E-02
					 0.00000000E+00	 0.00000000E+00	 0.00000000E+00
					-7.37869000E-04	-1.55019000E-02	-1.35176000E-02
					 0.00000000E+00	 0.00000000E+00	 0.00000000E+00
					-1.96708000E-03	-4.25481000E-03	-6.78385000E-03
					-8.12259000E-04	-1.42610000E-02	-6.61820000E-03
					-2.68048000E-05	-5.28245000E-02	-9.97962000E-04
					-1.47845000E-03	-5.39120000E-02	 2.19221000E-02
					-3.23201000E-05	-5.36912000E-02	-1.04646000E-03
					-3.36671000E-04	-5.47865000E-02	 2.19386000E-02
					-5.36325000E-06	-3.09469000E-02	-4.98493000E-04
					-7.53460000E-04	-5.32388000E-02	 1.03175000E-02
					-1.66588000E-03	-3.20586000E-02	 1.80302000E-02
					-2.98645000E-05	-5.33836000E-02	-1.03144000E-03
					-9.08026000E-04	-5.44738000E-02	 2.19450000E-02
					-2.18061000E-05	-3.18709000E-02	-5.45402000E-04
					-1.78166000E-04	-5.41120000E-02	 1.03225000E-02
					-2.17012000E-04	-3.29818000E-02	 1.80568000E-02
					 1.41772000E-03	-5.28389000E-02	-2.39835000E-02
					 2.66094000E-04	-5.37130000E-02	-2.40970000E-02
					 1.63106000E-03	-3.13517000E-02	-1.91060000E-02
					 6.96519000E-04	-5.27163000E-02	-1.23283000E-02
					 8.44182000E-04	-5.34016000E-02	-2.40713000E-02
					 1.73001000E-04	-3.22653000E-02	-1.92271000E-02
					 1.16704000E-04	-5.35873000E-02	-1.24280000E-02
					-4.17427000E-05	-5.34256000E-02	-1.03548000E-03
					 8.31994000E-04	-5.44888000E-02	 2.18844000E-02
					-3.74578000E-05	-5.36805000E-02	-1.04677000E-03
					 2.49294000E-04	-5.47973000E-02	 2.19601000E-02
					-3.89119000E-05	-3.13375000E-02	-5.32482000E-04
					 3.86874000E-04	-5.38226000E-02	 1.02505000E-02
					 1.24243000E-03	-3.24352000E-02	 1.79970000E-02
					-8.84223000E-04	-5.34369000E-02	-2.40197000E-02
					-3.11332000E-04	-5.37005000E-02	-2.41207000E-02
					-1.28717000E-03	-3.17387000E-02	-1.91380000E-02
					-4.60601000E-04	-5.33135000E-02	-1.23330000E-02
					-1.52039000E-05	-1.06810000E-01	-2.49390000E-03
					-1.16909000E-03	-1.07845000E-01	 2.59821000E-02
					-1.40646000E-05	-1.07664000E-01	-2.50539000E-03
					-6.13640000E-04	-1.08814000E-01	 2.60253000E-02
					-2.84386000E-05	-7.84566000E-02	-1.67131000E-03
					-5.87345000E-04	-1.07249000E-01	 1.16176000E-02
					-1.30709000E-03	-7.95610000E-02	 2.45052000E-02
					-1.39331000E-05	-1.07311000E-01	-2.50170000E-03
					-8.94156000E-04	-1.08416000E-01	 2.60004000E-02
					-3.27555000E-05	-7.93078000E-02	-1.70963000E-03
					-3.37264000E-04	-1.08166000E-01	 1.16210000E-02
					-4.68037000E-04	-8.04257000E-02	 2.45401000E-02
					 1.09542000E-03	-1.06267000E-01	-3.09894000E-02
					 5.79335000E-04	-1.07123000E-01	-3.10941000E-02
					 1.23378000E-03	-7.81917000E-02	-2.79010000E-02
					 5.43241000E-04	-1.06478000E-01	-1.66043000E-02
					 8.35364000E-04	-1.06759000E-01	-3.10519000E-02
					 4.01078000E-04	-7.90260000E-02	-2.80100000E-02
					 2.84854000E-04	-1.07336000E-01	-1.66616000E-02
					-1.42472000E-05	-1.07994000E-01	-2.48325000E-03
					-1.56212000E-04	-1.09266000E-01	 2.59769000E-02
					-1.43927000E-05	-1.07912000E-01	-2.50014000E-03
					-3.87832000E-04	-1.08994000E-01	 2.60690000E-02
					-2.82151000E-05	-7.93218000E-02	-1.69950000E-03
					-5.16988000E-05	-1.08559000E-01	 1.15380000E-02
					 3.45343000E-04	-8.04672000E-02	 2.44818000E-02
					 7.66684000E-05	-1.07476000E-01	-3.10333000E-02
					 3.27286000E-04	-1.07359000E-01	-3.11333000E-02
					-4.39962000E-04	-7.90386000E-02	-2.79319000E-02
					 2.25996000E-05	-1.07689000E-01	-1.65589000E-02
					 1.49640000E-04	-1.67402000E-01	-4.37609000E-03
					-8.06510000E-04	-1.68209000E-01	 2.56915000E-02