# vtk DataFile Version 5.1
vtk output
ASCII
DATASET UNSTRUCTURED_GRID
POINTS 320 float
-1 0 0 -0.980785 0.19509 0 -0.980785 0.19509 0.1 
-1 0 0.1 -0.875 0 0 -0.858187 0.170704 -2.22045e-16 
-0.858187 0.170704 0.1 -0.875 0 0.1 -0.75 0 0 
-0.735589 0.146318 5.55112e-17 -0.735589 0.146318 0.1 -0.75 0 0.1 
-0.625 0 0 -0.612991 0.121931 0 -0.612991 0.121931 0.1 
-0.625 0 0.1 -0.5 0 0 -0.490393 0.0975452 0 
-0.490393 0.0975452 0.1 -0.5 0 0.1 -0.92388 0.382683 0 
-0.92388 0.382683 0.1 -0.808395 0.334848 0 -0.808395 0.334848 0.1 
-0.69291 0.287013 1.11022e-16 -0.69291 0.287013 0.1 -0.577425 0.239177 1.11022e-16 
-0.577425 0.239177 0.1 -0.46194 0.191342 0 -0.46194 0.191342 0.1 
-0.83147 0.55557 0 -0.83147 0.55557 0.1 -0.727536 0.486124 0 
-0.727536 0.486124 0.1 -0.623602 0.416678 0 -0.623602 0.416678 0.1 
-0.519669 0.347231 0 -0.519669 0.347231 0.1 -0.415735 0.277785 0 
-0.415735 0.277785 0.1 -0.707107 0.707107 0 -0.707107 0.707107 0.1 
-0.618718 0.618718 -1.11022e-16 -0.618718 0.618718 0.1 -0.53033 0.53033 5.55112e-17 
-0.53033 0.53033 0.1 -0.441942 0.441942 -2.22045e-16 -0.441942 0.441942 0.1 
-0.353553 0.353553 0 -0.353553 0.353553 0.1 -0.55557 0.83147 0 
-0.55557 0.83147 0.1 -0.486124 0.727536 -1.11022e-16 -0.486124 0.727536 0.1 
-0.416678 0.623602 0 -0.416678 0.623602 0.1 -0.347231 0.519669 0 
-0.347231 0.519669 0.1 -0.277785 0.415735 0 -0.277785 0.415735 0.1 
-0.382683 0.92388 0 -0.382683 0.92388 0.1 -0.334848 0.808395 5.55112e-17 
-0.334848 0.808395 0.1 -0.287013 0.69291 5.55112e-17 -0.287013 0.69291 0.1 
-0.239177 0.577425 1.11022e-16 -0.239177 0.577425 0.1 -0.191342 0.46194 0 
-0.191342 0.46194 0.1 -0.19509 0.980785 0 -0.19509 0.980785 0.1 
-0.170704 0.858187 5.55112e-17 -0.170704 0.858187 0.1 -0.146318 0.735589 0 
-0.146318 0.735589 0.1 -0.121931 0.612991 0 -0.121931 0.612991 0.1 
-0.0975452 0.490393 0 -0.0975452 0.490393 0.1 0 1 0 
0 1 0.1 0 0.875 0 0 0.875 0.1 
0 0.75 0 0 0.75 0.1 0 0.625 0 
0 0.625 0.1 0 0.5 0 0 0.5 0.1 
0 -1 0 -0.19509 -0.980785 0 -0.19509 -0.980785 0.1 
0 -1 0.1 0 -0.875 0 -0.170704 -0.858187 -2.22045e-16 
-0.170704 -0.858187 0.1 0 -0.875 0.1 0 -0.75 0 
-0.146318 -0.735589 5.55112e-17 -0.146318 -0.735589 0.1 0 -0.75 0.1 
0 -0.625 0 -0.121931 -0.612991 0 -0.121931 -0.612991 0.1 
0 -0.625 0.1 0 -0.5 0 -0.0975452 -0.490393 0 
-0.0975452 -0.490393 0.1 0 -0.5 0.1 -0.382683 -0.92388 0 
-0.382683 -0.92388 0.1 -0.334848 -0.808395 0 -0.334848 -0.808395 0.1 
-0.287013 -0.69291 1.11022e-16 -0.287013 -0.69291 0.1 -0.239177 -0.577425 1.11022e-16 
-0.239177 -0.577425 0.1 -0.191342 -0.46194 0 -0.191342 -0.46194 0.1 
-0.55557 -0.83147 0 -0.55557 -0.83147 0.1 -0.486124 -0.727536 0 
-0.486124 -0.727536 0.1 -0.416678 -0.623602 0 -0.416678 -0.623602 0.1 
-0.347231 -0.519669 0 -0.347231 -0.519669 0.1 -0.277785 -0.415735 0 
-0.277785 -0.415735 0.1 -0.707107 -0.707107 0 -0.707107 -0.707107 0.1 
-0.618718 -0.618718 -1.11022e-16 -0.618718 -0.618718 0.1 -0.53033 -0.53033 5.55112e-17 
-0.53033 -0.53033 0.1 -0.441942 -0.441942 -2.22045e-16 -0.441942 -0.441942 0.1 
-0.353553 -0.353553 0 -0.353553 -0.353553 0.1 -0.83147 -0.55557 0 
-0.83147 -0.55557 0.1 -0.727536 -0.486124 -1.11022e-16 -0.727536 -0.486124 0.1 
-0.623602 -0.416678 0 -0.623602 -0.416678 0.1 -0.519669 -0.347231 0 
-0.519669 -0.347231 0.1 -0.415735 -0.277785 0 -0.415735 -0.277785 0.1 
-0.92388 -0.382683 0 -0.92388 -0.382683 0.1 -0.808395 -0.334848 5.55112e-17 
-0.808395 -0.334848 0.1 -0.69291 -0.287013 5.55112e-17 -0.69291 -0.287013 0.1 
-0.577425 -0.239177 1.11022e-16 -0.577425 -0.239177 0.1 -0.46194 -0.191342 0 
-0.46194 -0.191342 0.1 -0.980785 -0.19509 0 -0.980785 -0.19509 0.1 
-0.858187 -0.170704 5.55112e-17 -0.858187 -0.170704 0.1 -0.735589 -0.146318 0 
-0.735589 -0.146318 0.1 -0.612991 -0.121931 0 -0.612991 -0.121931 0.1 
-0.490393 -0.0975452 0 -0.490393 -0.0975452 0.1 1 0 0 
0.980785 -0.19509 0 0.980785 -0.19509 0.1 1 0 0.1 
0.875 0 0 0.858187 -0.170704 -2.22045e-16 0.858187 -0.170704 0.1 
0.875 0 0.1 0.75 0 0 0.735589 -0.146318 5.55112e-17 
0.735589 -0.146318 0.1 0.75 0 0.1 0.625 0 0 
0.612991 -0.121931 0 0.612991 -0.121931 0.1 0.625 0 0.1 
0.5 0 0 0.490393 -0.0975452 0 0.490393 -0.0975452 0.1 
0.5 0 0.1 0.92388 -0.382683 0 0.92388 -0.382683 0.1 
0.808395 -0.334848 0 0.808395 -0.334848 0.1 0.69291 -0.287013 1.11022e-16 
0.69291 -0.287013 0.1 0.577425 -0.239177 1.11022e-16 0.577425 -0.239177 0.1 
0.46194 -0.191342 0 0.46194 -0.191342 0.1 0.83147 -0.55557 0 
0.83147 -0.55557 0.1 0.727536 -0.486124 0 0.727536 -0.486124 0.1 
0.623602 -0.416678 0 0.623602 -0.416678 0.1 0.519669 -0.347231 0 
0.519669 -0.347231 0.1 0.415735 -0.277785 0 0.415735 -0.277785 0.1 
0.707107 -0.707107 0 0.707107 -0.707107 0.1 0.618718 -0.618718 -1.11022e-16 
0.618718 -0.618718 0.1 0.53033 -0.53033 5.55112e-17 0.53033 -0.53033 0.1 
0.441942 -0.441942 -2.22045e-16 0.441942 -0.441942 0.1 0.353553 -0.353553 0 
0.353553 -0.353553 0.1 0.55557 -0.83147 0 0.55557 -0.83147 0.1 
0.486124 -0.727536 -1.11022e-16 0.486124 -0.727536 0.1 0.416678 -0.623602 0 
0.416678 -0.623602 0.1 0.347231 -0.519669 0 0.347231 -0.519669 0.1 
0.277785 -0.415735 0 0.277785 -0.415735 0.1 0.382683 -0.92388 0 
0.382683 -0.92388 0.1 0.334848 -0.808395 5.55112e-17 0.334848 -0.808395 0.1 
0.287013 -0.69291 5.55112e-17 0.287013 -0.69291 0.1 0.239177 -0.577425 1.11022e-16 
0.239177 -0.577425 0.1 0.191342 -0.46194 0 0.191342 -0.46194 0.1 
0.19509 -0.980785 0 0.19509 -0.980785 0.1 0.170704 -0.858187 5.55112e-17 
0.170704 -0.858187 0.1 0.146318 -0.735589 0 0.146318 -0.735589 0.1 
0.121931 -0.612991 0 0.121931 -0.612991 0.1 0.0975452 -0.490393 0 
0.0975452 -0.490393 0.1 0.19509 0.980785 0 0.19509 0.980785 0.1 
0.170704 0.858187 -2.22045e-16 0.170704 0.858187 0.1 0.146318 0.735589 5.55112e-17 
0.146318 0.735589 0.1 0.121931 0.612991 0 0.121931 0.612991 0.1 
0.0975452 0.490393 0 0.0975452 0.490393 0.1 0.382683 0.92388 0 
0.382683 0.92388 0.1 0.334848 0.808395 0 0.334848 0.808395 0.1 
0.287013 0.69291 1.11022e-16 0.287013 0.69291 0.1 0.239177 0.577425 1.11022e-16 
0.239177 0.577425 0.1 0.191342 0.46194 0 0.191342 0.46194 0.1 
0.55557 0.83147 0 0.55557 0.83147 0.1 0.486124 0.727536 0 
0.486124 0.727536 0.1 0.416678 0.623602 0 0.416678 0.623602 0.1 
0.347231 0.519669 0 0.347231 0.519669 0.1 0.277785 0.415735 0 
0.277785 0.415735 0.1 0.707107 0.707107 0 0.707107 0.707107 0.1 
0.618718 0.618718 -1.11022e-16 0.618718 0.618718 0.1 0.53033 0.53033 5.55112e-17 
0.53033 0.53033 0.1 0.441942 0.441942 -2.22045e-16 0.441942 0.441942 0.1 
0.353553 0.353553 0 0.353553 0.353553 0.1 0.83147 0.55557 0 
0.83147 0.55557 0.1 0.727536 0.486124 -1.11022e-16 0.727536 0.486124 0.1 
0.623602 0.416678 0 0.623602 0.416678 0.1 0.519669 0.347231 0 
0.519669 0.347231 0.1 0.415735 0.277785 0 0.415735 0.277785 0.1 
0.92388 0.382683 0 0.92388 0.382683 0.1 0.808395 0.334848 5.55112e-17 
0.808395 0.334848 0.1 0.69291 0.287013 5.55112e-17 0.69291 0.287013 0.1 
0.577425 0.239177 1.11022e-16 0.577425 0.239177 0.1 0.46194 0.191342 0 
0.46194 0.191342 0.1 0.980785 0.19509 0 0.980785 0.19509 0.1 
0.858187 0.170704 5.55112e-17 0.858187 0.170704 0.1 0.735589 0.146318 0 
0.735589 0.146318 0.1 0.612991 0.121931 0 0.612991 0.121931 0.1 
0.490393 0.0975452 0 0.490393 0.0975452 0.1 
CELLS 129 1024
OFFSETS vtktypeint64
0 8 16 24 32 40 48 56 64 
72 80 88 96 104 112 120 128 136 
144 152 160 168 176 184 192 200 208 
216 224 232 240 248 256 264 272 280 
288 296 304 312 320 328 336 344 352 
360 368 376 384 392 400 408 416 424 
432 440 448 456 464 472 480 488 496 
504 512 520 528 536 544 552 560 568 
576 584 592 600 608 616 624 632 640 
648 656 664 672 680 688 696 704 712 
720 728 736 744 752 760 768 776 784 
792 800 808 816 824 832 840 848 856 
864 872 880 888 896 904 912 920 928 
936 944 952 960 968 976 984 992 1000 
1008 1016 1024 
CONNECTIVITY vtktypeint64
0 1 2 3 4 5 6 7 4 
5 6 7 8 9 10 11 8 9 
10 11 12 13 14 15 12 13 14 
15 16 17 18 19 1 20 21 2 
5 22 23 6 5 22 23 6 9 
24 25 10 9 24 25 10 13 26 
27 14 13 26 27 14 17 28 29 
18 20 30 31 21 22 32 33 23 
22 32 33 23 24 34 35 25 24 
34 35 25 26 36 37 27 26 36 
37 27 28 38 39 29 30 40 41 
31 32 42 43 33 32 42 43 33 
34 44 45 35 34 44 45 35 36 
46 47 37 36 46 47 37 38 48 
49 39 40 50 51 41 42 52 53 
43 42 52 53 43 44 54 55 45 
44 54 55 45 46 56 57 47 46 
56 57 47 48 58 59 49 50 60 
61 51 52 62 63 53 52 62 63 
53 54 64 65 55 54 64 65 55 
56 66 67 57 56 66 67 57 58 
68 69 59 60 70 71 61 62 72 
73 63 62 72 73 63 64 74 75 
65 64 74 75 65 66 76 77 67 
66 76 77 67 68 78 79 69 70 
80 81 71 72 82 83 73 72 82 
83 73 74 84 85 75 74 84 85 
75 76 86 87 77 76 86 87 77 
78 88 89 79 90 91 92 93 94 
95 96 97 94 95 96 97 98 99 
100 101 98 99 100 101 102 103 104 
105 102 103 104 105 106 107 108 109 
91 110 111 92 95 112 113 96 95 
112 113 96 99 114 115 100 99 114 
115 100 103 116 117 104 103 116 117 
104 107 118 119 108 110 120 121 111 
112 122 123 113 112 122 123 113 114 
124 125 115 114 124 125 115 116 126 
127 117 116 126 127 117 118 128 129 
119 120 130 131 121 122 132 133 123 
122 132 133 123 124 134 135 125 124 
134 135 125 126 136 137 127 126 136 
137 127 128 138 139 129 130 140 141 
131 132 142 143 133 132 142 143 133 
134 144 145 135 134 144 145 135 136 
146 147 137 136 146 147 137 138 148 
149 139 140 150 151 141 142 152 153 
143 142 152 153 143 144 154 155 145 
144 154 155 145 146 156 157 147 146 
156 157 147 148 158 159 149 150 160 
161 151 152 162 163 153 152 162 163 
153 154 164 165 155 154 164 165 155 
156 166 167 157 156 166 167 157 158 
168 169 159 160 0 3 161 162 4 
7 163 162 4 7 163 164 8 11 
165 164 8 11 165 166 12 15 167 
166 12 15 167 168 16 19 169 170 
171 172 173 174 175 176 177 174 175 
176 177 178 179 180 181 178 179 180 
181 182 183 184 185 182 183 184 185 
186 187 188 189 171 190 191 172 175 
192 193 176 175 192 193 176 179 194 
195 180 179 194 195 180 183 196 197 
184 183 196 197 184 187 198 199 188 
190 200 201 191 192 202 203 193 192 
202 203 193 194 204 205 195 194 204 
205 195 196 206 207 197 196 206 207 
197 198 208 209 199 200 210 211 201 
202 212 213 203 202 212 213 203 204 
214 215 205 204 214 215 205 206 216 
217 207 206 216 217 207 208 218 219 
209 210 220 221 211 212 222 223 213 
212 222 223 213 214 224 225 215 214 
224 225 215 216 226 227 217 216 226 
227 217 218 228 229 219 220 230 231 
221 222 232 233 223 222 232 233 223 
224 234 235 225 224 234 235 225 226 
236 237 227 226 236 237 227 228 238 
239 229 230 240 241 231 232 242 243 
233 232 242 243 233 234 244 245 235 
234 244 245 235 236 246 247 237 236 
246 247 237 238 248 249 239 240 90 
93 241 242 94 97 243 242 94 97 
243 244 98 101 245 244 98 101 245 
246 102 105 247 246 102 105 247 248 
106 109 249 80 250 251 81 82 252 
253 83 82 252 253 83 84 254 255 
85 84 254 255 85 86 256 257 87 
86 256 257 87 88 258 259 89 250 
260 261 251 252 262 263 253 252 262 
263 253 254 264 265 255 254 264 265 
255 256 266 267 257 256 266 267 257 
258 268 269 259 260 270 271 261 262 
272 273 263 262 272 273 263 264 274 
275 265 264 274 275 265 266 276 277 
267 266 276 277 267 268 278 279 269 
270 280 281 271 272 282 283 273 272 
282 283 273 274 284 285 275 274 284 
285 275 276 286 287 277 276 286 287 
277 278 288 289 279 280 290 291 281 
282 292 293 283 282 292 293 283 284 
294 295 285 284 294 295 285 286 296 
297 287 286 296 297 287 288 298 299 
289 290 300 301 291 292 302 303 293 
292 302 303 293 294 304 305 295 294 
304 305 295 296 306 307 297 296 306 
307 297 298 308 309 299 300 310 311 
301 302 312 313 303 302 312 313 303 
304 314 315 305 304 314 315 305 306 
316 317 307 306 316 317 307 308 318 
319 309 310 170 173 311 312 174 177 
313 312 174 177 313 314 178 181 315 
314 178 181 315 316 182 185 317 316 
182 185 317 318 186 189 319 
CELL_TYPES 128
12
12
12
12
12
12
12
12
12
12
12
12
12
12
12
12
12
12
12
12
12
12
12
12
12
12
12
12
12
12
12
12
12
12
12
12
12
12
12
12
12
12
12
12
12
12
12
12
12
12
12
12
12
12
12
12
12
12
12
12
12
12
12
12
12
12
12
12
12
12
12
12
12
12
12
12
12
12
12
12
12
12
12
12
12
12
12
12
12
12
12
12
12
12
12
12
12
12
12
12
12
12
12
12
12
12
12
12
12
12
12
12
12
12
12
12
12
12
12
12
12
12
12
12
12
12
12
12

POINT_DATA 320
FIELD FieldData 2
PS3DF 1 320 double
1.97285 1.97285 1.97285 1.97285 1.91157 1.91157 1.91157 1.91157 1.79578 
1.79578 1.79578 1.79578 1.51228 1.51228 1.51228 1.51228 1 1 
1 1 1.97285 1.97285 1.91157 1.91157 1.79578 1.79578 1.51228 
1.51228 1 1 1.97285 1.97285 1.91157 1.91157 1.79578 1.79578 
1.51228 1.51228 1 1 1.97285 1.97285 1.91157 1.91157 1.79578 
1.79578 1.51228 1.51228 1 1 1.97285 1.97285 1.91157 1.91157 
1.79578 1.79578 1.51228 1.51228 1 1 1.97285 1.97285 1.91157 
1.91157 1.79578 1.79578 1.51228 1.51228 1 1 1.97285 1.97285 
1.91157 1.91157 1.79578 1.79578 1.51228 1.51228 1 1 1.97285 
1.97285 1.91157 1.91157 1.79578 1.79578 1.51228 1.51228 1 1 
1.97285 1.97285 1.97285 1.97285 1.91157 1.91157 1.91157 1.91157 1.79578 
1.79578 1.79578 1.79578 1.51228 1.51228 1.51228 1.51228 1 1 
1 1 1.97285 1.97285 1.91157 1.91157 1.79578 1.79578 1.51228 
1.51228 1 1 1.97285 1.97285 1.91157 1.91157 1.79578 1.79578 
1.51228 1.51228 1 1 1.97285 1.97285 1.91157 1.91157 1.79578 
1.79578 1.51228 1.51228 1 1 1.97285 1.97285 1.91157 1.91157 
1.79578 1.79578 1.51228 1.51228 1 1 1.97285 1.97285 1.91157 
1.91157 1.79578 1.79578 1.51228 1.51228 1 1 1.97285 1.97285 
1.91157 1.91157 1.79578 1.79578 1.51228 1.51228 1 1 1.97285 
1.97285 1.97285 1.97285 1.91157 1.91157 1.91157 1.91157 1.79578 1.79578 
1.79578 1.79578 1.51228 1.51228 1.51228 1.51228 1 1 1 
1 1.97285 1.97285 1.91157 1.91157 1.79578 1.79578 1.51228 1.51228 
1 1 1.97285 1.97285 1.91157 1.91157 1.79578 1.79578 1.51228 
1.51228 1 1 1.97285 1.97285 1.91157 1.91157 1.79578 1.79578 
1.51228 1.51228 1 1 1.97285 1.97285 1.91157 1.91157 1.79578 
1.79578 1.51228 1.51228 1 1 1.97285 1.97285 1.91157 1.91157 
1.79578 1.79578 1.51228 1.51228 1 1 1.97285 1.97285 1.91157 
1.91157 1.79578 1.79578 1.51228 1.51228 1 1 1.97285 1.97285 
1.91157 1.91157 1.79578 1.79578 1.51228 1.51228 1 1 1.97285 
1.97285 1.91157 1.91157 1.79578 1.79578 1.51228 1.51228 1 1 
1.97285 1.97285 1.91157 1.91157 1.79578 1.79578 1.51228 1.51228 1 
1 1.97285 1.97285 1.91157 1.91157 1.79578 1.79578 1.51228 1.51228 
1 1 1.97285 1.97285 1.91157 1.91157 1.79578 1.79578 1.51228 
1.51228 1 1 1.97285 1.97285 1.91157 1.91157 1.79578 1.79578 
1.51228 1.51228 1 1 1.97285 1.97285 1.91157 1.91157 1.79578 
1.79578 1.51228 1.51228 1 1 
METADATA
COMPONENT_NAMES
PS

TS3DF 1 320 double
1 1 1 1 1.34297 1.34297 1.34297 1.34297 1.54549 
1.54549 1.54549 1.54549 1.5027 1.5027 1.5027 1.5027 1 1 
1 1 1 1 1.34297 1.34297 1.54549 1.54549 1.5027 
1.5027 1 1 1 1 1.34297 1.34297 1.54549 1.54549 
1.5027 1.5027 1 1 1 1 1.34297 1.34297 1.54549 
1.54549 1.5027 1.5027 1 1 1 1 1.34297 1.34297 
1.54549 1.54549 1.5027 1.5027 1 1 1 1 1.34297 
1.34297 1.54549 1.54549 1.5027 1.5027 1 1 1 1 
1.34297 1.34297 1.54549 1.54549 1.5027 1.5027 1 1 1 
1 1.34297 1.34297 1.54549 1.54549 1.5027 1.5027 1 1 
1 1 1 1 1.34297 1.34297 1.34297 1.34297 1.54549 
1.54549 1.54549 1.54549 1.5027 1.5027 1.5027 1.5027 1 1 
1 1 1 1 1.34297 1.34297 1.54549 1.54549 1.5027 
1.5027 1 1 1 1 1.34297 1.34297 1.54549 1.54549 
1.5027 1.5027 1 1 1 1 1.34297 1.34297 1.54549 
1.54549 1.5027 1.5027 1 1 1 1 1.34297 1.34297 
1.54549 1.54549 1.5027 1.5027 1 1 1 1 1.34297 
1.34297 1.54549 1.54549 1.5027 1.5027 1 1 1 1 
1.34297 1.34297 1.54549 1.54549 1.5027 1.5027 1 1 1 
1 1 1 1.34297 1.34297 1.34297 1.34297 1.54549 1.54549 
1.54549 1.54549 1.5027 1.5027 1.5027 1.5027 1 1 1 
1 1 1 1.34297 1.34297 1.54549 1.54549 1.5027 1.5027 
1 1 1 1 1.34297 1.34297 1.54549 1.54549 1.5027 
1.5027 1 1 1 1 1.34297 1.34297 1.54549 1.54549 
1.5027 1.5027 1 1 1 1 1.34297 1.34297 1.54549 
1.54549 1.5027 1.5027 1 1 1 1 1.34297 1.34297 
1.54549 1.54549 1.5027 1.5027 1 1 1 1 1.34297 
1.34297 1.54549 1.54549 1.5027 1.5027 1 1 1 1 
1.34297 1.34297 1.54549 1.54549 1.5027 1.5027 1 1 1 
1 1.34297 1.34297 1.54549 1.54549 1.5027 1.5027 1 1 
1 1 1.34297 1.34297 1.54549 1.54549 1.5027 1.5027 1 
1 1 1 1.34297 1.34297 1.54549 1.54549 1.5027 1.5027 
1 1 1 1 1.34297 1.34297 1.54549 1.54549 1.5027 
1.5027 1 1 1 1 1.34297 1.34297 1.54549 1.54549 
1.5027 1.5027 1 1 1 1 1.34297 1.34297 1.54549 
1.54549 1.5027 1.5027 1 1 
METADATA
COMPONENT_NAMES
TS

