    1C
    1UModel: DIN50125	                                                  
    1UDate: 06-06-2018                                                  
    1UAutor: Rafa³ Brzegowy                                             
    1UUSER                                                              
    1UDATE              11.june.2018                                    
    1UTIME              15:03:41                                        
    1UHOST                                                              
    1UPGM               CalculiX                                        
    1UVERSION           Version 2.14                             
    1UCOMPILETIME       czw.,  7 cze 2018 18:49:56                    
    1UDIR                                                               
    1UDBN                                                               
    1UMAT    11.6580                                                    
    2C                            88                                     1
 -1         1 0.00000E+00 0.00000E+00 0.00000E+00
 -1         2 1.25000E+00 0.00000E+00 7.65379E-17
 -1         3 1.25000E+00 1.50000E+00 7.65379E-17
 -1         4 0.00000E+00 1.50000E+00 0.00000E+00
 -1         5 2.50000E+00 0.00000E+00 1.53076E-16
 -1         6 2.50000E+00 1.50000E+00 1.53076E-16
 -1         7 1.25000E+00 3.00000E+00 7.65379E-17
 -1         8 0.00000E+00 3.00000E+00 0.00000E+00
 -1         9 2.50000E+00 3.00000E+00 1.53076E-16
 -1        10 1.25000E+00 4.50000E+00 7.65379E-17
 -1        11 0.00000E+00 4.50000E+00 0.00000E+00
 -1        12 2.50000E+00 4.50000E+00 1.53076E-16
 -1        13 1.25000E+00 6.00000E+00 7.65379E-17
 -1        14 0.00000E+00 6.00000E+00 0.00000E+00
 -1        15 2.50000E+00 6.00000E+00 1.53076E-16
 -1        16 1.25000E+00 7.50000E+00 7.65379E-17
 -1        17 0.00000E+00 7.50000E+00 0.00000E+00
 -1        18 2.50000E+00 7.50000E+00 1.53076E-16
 -1        19 1.25000E+00 9.00000E+00 7.65379E-17
 -1        20 0.00000E+00 9.00000E+00 0.00000E+00
 -1        21 2.50000E+00 9.00000E+00 1.53076E-16
 -1        22 1.25000E+00 1.05000E+01 7.65379E-17
 -1        23 0.00000E+00 1.05000E+01 0.00000E+00
 -1        24 2.50000E+00 1.05000E+01 1.53076E-16
 -1        25 1.25000E+00 1.20000E+01 7.65379E-17
 -1        26 0.00000E+00 1.20000E+01 0.00000E+00
 -1        27 2.50000E+00 1.20000E+01 1.53076E-16
 -1        28 1.25000E+00 1.35000E+01 7.65379E-17
 -1        29 0.00000E+00 1.35000E+01 0.00000E+00
 -1        30 2.50000E+00 1.35000E+01 1.53076E-16
 -1        31 1.25000E+00 1.50000E+01 7.65379E-17
 -1        32 0.00000E+00 1.50000E+01 0.00000E+00
 -1        33 2.50000E+00 1.50000E+01 1.53076E-16
 -1        34 4.00000E+00 1.81225E+01 2.44921E-16
 -1        35 2.00000E+00 1.81225E+01 1.22461E-16
 -1        36 2.06473E+00 1.74072E+01 1.26424E-16
 -1        37 3.36906E+00 1.74894E+01 2.06289E-16
 -1        38 0.00000E+00 1.81225E+01 0.00000E+00
 -1        39 1.00023E+00 1.73768E+01 6.12446E-17
 -1        40 1.88669E+00 1.66425E+01 1.15522E-16
 -1        41 2.89445E+00 1.67320E+01 1.77228E-16
 -1        42 9.37640E-01 1.65979E+01 5.74120E-17
 -1        43 0.00000E+00 1.65612E+01 0.00000E+00
 -1        44 1.64931E+00 1.58356E+01 1.00988E-16
 -1        45 2.59986E+00 1.58882E+01 1.59190E-16
 -1        46 8.61742E-01 1.58115E+01 5.27647E-17
 -1        47 2.00000E+00 1.96852E+01 1.22461E-16
 -1        48 0.00000E+00 1.96852E+01 0.00000E+00
 -1        49 4.00000E+00 1.96852E+01 2.44921E-16
 -1        50 2.00000E+00 2.12479E+01 1.22461E-16
 -1        51 0.00000E+00 2.12479E+01 0.00000E+00
 -1        52 4.00000E+00 2.12479E+01 2.44921E-16
 -1        53 2.00000E+00 2.28105E+01 1.22461E-16
 -1        54 0.00000E+00 2.28105E+01 0.00000E+00
 -1        55 4.00000E+00 2.28105E+01 2.44921E-16
 -1        56 2.00000E+00 2.43732E+01 1.22461E-16
 -1        57 0.00000E+00 2.43732E+01 0.00000E+00
 -1        58 4.00000E+00 2.43732E+01 2.44921E-16
 -1        59 2.00000E+00 2.59359E+01 1.22461E-16
 -1        60 0.00000E+00 2.59359E+01 0.00000E+00
 -1        61 4.00000E+00 2.59359E+01 2.44921E-16
 -1        62 2.00000E+00 2.74986E+01 1.22461E-16
 -1        63 0.00000E+00 2.74986E+01 0.00000E+00
 -1        64 4.00000E+00 2.74986E+01 2.44921E-16
 -1        65 2.00000E+00 2.90612E+01 1.22461E-16
 -1        66 0.00000E+00 2.90612E+01 0.00000E+00
 -1        67 4.00000E+00 2.90612E+01 2.44921E-16
 -1        68 2.00000E+00 3.06239E+01 1.22461E-16
 -1        69 0.00000E+00 3.06239E+01 0.00000E+00
 -1        70 4.00000E+00 3.06239E+01 2.44921E-16
 -1        71 2.00000E+00 3.21866E+01 1.22461E-16
 -1        72 0.00000E+00 3.21866E+01 0.00000E+00
 -1        73 4.00000E+00 3.21866E+01 2.44921E-16
 -1        74 2.00000E+00 3.37493E+01 1.22461E-16
 -1        75 0.00000E+00 3.37493E+01 0.00000E+00
 -1        76 4.00000E+00 3.37493E+01 2.44921E-16
 -1        77 2.00000E+00 3.53120E+01 1.22461E-16
 -1        78 0.00000E+00 3.53120E+01 0.00000E+00
 -1        79 4.00000E+00 3.53120E+01 2.44921E-16
 -1        80 2.00000E+00 3.68746E+01 1.22461E-16
 -1        81 0.00000E+00 3.68746E+01 0.00000E+00
 -1        82 4.00000E+00 3.68746E+01 2.44921E-16
 -1        83 2.00000E+00 3.84373E+01 1.22461E-16
 -1        84 0.00000E+00 3.84373E+01 0.00000E+00
 -1        85 4.00000E+00 3.84373E+01 2.44921E-16
 -1        86 2.00000E+00 4.00000E+01 1.22461E-16
 -1        87 0.00000E+00 4.00000E+01 0.00000E+00
 -1        88 4.00000E+00 4.00000E+01 2.44921E-16
 -3
    3C                            58                                     1
 -1         1    9    0    1
 -2         1         2         3         4
 -1         2    9    0    1
 -2         2         5         6         3
 -1         3    9    0    1
 -2         4         3         7         8
 -1         4    9    0    1
 -2         3         6         9         7
 -1         5    9    0    1
 -2         8         7        10        11
 -1         6    9    0    1
 -2         7         9        12        10
 -1         7    9    0    1
 -2        11        10        13        14
 -1         8    9    0    1
 -2        10        12        15        13
 -1         9    9    0    1
 -2        14        13        16        17
 -1        10    9    0    1
 -2        13        15        18        16
 -1        11    9    0    1
 -2        17        16        19        20
 -1        12    9    0    1
 -2        16        18        21        19
 -1        13    9    0    1
 -2        20        19        22        23
 -1        14    9    0    1
 -2        19        21        24        22
 -1        15    9    0    1
 -2        23        22        25        26
 -1        16    9    0    1
 -2        22        24        27        25
 -1        17    9    0    1
 -2        26        25        28        29
 -1        18    9    0    1
 -2        25        27        30        28
 -1        19    9    0    1
 -2        29        28        31        32
 -1        20    9    0    1
 -2        28        30        33        31
 -1        21    9    0    1
 -2        34        35        36        37
 -1        22    9    0    1
 -2        35        38        39        36
 -1        23    9    0    1
 -2        37        36        40        41
 -1        24    9    0    1
 -2        36        39        42        40
 -1        25    9    0    1
 -2        39        38        43        42
 -1        26    9    0    1
 -2        41        40        44        45
 -1        27    9    0    1
 -2        40        42        46        44
 -1        28    9    0    1
 -2        42        43        32        46
 -1        29    9    0    1
 -2        45        44        31        33
 -1        30    9    0    1
 -2        44        46        32        31
 -1        31    9    0    1
 -2        38        35        47        48
 -1        32    9    0    1
 -2        35        34        49        47
 -1        33    9    0    1
 -2        48        47        50        51
 -1        34    9    0    1
 -2        47        49        52        50
 -1        35    9    0    1
 -2        51        50        53        54
 -1        36    9    0    1
 -2        50        52        55        53
 -1        37    9    0    1
 -2        54        53        56        57
 -1        38    9    0    1
 -2        53        55        58        56
 -1        39    9    0    1
 -2        57        56        59        60
 -1        40    9    0    1
 -2        56        58        61        59
 -1        41    9    0    1
 -2        60        59        62        63
 -1        42    9    0    1
 -2        59        61        64        62
 -1        43    9    0    1
 -2        63        62        65        66
 -1        44    9    0    1
 -2        62        64        67        65
 -1        45    9    0    1
 -2        66        65        68        69
 -1        46    9    0    1
 -2        65        67        70        68
 -1        47    9    0    1
 -2        69        68        71        72
 -1        48    9    0    1
 -2        68        70        73        71
 -1        49    9    0    1
 -2        72        71        74        75
 -1        50    9    0    1
 -2        71        73        76        74
 -1        51    9    0    1
 -2        75        74        77        78
 -1        52    9    0    1
 -2        74        76        79        77
 -1        53    9    0    1
 -2        78        77        80        81
 -1        54    9    0    1
 -2        77        79        82        80
 -1        55    9    0    1
 -2        81        80        83        84
 -1        56    9    0    1
 -2        80        82        85        83
 -1        57    9    0    1
 -2        84        83        86        87
 -1        58    9    0    1
 -2        83        85        88        86
 -3
    1PSTEP                         1           1           1          
  100CL  101 1.000000000          88                     0    1           1
 -4  DISP        4    1
 -5  D1          1    2    1    0
 -5  D2          1    2    2    0
 -5  D3          1    2    3    0
 -5  ALL         1    2    0    0    1ALL
 -1         1-1.91963E-06 0.00000E+00 0.00000E+00
 -1         2-5.46099E-04 0.00000E+00-3.34378E-20
 -1         3-5.46085E-04 2.11329E-03-3.34369E-20
 -1         4-2.12710E-06 2.12366E-03 0.00000E+00
 -1         5-1.09111E-03 0.00000E+00-6.68091E-20
 -1         6-1.09109E-03 2.11307E-03-6.68075E-20
 -1         7-5.46029E-04 4.22650E-03-3.34336E-20
 -1         8-2.80229E-06 4.24811E-03 0.00000E+00
 -1         9-1.09100E-03 4.22599E-03-6.68021E-20
 -1        10-5.45895E-04 6.33955E-03-3.34253E-20
 -1        11-4.11811E-06 6.37423E-03 0.00000E+00
 -1        12-1.09082E-03 6.33861E-03-6.67910E-20
 -1        13-5.45603E-04 8.45233E-03-3.34074E-20
 -1        14-6.41598E-06 8.50300E-03 0.00000E+00
 -1        15-1.09048E-03 8.45068E-03-6.67702E-20
 -1        16-5.45016E-04 1.05647E-02-3.33715E-20
 -1        17-1.03035E-05 1.06357E-02 0.00000E+00
 -1        18-1.08987E-03 1.05618E-02-6.67330E-20
 -1        19-5.43892E-04 1.26766E-02-3.33027E-20
 -1        20-1.68249E-05 1.27738E-02 0.00000E+00
 -1        21-1.08880E-03 1.26714E-02-6.66675E-20
 -1        22-5.41910E-04 1.47878E-02-3.31813E-20
 -1        23-2.78582E-05 1.49194E-02 0.00000E+00
 -1        24-1.08694E-03 1.47784E-02-6.65537E-20
 -1        25-5.37429E-04 1.68978E-02-3.29070E-20
 -1        26-4.54683E-05 1.70748E-02 0.00000E+00
 -1        27-1.08231E-03 1.68807E-02-6.62701E-20
 -1        28-5.40848E-04 1.90073E-02-3.31163E-20
 -1        29-8.69407E-05 1.92452E-02 0.00000E+00
 -1        30-1.07382E-03 1.89720E-02-6.57503E-20
 -1        31-3.79694E-04 2.10373E-02-2.32488E-20
 -1        32 1.74444E-05 2.13511E-02 0.00000E+00
 -1        33-8.62983E-04 2.10294E-02-5.28407E-20
 -1        34-6.69380E-04 2.44384E-02-4.09863E-20
 -1        35-4.17897E-04 2.40504E-02-2.55879E-20
 -1        36-5.37324E-04 2.34853E-02-3.29005E-20
 -1        37-6.41278E-04 2.41584E-02-3.92656E-20
 -1        38-1.56690E-04 2.38748E-02 0.00000E+00
 -1        39-2.92300E-04 2.35794E-02-1.78976E-20
 -1        40-5.21199E-04 2.27596E-02-3.19132E-20
 -1        41-7.10886E-04 2.34371E-02-4.35278E-20
 -1        42-2.06933E-04 2.26350E-02-1.26706E-20
 -1        43-3.35435E-05 2.26132E-02 0.00000E+00
 -1        44-4.39149E-04 2.18435E-02-2.68892E-20
 -1        45-7.69287E-04 2.23263E-02-4.71037E-20
 -1        46-1.67374E-04 2.16796E-02-1.02483E-20
 -1        47-2.30600E-04 2.50000E-02-1.41197E-20
 -1        48-3.29441E-05 2.50000E-02 0.00000E+00
 -1        49-3.69890E-04 2.50000E-02-2.26485E-20
 -1        50-4.58419E-05 2.50000E-02-2.80691E-21
 -1        51 7.94750E-05 2.50000E-02 0.00000E+00
 -1        52-5.51533E-05 2.50000E-02-3.37705E-21
 -1        53-1.99639E-05 2.50000E-02-1.22240E-21
 -1        54 5.54449E-05 2.50000E-02 0.00000E+00
 -1        55-1.56071E-05 2.50000E-02-9.55626E-22
 -1        56-1.11986E-05 2.50000E-02-6.85694E-22
 -1        57 3.38471E-05 2.50000E-02 0.00000E+00
 -1        58-7.49394E-06 2.50000E-02-4.58856E-22
 -1        59-6.60727E-06 2.50000E-02-4.04565E-22
 -1        60 2.02691E-05 2.50000E-02 0.00000E+00
 -1        61-4.27925E-06 2.50000E-02-2.62020E-22
 -1        62-3.93401E-06 2.50000E-02-2.40881E-22
 -1        63 1.20998E-05 2.50000E-02 0.00000E+00
 -1        64-2.53273E-06 2.50000E-02-1.55080E-22
 -1        65-2.34674E-06 2.50000E-02-1.43692E-22
 -1        66 7.22117E-06 2.50000E-02 0.00000E+00
 -1        67-1.50924E-06 2.50000E-02-9.24115E-23
 -1        68-1.40145E-06 2.50000E-02-8.58114E-23
 -1        69 4.31276E-06 2.50000E-02 0.00000E+00
 -1        70-9.01140E-07 2.50000E-02-5.51771E-23
 -1        71-8.38946E-07 2.50000E-02-5.13690E-23
 -1        72 2.58176E-06 2.50000E-02 0.00000E+00
 -1        73-5.39428E-07 2.50000E-02-3.30294E-23
 -1        74-5.05520E-07 2.50000E-02-3.09531E-23
 -1        75 1.55568E-06 2.50000E-02 0.00000E+00
 -1        76-3.25039E-07 2.50000E-02-1.99022E-23
 -1        77-3.10123E-07 2.50000E-02-1.89889E-23
 -1        78 9.54369E-07 2.50000E-02 0.00000E+00
 -1        79-1.99402E-07 2.50000E-02-1.22095E-23
 -1        80-1.99403E-07 2.50000E-02-1.22095E-23
 -1        81 6.13641E-07 2.50000E-02 0.00000E+00
 -1        82-1.28212E-07 2.50000E-02-7.85045E-24
 -1        83-1.43129E-07 2.50000E-02-8.76384E-24
 -1        84 4.40464E-07 2.50000E-02 0.00000E+00
 -1        85-9.20289E-08 2.50000E-02-5.63496E-24
 -1        86-1.25936E-07 2.50000E-02-7.71110E-24
 -1        87 3.87554E-07 2.50000E-02 0.00000E+00
 -1        88-8.09741E-08 2.50000E-02-4.95807E-24
 -3
    1PSTEP                         2           1           1          
  100CL  101 1.000000000          88                     0    1           1
 -4  STRESS      6    1
 -5  SXX         1    4    1    1
 -5  SYY         1    4    2    2
 -5  SZZ         1    4    3    3
 -5  SXY         1    4    1    2
 -5  SYZ         1    4    2    3
 -5  SZX         1    4    3    1
 -1         1 2.73375E-01 2.69384E+02-1.98085E-01-3.04834E-01-1.79413E-13 4.48341E-14
 -1         2 1.45965E-01 2.69138E+02-1.31915E-01-1.55170E-01-1.17854E-13-3.29624E-14
 -1         3 1.65399E-01 2.69145E+02-1.37939E-01-3.17162E-01-3.75350E-13 3.25805E-15
 -1         4 3.12917E-01 2.69407E+02-2.09959E-01-6.22668E-01-4.03387E-13 1.14872E-14
 -1         5 1.85545E-02 2.68891E+02-6.57462E-02-5.50625E-03-5.62754E-14-1.10788E-13
 -1         6 1.78801E-02 2.68884E+02-6.59196E-02-1.16556E-02-3.47275E-13-5.00316E-15
 -1         7 2.28991E-01 2.69169E+02-1.56724E-01-6.62288E-01-3.88417E-13 2.80763E-15
 -1         8 4.42626E-01 2.69477E+02-2.47648E-01-1.29846E+00-2.17682E-13-5.74012E-14
 -1         9 1.53557E-02 2.68860E+02-6.58006E-02-2.61165E-02-5.59072E-13 6.29742E-14
 -1        10 3.54067E-01 2.69212E+02-1.90598E-01-1.06618E+00-9.29666E-13-4.29074E-14
 -1        11 6.98856E-01 2.69608E+02-3.17901E-01-2.08512E+00-1.12791E-12-4.08020E-14
 -1        12 9.27742E-03 2.68817E+02-6.32956E-02-4.72469E-02-7.31294E-13-4.50750E-14
 -1        13 5.74760E-01 2.69284E+02-2.44225E-01-1.56587E+00-6.55536E-13-1.63739E-14
 -1        14 1.15344E+00 2.69823E+02-4.34127E-01-3.05008E+00-1.49650E-12-2.27008E-14
 -1        15-3.92203E-03 2.68745E+02-5.43237E-02-8.16471E-02 1.85613E-13-1.01442E-14
 -1        16 9.51646E-01 2.69398E+02-3.25871E-01-2.20908E+00-1.42562E-12 1.85502E-15
 -1        17 1.93413E+00 2.70165E+02-6.20081E-01-4.27641E+00-3.38738E-12-4.72102E-15
 -1        18-3.08344E-02 2.68631E+02-3.16611E-02-1.41753E-01 5.36396E-13 8.27467E-15
 -1        19 1.58934E+00 2.69578E+02-4.53829E-01-3.06326E+00-1.98910E-12 4.56127E-14
 -1        20 3.25805E+00 2.70705E+02-9.25061E-01-5.87250E+00-3.43129E-12 7.19542E-14
 -1        21-7.93731E-02 2.68451E+02 1.74033E-02-2.54014E-01-5.46547E-13 1.90152E-14
 -1        22 2.69382E+00 2.69862E+02-6.00510E-01-4.19557E+00 6.25839E-13 5.64597E-14
 -1        23 5.51853E+00 2.71560E+02-1.35563E+00-7.95396E+00 1.41182E-12 5.09829E-14
 -1        24-1.30895E-01 2.68165E+02 1.54613E-01-4.37180E-01-1.59654E-13 6.15156E-14
 -1        25 4.64282E+00 2.70192E+02-1.25081E+00-5.97854E+00-2.14000E-12 3.39971E-14
 -1        26 8.93501E+00 2.72549E+02-3.04919E+00-1.09985E+01-1.74758E-12 5.68648E-14
 -1        27 3.50622E-01 2.67834E+02 5.47561E-01-9.58561E-01-2.53175E-12 1.03956E-14
 -1        28 1.16111E+01 2.70648E+02 6.65534E+00-3.86810E+00-3.66033E-12-1.29627E-14
 -1        29 1.82561E+01 2.73943E+02 6.49494E+00-1.10101E+01-5.33236E-12-1.80802E-14
 -1        30 4.96609E+00 2.67353E+02 6.81574E+00 3.27389E+00-1.98763E-12-8.56533E-15
 -1        31 3.81321E+00 2.28113E+02 7.68072E+00 6.32833E+00-1.03901E-11 2.01851E-13
 -1        32 1.56936E+01 2.11629E+02 1.46995E+01-9.72183E+00 4.40744E-11-4.57972E-13
 -1        33 7.66314E+00 2.50511E+02 1.42298E+01 1.56728E+01-1.27811E-11 5.61778E-13
 -1        34 7.86315E+00 9.11679E+01-1.60134E+00 2.45589E+01 1.89557E-11-5.22848E-13
 -1        35 8.73178E+00 1.07468E+02-3.44374E+00 1.65678E+01-3.46636E-12-3.70489E-14
 -1        36 1.11907E+01 1.41605E+02 7.49052E-01 1.98398E+01 2.80219E-12-1.44993E-13
 -1        37 1.21588E+01 1.15992E+02-1.61351E+00 3.80837E+01 2.46619E-11-6.69606E-13
 -1        38 1.40762E+01 1.48112E+02-5.05725E+00 9.14054E+00-1.25819E-11 1.51698E-13
 -1        39 1.44910E+01 1.77079E+02 5.41254E-01 4.48666E+00-8.02742E-12 1.06783E-13
 -1        40 2.12307E+01 2.03993E+02 2.10755E+01 2.35478E+01 1.28815E-11-2.14827E-13
 -1        41 2.25668E+01 1.81866E+02 1.50923E+01 4.45759E+01 1.11810E-11-2.70624E-13
 -1        42 2.74928E+01 2.18125E+02 2.28383E+01-1.95644E+00 4.78541E-11-4.53632E-13
 -1        43 3.50910E+01 2.10129E+02 1.86178E+01-6.43252E+00 8.11266E-11-7.49244E-13
 -1        44 5.25328E+00 2.05459E+02 1.33469E+01 1.94964E+01-1.69128E-12 1.66239E-13
 -1        45 1.47669E+01 2.26052E+02 1.94401E+01 3.34067E+01-7.05507E-12 4.70478E-13
 -1        46 1.28778E+01 1.97730E+02 1.87809E+01-3.98698E+00 5.18549E-11-4.44526E-13
 -1        47-2.58761E+00 5.00805E+01-7.53687E+00 1.22877E+01-3.33449E-12-3.95948E-14
 -1        48-3.40788E+00 5.78614E+01-8.62054E+00 9.22247E+00-2.10661E-12-5.61672E-14
 -1        49-1.76734E+00 4.22997E+01-6.45320E+00 1.53530E+01-4.56292E-12-2.33416E-14
 -1        50-1.44807E+01-8.30809E+00-1.23203E+01 5.36962E+00-3.26010E-12-1.48583E-14
 -1        51-1.97254E+01-1.01786E+01-1.31103E+01 3.96359E+00-4.89465E-13-1.91704E-14
 -1        52-9.23603E+00-6.43763E+00-1.15302E+01 6.77565E+00-6.03097E-12-1.01412E-14
 -1        53-4.79084E+00-1.89187E+00-1.31186E+00 5.80362E-01 1.79832E-12-1.82717E-15
 -1        54-8.73863E+00-2.88403E+00-5.64529E-01 1.83962E-01 7.24630E-13 4.58372E-15
 -1        55-8.43046E-01-8.99697E-01-2.05919E+00 9.76762E-01 2.87200E-12-7.73756E-15
 -1        56-2.45608E+00-8.31206E-01-2.25173E-01 1.09732E-01 3.92290E-12 1.02239E-15
 -1        57-4.96307E+00-1.45641E+00 2.65085E-01-6.57986E-02 1.93872E-12 7.61577E-15
 -1        58 5.09067E-02-2.06004E-01-7.15431E-01 2.85262E-01 5.90708E-12-5.25087E-15
 -1        59-1.42289E+00-4.65275E-01-7.79780E-02 4.17397E-02 1.03682E-13-1.16082E-16
 -1        60-2.93625E+00-8.43080E-01 2.16674E-01-5.61228E-02-1.70349E-12 1.80490E-15
 -1        61 9.04719E-02-8.74693E-02-3.72630E-01 1.39602E-01 1.91085E-12-1.84401E-15
 -1        62-8.44395E-01-2.74369E-01-4.06606E-02 2.24335E-02-2.27381E-12-1.46765E-16
 -1        63-1.74914E+00-5.00302E-01 1.35274E-01-3.51973E-02 3.19923E-13-8.59831E-17
 -1        64 6.03494E-02-4.84365E-02-2.16596E-01 8.00642E-02-4.86755E-12-9.21630E-17
 -1        65-5.03407E-01-1.63388E-01-2.36497E-02 1.31171E-02-9.07995E-13 8.04049E-16
 -1        66-1.04350E+00-2.98268E-01 8.13499E-02-2.11639E-02 4.36677E-12 1.11293E-15
 -1        67 3.66848E-02-2.85090E-02-1.28649E-01 4.73981E-02-6.18276E-12 5.64044E-16
 -1        68-3.00599E-01-9.75445E-02-1.40599E-02 7.78659E-03 8.62469E-13 9.02899E-16
 -1        69-6.23178E-01-1.78104E-01 4.86500E-02-1.26255E-02 1.93867E-12 1.89733E-15
 -1        70 2.19800E-02-1.69849E-02-7.67698E-02 2.81987E-02-2.13726E-13-5.03970E-17
 -1        71-1.79943E-01-5.83895E-02-8.41004E-03 4.62444E-03-3.31080E-12 1.69670E-16
 -1        72-3.73051E-01-1.06616E-01 2.91302E-02-7.50470E-03 3.19935E-13 2.39270E-16
 -1        73 1.31654E-02-1.01633E-02-4.59503E-02 1.67536E-02-6.94154E-12 1.24696E-16
 -1        74-1.08427E-01-3.51831E-02-5.06693E-03 2.72933E-03-2.04617E-12 3.22319E-17
 -1        75-2.24787E-01-6.42426E-02 1.75535E-02-4.42990E-03 3.15270E-12-1.06056E-16
 -1        76 7.93381E-03-6.12362E-03-2.76874E-02 9.88856E-03-7.24505E-12 1.85358E-16
 -1        77-6.65168E-02-2.15838E-02-3.10836E-03 1.57989E-03 3.11350E-12 1.29352E-16
 -1        78-1.37901E-01-3.94110E-02 1.07687E-02-2.56432E-03 4.56908E-12 2.78839E-16
 -1        79 4.86726E-03-3.75663E-03-1.69854E-02 5.72410E-03 1.65792E-12-1.10309E-17
 -1        80-4.27690E-02-1.38780E-02-1.99862E-03 8.61863E-04 2.05121E-12 2.01150E-18
 -1        81-8.86676E-02-2.53405E-02 6.92405E-03-1.39890E-03 1.73632E-12 3.37838E-17
 -1        82 3.12956E-03-2.41543E-03-1.09213E-02 3.12262E-03 2.36611E-12-2.39077E-17
 -1        83-3.06991E-02-9.96145E-03-1.43459E-03 3.79167E-04 1.64653E-12-2.70728E-17
 -1        84-6.36446E-02-1.81891E-02 4.97000E-03-6.15429E-04 3.19934E-13-4.59142E-17
 -1        85 2.24636E-03-1.73377E-03-7.83917E-03 1.37376E-03 2.97313E-12-4.03010E-18
 -1        86-2.70114E-02-8.76485E-03-1.26226E-03 1.77469E-04 2.80999E-12-1.09644E-17
 -1        87-5.59994E-02-1.60042E-02 4.37299E-03-2.88051E-04-8.47466E-14 3.11724E-18
 -1        88 1.97652E-03-1.52550E-03-6.89751E-03 6.42990E-04 5.70473E-12-2.13493E-17
 -3
    1PSTEP                         3           1           1          
  100CL  101 1.000000000          88                     0    1           1
 -4  TOSTRAIN    6    1
 -5  EXX         1    4    1    1
 -5  EYY         1    4    2    2
 -5  EZZ         1    4    3    3
 -5  EXY         1    4    1    2
 -5  EYZ         1    4    2    3
 -5  EZX         1    4    3    1
 -1         1-4.35226E-04 1.41216E-03-4.38463E-04-2.09641E-06-1.23391E-18 3.07782E-19
 -1         2-4.35601E-04 1.41096E-03-4.37509E-04-1.06715E-06-8.10535E-19-2.26275E-19
 -1         3-4.35502E-04 1.41098E-03-4.37584E-04-2.18122E-06-2.58145E-18 2.23812E-20
 -1         4-4.35036E-04 1.41223E-03-4.38625E-04-4.28222E-06-2.77428E-18 7.88876E-20
 -1         5-4.35976E-04 1.40977E-03-4.36555E-04-3.78944E-08-3.87031E-19-7.60531E-19
 -1         6-4.35968E-04 1.40973E-03-4.36543E-04-8.02184E-08-2.38836E-18-3.43449E-20
 -1         7-4.35176E-04 1.41103E-03-4.37824E-04-4.55476E-06-2.67131E-18 1.92793E-20
 -1         8-4.34409E-04 1.41245E-03-4.39148E-04-8.92977E-06-1.49710E-18-3.94036E-19
 -1         9-4.35943E-04 1.40961E-03-4.36500E-04-1.79758E-07-3.84497E-18 4.32304E-19
 -1        10-4.34537E-04 1.41111E-03-4.38276E-04-7.33248E-06-6.39376E-18-2.94411E-19
 -1        11-4.33165E-04 1.41284E-03-4.40145E-04-1.43397E-05-7.75722E-18-2.79826E-19
 -1        12-4.35908E-04 1.40939E-03-4.36406E-04-3.25232E-07-5.02942E-18-3.09424E-19
 -1        13-4.33410E-04 1.41122E-03-4.39032E-04-1.07690E-05-4.50848E-18-1.12218E-19
 -1        14-4.30944E-04 1.41342E-03-4.41844E-04-2.09759E-05-1.02922E-17-1.55461E-19
 -1        15-4.35875E-04 1.40902E-03-4.36221E-04-5.62086E-07 1.27653E-18-6.96427E-20
 -1        16-4.31488E-04 1.41134E-03-4.40259E-04-1.51927E-05-9.80492E-18 1.34974E-20
 -1        17-4.27108E-04 1.41425E-03-4.44644E-04-2.94094E-05-2.32971E-17-3.08773E-20
 -1        18-4.35868E-04 1.40843E-03-4.35874E-04-9.75936E-07 3.68902E-18 5.67984E-20
 -1        19-4.28231E-04 1.41145E-03-4.42259E-04-2.10672E-05-1.36802E-17 3.13960E-19
 -1        20-4.20552E-04 1.41542E-03-4.49272E-04-4.03856E-05-2.35991E-17 4.95609E-19
 -1        21-4.35910E-04 1.40748E-03-4.35246E-04-1.74880E-06-3.75881E-18 1.30553E-19
 -1        22-4.22670E-04 1.41139E-03-4.45288E-04-2.88552E-05 4.30448E-18 3.86957E-19
 -1        23-4.09399E-04 1.41694E-03-4.56596E-04-5.46998E-05 9.71033E-18 3.48738E-19
 -1        24-4.35940E-04 1.40584E-03-4.33981E-04-3.01063E-06-1.09801E-18 4.22287E-19
 -1        25-4.11936E-04 1.41101E-03-4.52401E-04-4.11134E-05-1.47183E-17 2.34848E-19
 -1        26-3.90349E-04 1.41933E-03-4.72631E-04-7.56296E-05-1.20204E-17 3.92914E-19
 -1        27-4.33524E-04 1.40269E-03-4.32172E-04-6.59712E-06-1.74117E-17 7.17450E-20
 -1        28-3.89076E-04 1.38925E-03-4.23105E-04-2.66953E-05-2.51753E-17-8.54738E-20
 -1        29-3.59354E-04 1.39601E-03-4.40114E-04-7.57930E-05-3.66763E-17-1.17395E-19
 -1        30-4.18798E-04 1.38249E-03-4.06096E-04 2.24023E-05-1.36697E-17-5.84974E-20
 -1        31-3.62600E-04 1.17708E-03-3.36068E-04 4.33266E-05-7.14104E-17 1.37924E-18
 -1        32-2.85067E-04 1.05988E-03-2.91929E-04-6.69239E-05 3.03002E-16-3.23730E-18
 -1        33-3.89432E-04 1.27768E-03-3.44355E-04 1.07549E-04-8.78641E-17 3.83805E-18
 -1        34-1.04134E-04 4.67375E-04-1.69083E-04 1.68512E-04 1.30130E-16-3.54580E-18
 -1        35-1.23051E-04 5.54387E-04-2.06596E-04 1.13670E-04-2.38253E-17-2.34819E-19
 -1        36-1.72331E-04 7.22565E-04-2.44016E-04 1.36184E-04 1.92426E-17-9.67054E-19
 -1        37-1.21797E-04 5.90500E-04-2.16385E-04 2.61440E-04 1.69322E-16-4.53542E-18
 -1        38-1.58381E-04 7.61418E-04-2.89689E-04 6.27731E-05-8.63747E-17 1.04574E-18
 -1        39-2.12312E-04 9.03571E-04-3.08048E-04 3.08398E-05-5.50754E-17 7.37213E-19
 -1        40-2.54006E-04 1.00041E-03-2.55131E-04 1.61766E-04 8.85379E-17-1.45095E-18
 -1        41-2.01280E-04 8.91859E-04-2.52707E-04 3.06189E-04 7.68343E-17-1.81746E-18
 -1        42-2.47084E-04 1.06152E-03-2.79046E-04-1.34081E-05 3.28960E-16-3.17784E-18
 -1        43-1.87436E-04 1.01408E-03-3.00538E-04-4.41581E-05 5.57681E-16-5.27816E-18
 -1        44-3.27502E-04 1.04662E-03-2.71988E-04 1.33920E-04-1.16098E-17 1.14907E-18
 -1        45-3.20957E-04 1.12928E-03-2.88949E-04 2.29494E-04-4.85073E-17 3.23451E-18
 -1        46-2.83920E-04 9.84878E-04-2.43426E-04-2.74296E-05 3.56494E-16-3.14140E-18
 -1        47-8.25830E-05 2.78815E-04-1.16538E-04 8.42811E-05-2.28822E-17-2.72313E-19
 -1        48-9.77389E-05 3.22688E-04-1.33514E-04 6.32538E-05-1.44682E-17-3.85987E-19
 -1        49-6.74271E-05 2.34941E-04-9.95615E-05 1.05308E-04-3.13001E-17-1.60830E-19
 -1        50-4.23336E-05 4.76283E-09-2.75125E-05 3.68201E-05-2.23584E-17-1.01889E-19
 -1        51-6.54700E-05 2.65076E-09-2.01018E-05 2.71766E-05-3.35680E-18-1.31451E-19
 -1        52-1.91971E-05 6.87491E-09-3.49232E-05 4.64635E-05-4.13617E-17-6.95488E-20
 -1        53-1.98822E-05 6.54288E-11 3.97779E-06 3.98036E-06 1.23341E-17-1.25326E-20
 -1        54-4.01528E-05 8.93244E-12 1.59080E-05 1.26158E-06 4.96987E-18 3.14364E-20
 -1        55 3.88435E-07 1.21925E-10-7.95241E-06 6.69914E-06 1.96982E-17-5.30689E-20
 -1        56-1.11442E-05 4.56791E-12 4.15643E-06 7.52618E-07 2.69055E-17 7.01048E-21
 -1        57-2.40504E-05 4.07919E-13 1.18068E-05-4.51269E-07 1.32965E-17 5.22304E-20
 -1        58 1.76204E-06 8.72789E-12-3.49397E-06 1.95651E-06 4.05145E-17-3.60139E-20
 -1        59-6.56784E-06 1.14319E-12 2.65628E-06 2.86283E-07 7.11179E-19-7.96419E-22
 -1        60-1.43561E-05 3.10396E-13 7.26838E-06-3.84915E-07-1.16835E-17 1.23786E-20
 -1        61 1.22043E-06 1.97597E-12-1.95581E-06 9.57481E-07 1.31059E-17-1.26474E-20
 -1        62-3.90957E-06 3.83395E-13 1.60291E-06 1.53865E-07-1.55952E-17-1.00661E-21
 -1        63-8.56526E-06 1.23668E-13 4.35916E-06-2.41402E-07 2.19431E-18-5.89729E-22
 -1        64 7.46121E-07 6.43122E-13-1.15334E-06 5.49132E-07-3.33848E-17-6.32117E-22
 -1        65-2.33205E-06 1.34907E-13 9.58412E-07 8.99662E-08-6.22773E-18 5.51466E-21
 -1        66-5.11125E-06 4.48191E-14 2.60365E-06-1.45154E-07 2.99499E-17 7.63312E-21
 -1        67 4.47141E-07 2.24995E-13-6.86825E-07 3.25086E-07-4.24053E-17 3.86858E-21
 -1        68-1.39267E-06 4.77988E-14 5.72588E-07 5.34057E-08 5.91533E-18 6.19260E-21
 -1        69-3.05259E-06 1.59619E-14 1.55522E-06-8.65933E-08 1.32965E-17 1.30130E-20
 -1        70 2.67246E-07 7.96357E-14-4.10043E-07 1.93405E-07-1.46587E-18-3.45655E-22
 -1        71-8.33689E-07 1.68904E-14 3.42790E-07 3.17174E-08-2.27076E-17 1.16370E-21
 -1        72-1.82738E-06 5.64527E-15 9.31030E-07-5.14719E-08 2.19431E-18 1.64105E-21
 -1        73 1.60003E-07 2.81356E-14-2.45450E-07 1.14907E-07-4.76095E-17 8.55244E-22
 -1        74-5.02352E-07 5.90040E-15 2.06556E-07 1.87195E-08-1.40340E-17 2.21069E-22
 -1        75-1.10112E-06 1.97214E-15 5.61009E-07-3.03830E-08 2.16232E-17-7.27393E-22
 -1        76 9.64148E-08 9.82865E-15-1.47898E-07 6.78220E-08-4.96912E-17 1.27130E-21
 -1        77-3.08179E-07 1.99342E-15 1.26716E-07 1.08359E-08 2.13544E-17 8.87179E-22
 -1        78-6.75506E-07 6.66102E-16 3.44164E-07-1.75878E-08 3.13377E-17 1.91245E-21
 -1        79 5.91481E-08 3.32073E-15-9.07314E-08 3.92595E-08 1.13711E-17-7.56573E-23
 -1        80-1.98153E-07 6.10454E-16 8.14762E-08 5.91121E-09 1.40685E-17 1.37959E-23
 -1        81-4.34338E-07 2.03785E-16 2.21291E-07-9.59452E-09 1.19088E-17 2.31711E-22
 -1        82 3.80311E-08 1.01712E-15-5.83386E-08 2.14169E-08 1.62283E-17-1.63975E-22
 -1        83-1.42232E-07 1.37927E-16 5.84827E-08 2.60057E-09 1.12930E-17-1.85682E-22