<?xml version="1.0"?>
<VTKFile type="UnstructuredGrid" version="0.1" byte_order="LittleEndian">
	<UnstructuredGrid>
		<Piece NumberOfPoints="88" NumberOfCells="58">
			<Points>
				<DataArray type="Float64" NumberOfComponents="3" format="ascii">
					 0.00000000E+00	 0.00000000E+00	 0.00000000E+00
					 1.25000000E+00	 0.00000000E+00	 7.65379000E-17
					 1.25000000E+00	 1.50000000E+00	 7.65379000E-17
					 0.00000000E+00	 1.50000000E+00	 0.00000000E+00
					 2.50000000E+00	 0.00000000E+00	 1.53076000E-16
					 2.50000000E+00	 1.50000000E+00	 1.53076000E-16
					 1.25000000E+00	 3.00000000E+00	 7.65379000E-17
					 0.00000000E+00	 3.00000000E+00	 0.00000000E+00
					 2.50000000E+00	 3.00000000E+00	 1.53076000E-16
					 1.25000000E+00	 4.50000000E+00	 7.65379000E-17
					 0.00000000E+00	 4.50000000E+00	 0.00000000E+00
					 2.50000000E+00	 4.50000000E+00	 1.53076000E-16
					 1.25000000E+00	 6.00000000E+00	 7.65379000E-17
					 0.00000000E+00	 6.00000000E+00	 0.00000000E+00
					 2.50000000E+00	 6.00000000E+00	 1.53076000E-16
					 1.25000000E+00	 7.50000000E+00	 7.65379000E-17
					 0.00000000E+00	 7.50000000E+00	 0.00000000E+00
					 2.50000000E+00	 7.50000000E+00	 1.53076000E-16
					 1.25000000E+00	 9.00000000E+00	 7.65379000E-17
					 0.00000000E+00	 9.00000000E+00	 0.00000000E+00
					 2.50000000E+00	 9.00000000E+00	 1.53076000E-16
					 1.25000000E+00	 1.05000000E+01	 7.65379000E-17
					 0.00000000E+00	 1.05000000E+01	 0.00000000E+00
					 2.50000000E+00	 1.05000000E+01	 1.53076000E-16
					 1.25000000E+00	 1.20000000E+01	 7.65379000E-17
					 0.00000000E+00	 1.20000000E+01	 0.00000000E+00
					 2.50000000E+00	 1.20000000E+01	 1.53076000E-16
					 1.25000000E+00	 1.35000000E+01	 7.65379000E-17
					 0.00000000E+00	 1.35000000E+01	 0.00000000E+00
					 2.50000000E+00	 1.35000000E+01	 1.53076000E-16
					 1.25000000E+00	 1.50000000E+01	 7.65379000E-17
					 0.00000000E+00	 1.50000000E+01	 0.00000000E+00
					 2.50000000E+00	 1.50000000E+01	 1.53076000E-16
					 4.00000000E+00	 1.81225000E+01	 2.44921000E-16
					 2.00000000E+00	 1.81225000E+01	 1.22461000E-16
					 2.06473000E+00	 1.74072000E+01	 1.26424000E-16
					 3.36906000E+00	 1.74894000E+01	 2.06289000E-16
					 0.00000000E+00	 1.81225000E+01	 0.00000000E+00
					 1.00023000E+00	 1.73768000E+01	 6.12446000E-17
					 1.88669000E+00	 1.66425000E+01	 1.15522000E-16
					 2.89445000E+00	 1.67320000E+01	 1.77228000E-16
					 9.37640000E-01	 1.65979000E+01	 5.74120000E-17
					 0.00000000E+00	 1.65612000E+01	 0.00000000E+00
					 1.64931000E+00	 1.58356000E+01	 1.00988000E-16
					 2.59986000E+00	 1.58882000E+01	 1.59190000E-16
					 8.61742000E-01	 1.58115000E+01	 5.27647000E-17
					 2.00000000E+00	 1.96852000E+01	 1.22461000E-16
					 0.00000000E+00	 1.96852000E+01	 0.00000000E+00
					 4.00000000E+00	 1.96852000E+01	 2.44921000E-16
					 2.00000000E+00	 2.12479000E+01	 1.22461000E-16
					 0.00000000E+00	 2.12479000E+01	 0.00000000E+00
					 4.00000000E+00	 2.12479000E+01	 2.44921000E-16
					 2.00000000E+00	 2.28105000E+01	 1.22461000E-16
					 0.00000000E+00	 2.28105000E+01	 0.00000000E+00
					 4.00000000E+00	 2.28105000E+01	 2.44921000E-16
					 2.00000000E+00	 2.43732000E+01	 1.22461000E-16
					 0.00000000E+00	 2.43732000E+01	 0.00000000E+00
					 4.00000000E+00	 2.43732000E+01	 2.44921000E-16
					 2.00000000E+00	 2.59359000E+01	 1.22461000E-16
					 0.00000000E+00	 2.59359000E+01	 0.00000000E+00
					 4.00000000E+00	 2.59359000E+01	 2.44921000E-16
					 2.00000000E+00	 2.74986000E+01	 1.22461000E-16
					 0.00000000E+00	 2.74986000E+01	 0.00000000E+00
					 4.00000000E+00	 2.74986000E+01	 2.44921000E-16
					 2.00000000E+00	 2.90612000E+01	 1.22461000E-16
					 0.00000000E+00	 2.90612000E+01	 0.00000000E+00
					 4.00000000E+00	 2.90612000E+01	 2.44921000E-16
					 2.00000000E+00	 3.06239000E+01	 1.22461000E-16
					 0.00000000E+00	 3.06239000E+01	 0.00000000E+00
					 4.00000000E+00	 3.06239000E+01	 2.44921000E-16
					 2.00000000E+00	 3.21866000E+01	 1.22461000E-16
					 0.00000000E+00	 3.21866000E+01	 0.00000000E+00
					 4.00000000E+00	 3.21866000E+01	 2.44921000E-16
					 2.00000000E+00	 3.37493000E+01	 1.22461000E-16
					 0.00000000E+00	 3.37493000E+01	 0.00000000E+00
					 4.00000000E+00	 3.37493000E+01	 2.44921000E-16
					 2.00000000E+00	 3.53120000E+01	 1.22461000E-16
					 0.00000000E+00	 3.53120000E+01	 0.00000000E+00
					 4.00000000E+00	 3.53120000E+01	 2.44921000E-16
					 2.00000000E+00	 3.68746000E+01	 1.22461000E-16
					 0.00000000E+00	 3.68746000E+01	 0.00000000E+00
					 4.00000000E+00	 3.68746000E+01	 2.44921000E-16
					 2.00000000E+00	 3.84373000E+01	 1.22461000E-16
					 0.00000000E+00	 3.84373000E+01	 0.00000000E+00
					 4.00000000E+00	 3.84373000E+01	 2.44921000E-16
					 2.00000000E+00	 4.00000000E+01	 1.22461000E-16
					 0.00000000E+00	 4.00000000E+01	 0.00000000E+00
					 4.00000000E+00	 4.00000000E+01	 2.44921000E-16

				</DataArray>
			</Points>
			<Cells>
				<DataArray type="Int32" Name="connectivity" format="ascii">
					0 1 2 3 1 4 5 2 3 2 6 7 2 5 8 6 7 6 9 10 6 8 11 9 10 9 12 13 9 11 14 12 13 12 15 16 12 14 17 15 16 15 18 19 15 17 20 18 19 18 21 22 18 20 23 21 22 21 24 25 21 23 26 24 25 24 27 28 24 26 29 27 28 27 30 31 27 29 32 30 33 34 35 36 34 37 38 35 36 35 39 40 35 38 41 39 38 37 42 41 40 39 43 44 39 41 45 43 41 42 31 45 44 43 30 32 43 45 31 30 37 34 46 47 34 33 48 46 47 46 49 50 46 48 51 49 50 49 52 53 49 51 54 52 53 52 55 56 52 54 57 55 56 55 58 59 55 57 60 58 59 58 61 62 58 60 63 61 62 61 64 65 61 63 66 64 65 64 67 68 64 66 69 67 68 67 70 71 67 69 72 70 71 70 73 74 70 72 75 73 74 73 76 77 73 75 78 76 77 76 79 80 76 78 81 79 80 79 82 83 79 81 84 82 83 82 85 86 82 84 87 85 
				</DataArray>
				<DataArray type="Int32" Name="offsets" format="ascii">
					4 8 12 16 20 24 28 32 36 40 44 48 52 56 60 64 68 72 76 80 84 88 92 96 100 104 108 112 116 120 124 128 132 136 140 144 148 152 156 160 164 168 172 176 180 184 188 192 196 200 204 208 212 216 220 224 228 232 
				</DataArray>
				<DataArray type="UInt8" Name="types" format="ascii">
					9 9 9 9 9 9 9 9 9 9 9 9 9 9 9 9 9 9 9 9 9 9 9 9 9 9 9 9 9 9 9 9 9 9 9 9 9 9 9 9 9 9 9 9 9 9 9 9 9 9 9 9 9 9 9 9 9 9 
				</DataArray>
			</Cells>
			<PointData>
				<DataArray type="Float32" Name="U" NumberOfComponents="3" ComponentName0="D1" ComponentName1="D2" ComponentName2="D3" format="ascii">
					 1.63087000E+00	 0.00000000E+00	 0.00000000E+00
					 6.14616000E-01	 0.00000000E+00	 0.00000000E+00
					-2.72709000E+00	-9.33776000E-01	 0.00000000E+00
					-1.70943000E+00	-9.38183000E-01	 0.00000000E+00
					 1.32503000E+00	 0.00000000E+00	 0.00000000E+00
					-2.01882000E+00	-7.68944000E-01	 0.00000000E+00
					-2.18397000E-02	-2.42430000E+00	 0.00000000E+00
					 6.89733000E-01	-4.33564000E-01	 0.00000000E+00
					 4.76985000E+00	-5.92296000E-01	 0.00000000E+00
					-1.22801000E+00	-3.14874000E+00	 0.00000000E+00
					-5.16042000E-01	-1.15774000E+00	 0.00000000E+00
					-2.42095000E+00	-4.86118000E+00	 0.00000000E+00
					 8.29276000E-01	-1.35454000E+00	 0.00000000E+00
					-3.68433000E-01	-2.77716000E+00	 0.00000000E+00
					-1.13182000E+00	-2.31861000E+00	 0.00000000E+00
					 1.10400000E+00	-2.38927000E+00	 0.00000000E+00
					-3.29808000E-01	-3.98118000E+00	 0.00000000E+00
					-8.60370000E-01	-3.34763000E+00	 0.00000000E+00
					-2.25784000E-01	-4.66292000E+00	 0.00000000E+00
					-1.19139000E+00	-6.42836000E+00	 0.00000000E+00
					-5.57206000E-01	-1.42778000E+00	 0.00000000E+00
					 3.61077000E-02	-3.25226000E+00	 0.00000000E+00
					-2.87774000E-01	-6.87231000E+00	 0.00000000E+00
					-2.69666000E-01	-7.62059000E-03	 0.00000000E+00
					 3.61111000E-01	-4.34444000E+00	 0.00000000E+00
					-1.50090000E-02	-8.59268000E+00	 0.00000000E+00
					-9.68401000E-01	 1.29168000E+00	 0.00000000E+00
					-6.89588000E-01	-4.42050000E+00	 0.00000000E+00
					-8.54754000E-01	-8.83912000E+00	 0.00000000E+00
					-1.85923000E+00	 1.31893000E+00	 0.00000000E+00
					-1.19973000E-01	 8.72345000E-02	 0.00000000E+00
					 1.17196000E-02	-4.43214000E+00	 0.00000000E+00
					-1.27069000E+00	 5.82937000E+00	 0.00000000E+00
					-7.71661000E-01	 1.26952000E+01	 0.00000000E+00
					-2.32134000E+00	 1.29794000E+01	 0.00000000E+00
					-3.64842000E+00	 1.24929000E+01	 0.00000000E+00
					-1.77886000E+00	 1.22363000E+01	 0.00000000E+00
					-5.12863000E-01	 1.29920000E+01	 0.00000000E+00
					-5.63609000E-01	 1.22416000E+01	 0.00000000E+00
					-6.40763000E-01	 1.06019000E+01	 0.00000000E+00
					 2.70048000E+00	 9.79451000E+00	 0.00000000E+00
					-8.46230000E-01	 7.67207000E+00	 0.00000000E+00
					-1.21225000E-02	 1.29590000E+01	 0.00000000E+00
					-3.47834000E+00	-4.98958000E+00	 0.00000000E+00
					 4.25414000E+00	 3.78250000E-01	 0.00000000E+00
					-8.22375000E-01	-9.71910000E+00	 0.00000000E+00
					-2.38855000E+00	 2.50000000E+00	 0.00000000E+00
					-6.84930000E-01	 2.50000000E+00	 0.00000000E+00
					-4.97615000E+00	 2.50000000E+00	 0.00000000E+00
					-1.70205000E+00	 2.50000000E+00	 0.00000000E+00
					-7.65501000E-04	 2.50000000E+00	 0.00000000E+00
					-2.53061000E+00	 2.50000000E+00	 0.00000000E+00
					-1.70124000E+00	 2.50000000E+00	 0.00000000E+00
					 4.08967000E-05	 2.50000000E+00	 0.00000000E+00
					-1.89496000E+00	 2.50000000E+00	 0.00000000E+00
					-1.68885000E+00	 2.50000000E+00	 0.00000000E+00
					 1.17366000E-02	 2.50000000E+00	 0.00000000E+00
					-2.28742000E-01	 2.50000000E+00	 0.00000000E+00
					-1.64065000E+00	 2.50000000E+00	 0.00000000E+00
					 5.75233000E-02	 2.50000000E+00	 0.00000000E+00
					-6.26600000E-01	 2.50000000E+00	 0.00000000E+00
					-1.52055000E+00	 2.50000000E+00	 0.00000000E+00
					 1.68197000E-01	 2.50000000E+00	 0.00000000E+00
					-4.51257000E-01	 2.50000000E+00	 0.00000000E+00
					-1.56163000E+00	 2.50000000E+00	 0.00000000E+00
					 1.16651000E-01	 2.50000000E+00	 0.00000000E+00
					-5.39449000E-01	 2.50000000E+00	 0.00000000E+00
					-1.54739000E+00	 2.50000000E+00	 0.00000000E+00
					 1.21892000E-01	 2.50000000E+00	 0.00000000E+00
					-4.98017000E-01	 2.50000000E+00	 0.00000000E+00
					-1.54240000E+00	 2.50000000E+00	 0.00000000E+00
					 1.19314000E-01	 2.50000000E+00	 0.00000000E+00
					-5.16169000E-01	 2.50000000E+00	 0.00000000E+00
					-1.52834000E+00	 2.50000000E+00	 0.00000000E+00
					 1.27201000E-01	 2.50000000E+00	 0.00000000E+00
					-5.05008000E-01	 2.50000000E+00	 0.00000000E+00
					-1.52650000E+00	 2.50000000E+00	 0.00000000E+00
					 1.24262000E-01	 2.50000000E+00	 0.00000000E+00
					-5.09006000E-01	 2.50000000E+00	 0.00000000E+00
					-1.52922000E+00	 2.50000000E+00	 0.00000000E+00
					 1.18150000E-01	 2.50000000E+00	 0.00000000E+00
					-5.08427000E-01	 2.50000000E+00	 0.00000000E+00
					-1.52845000E+00	 2.50000000E+00	 0.00000000E+00
					 1.16880000E-01	 2.50000000E+00	 0.00000000E+00
					-5.08988000E-01	 2.50000000E+00	 0.00000000E+00
					-1.52624000E+00	 2.50000000E+00	 0.00000000E+00
					 1.18420000E-01	 2.50000000E+00	 0.00000000E+00
					-5.07856000E-01	 2.50000000E+00	 0.00000000E+00
				</DataArray>
				<DataArray type="Float32" Name="RF" NumberOfComponents="3" ComponentName0="F1" ComponentName1="F2" ComponentName2="F3" format="ascii">
					 0.00000000E+00	 0.00000000E+00	 0.00000000E+00
					 0.00000000E+00	 0.00000000E+00	 0.00000000E+00
					 0.00000000E+00	 0.00000000E+00	 0.00000000E+00
					 0.00000000E+00	 0.00000000E+00	 0.00000000E+00
					 0.00000000E+00	 0.00000000E+00	 0.00000000E+00
					 0.00000000E+00	 0.00000000E+00	 0.00000000E+00
					 0.00000000E+00	 0.00000000E+00	 0.00000000E+00
					 0.00000000E+00	 0.00000000E+00	 0.00000000E+00
					 0.00000000E+00	 0.00000000E+00	 0.00000000E+00
					 0.00000000E+00	 0.00000000E+00	 0.00000000E+00
					 0.00000000E+00	 0.00000000E+00	 0.00000000E+00
					 0.00000000E+00	 0.00000000E+00	 0.00000000E+00
					 0.00000000E+00	 0.00000000E+00	 0.00000000E+00
					 0.00000000E+00	 0.00000000E+00	 0.00000000E+00
					 0.00000000E+00	 0.00000000E+00	 0.00000000E+00
					 0.00000000E+00	 0.00000000E+00	 0.00000000E+00
					 0.00000000E+00	 0.00000000E+00	 0.00000000E+00
					 0.00000000E+00	 0.00000000E+00	 0.00000000E+00
					 0.00000000E+00	 0.00000000E+00	 0.00000000E+00
					 0.00000000E+00	 0.00000000E+00	 0.00000000E+00
					 0.00000000E+00	 0.00000000E+00	 0.00000000E+00
					 0.00000000E+00	 0.00000000E+00	 0.00000000E+00
					 0.00000000E+00	 0.00000000E+00	 0.00000000E+00
					 0.00000000E+00	 0.00000000E+00	 0.00000000E+00
					 0.00000000E+00	 0.00000000E+00	 0.00000000E+00
					 0.00000000E+00	 0.00000000E+00	 0.00000000E+00
					 0.00000000E+00	 0.00000000E+00	 0.00000000E+00
					 0.00000000E+00	 0.00000000E+00	 0.00000000E+00
					 0.00000000E+00	 0.00000000E+00	 0.00000000E+00
					 0.00000000E+00	 0.00000000E+00	 0.00000000E+00
					 0.00000000E+00	 0.00000000E+00	 0.00000000E+00
					 0.00000000E+00	 0.00000000E+00	 0.00000000E+00
					 0.00000000E+00	 0.00000000E+00	 0.00000000E+00
					 0.00000000E+00	 0.00000000E+00	 0.00000000E+00
					 0.00000000E+00	 0.00000000E+00	 0.00000000E+00
					 0.00000000E+00	 0.00000000E+00	 0.00000000E+00
					 0.00000000E+00	 0.00000000E+00	 0.00000000E+00
					 0.00000000E+00	 0.00000000E+00	 0.00000000E+00
					 0.00000000E+00	 0.00000000E+00	 0.00000000E+00
					 0.00000000E+00	 0.00000000E+00	 0.00000000E+00
					 0.00000000E+00	 0.00000000E+00	 0.00000000E+00
					 0.00000000E+00	 0.00000000E+00	 0.00000000E+00
					 0.00000000E+00	 0.00000000E+00	 0.00000000E+00
					 0.00000000E+00	 0.00000000E+00	 0.00000000E+00
					 0.00000000E+00	 0.00000000E+00	 0.00000000E+00
					 0.00000000E+00	 0.00000000E+00	 0.00000000E+00
					 0.00000000E+00	 0.00000000E+00	 0.00000000E+00
					 0.00000000E+00	 0.00000000E+00	 0.00000000E+00
					 0.00000000E+00	 0.00000000E+00	 0.00000000E+00
					 0.00000000E+00	 0.00000000E+00	 0.00000000E+00
					 0.00000000E+00	 0.00000000E+00	 0.00000000E+00
					 0.00000000E+00	 0.00000000E+00	 0.00000000E+00
					 0.00000000E+00	 0.00000000E+00	 0.00000000E+00
					 0.00000000E+00	 0.00000000E+00	 0.00000000E+00
					 0.00000000E+00	 0.00000000E+00	 0.00000000E+00
					 0.00000000E+00	 0.00000000E+00	 0.00000000E+00
					 0.00000000E+00	 0.00000000E+00	 0.00000000E+00
					 0.00000000E+00	 0.00000000E+00	 0.00000000E+00
					 0.00000000E+00	 0.00000000E+00	 0.00000000E+00
					 0.00000000E+00	 0.00000000E+00	 0.00000000E+00
					 0.00000000E+00	 0.00000000E+00	 0.00000000E+00
					 0.00000000E+00	 0.00000000E+00	 0.00000000E+00
					 0.00000000E+00	 0.00000000E+00	 0.00000000E+00
					 0.00000000E+00	 0.00000000E+00	 0.00000000E+00
					 0.00000000E+00	 0.00000000E+00	 0.00000000E+00
					 0.00000000E+00	 0.00000000E+00	 0.00000000E+00
					 0.00000000E+00	 0.00000000E+00	 0.00000000E+00
					 0.00000000E+00	 0.00000000E+00	 0.00000000E+00
					 0.00000000E+00	 0.00000000E+00	 0.00000000E+00
					 0.00000000E+00	 0.00000000E+00	 0.00000000E+00
					 0.00000000E+00	 0.00000000E+00	 0.00000000E+00
					 0.00000000E+00	 0.00000000E+00	 0.00000000E+00
					 0.00000000E+00	 0.00000000E+00	 0.00000000E+00
					 0.00000000E+00	 0.00000000E+00	 0.00000000E+00
					 0.00000000E+00	 0.00000000E+00	 0.00000000E+00
					 0.00000000E+00	 0.00000000E+00	 0.00000000E+00
					 0.00000000E+00	 0.00000000E+00	 0.00000000E+00
					 0.00000000E+00	 0.00000000E+00	 0.00000000E+00
					 0.00000000E+00	 0.00000000E+00	 0.00000000E+00
					 0.00000000E+00	 0.00000000E+00	 0.00000000E+00
					 0.00000000E+00	 0.00000000E+00	 0.00000000E+00
					 0.00000000E+00	 0.00000000E+00	 0.00000000E+00
					 0.00000000E+00	 0.00000000E+00	 0.00000000E+00
					 0.00000000E+00	 0.00000000E+00	 0.00000000E+00
					 0.00000000E+00	 0.00000000E+00	 0.00000000E+00
					 0.00000000E+00	 0.00000000E+00	 0.00000000E+00
					 0.00000000E+00	 0.00000000E+00	 0.00000000E+00
					 0.00000000E+00	 0.00000000E+00	 0.00000000E+00
				</DataArray>
			</PointData>
		</Piece>
	</UnstructuredGrid>
</VTKFile>