# vtk DataFile Version 3.0

ASCII
DATASET UNSTRUCTURED_GRID

POINTS 88 double
	 0.00000000E+00	 0.00000000E+00	 0.00000000E+00
	 1.25000000E+00	 0.00000000E+00	 7.65379000E-17
	 1.25000000E+00	 1.50000000E+00	 7.65379000E-17
	 0.00000000E+00	 1.50000000E+00	 0.00000000E+00
	 2.50000000E+00	 0.00000000E+00	 1.53076000E-16
	 2.50000000E+00	 1.50000000E+00	 1.53076000E-16
	 1.25000000E+00	 3.00000000E+00	 7.65379000E-17
	 0.00000000E+00	 3.00000000E+00	 0.00000000E+00
	 2.50000000E+00	 3.00000000E+00	 1.53076000E-16
	 1.25000000E+00	 4.50000000E+00	 7.65379000E-17
	 0.00000000E+00	 4.50000000E+00	 0.00000000E+00
	 2.50000000E+00	 4.50000000E+00	 1.53076000E-16
	 1.25000000E+00	 6.00000000E+00	 7.65379000E-17
	 0.00000000E+00	 6.00000000E+00	 0.00000000E+00
	 2.50000000E+00	 6.00000000E+00	 1.53076000E-16
	 1.25000000E+00	 7.50000000E+00	 7.65379000E-17
	 0.00000000E+00	 7.50000000E+00	 0.00000000E+00
	 2.50000000E+00	 7.50000000E+00	 1.53076000E-16
	 1.25000000E+00	 9.00000000E+00	 7.65379000E-17
	 0.00000000E+00	 9.00000000E+00	 0.00000000E+00
	 2.50000000E+00	 9.00000000E+00	 1.53076000E-16
	 1.25000000E+00	 1.05000000E+01	 7.65379000E-17
	 0.00000000E+00	 1.05000000E+01	 0.00000000E+00
	 2.50000000E+00	 1.05000000E+01	 1.53076000E-16
	 1.25000000E+00	 1.20000000E+01	 7.65379000E-17
	 0.00000000E+00	 1.20000000E+01	 0.00000000E+00
	 2.50000000E+00	 1.20000000E+01	 1.53076000E-16
	 1.25000000E+00	 1.35000000E+01	 7.65379000E-17
	 0.00000000E+00	 1.35000000E+01	 0.00000000E+00
	 2.50000000E+00	 1.35000000E+01	 1.53076000E-16
	 1.25000000E+00	 1.50000000E+01	 7.65379000E-17
	 0.00000000E+00	 1.50000000E+01	 0.00000000E+00
	 2.50000000E+00	 1.50000000E+01	 1.53076000E-16
	 4.00000000E+00	 1.81225000E+01	 2.44921000E-16
	 2.00000000E+00	 1.81225000E+01	 1.22461000E-16
	 2.06473000E+00	 1.74072000E+01	 1.26424000E-16
	 3.36906000E+00	 1.74894000E+01	 2.06289000E-16
	 0.00000000E+00	 1.81225000E+01	 0.00000000E+00
	 1.00023000E+00	 1.73768000E+01	 6.12446000E-17
	 1.88669000E+00	 1.66425000E+01	 1.15522000E-16
	 2.89445000E+00	 1.67320000E+01	 1.77228000E-16
	 9.37640000E-01	 1.65979000E+01	 5.74120000E-17
	 0.00000000E+00	 1.65612000E+01	 0.00000000E+00
	 1.64931000E+00	 1.58356000E+01	 1.00988000E-16
	 2.59986000E+00	 1.58882000E+01	 1.59190000E-16
	 8.61742000E-01	 1.58115000E+01	 5.27647000E-17
	 2.00000000E+00	 1.96852000E+01	 1.22461000E-16
	 0.00000000E+00	 1.96852000E+01	 0.00000000E+00
	 4.00000000E+00	 1.96852000E+01	 2.44921000E-16
	 2.00000000E+00	 2.12479000E+01	 1.22461000E-16
	 0.00000000E+00	 2.12479000E+01	 0.00000000E+00
	 4.00000000E+00	 2.12479000E+01	 2.44921000E-16
	 2.00000000E+00	 2.28105000E+01	 1.22461000E-16
	 0.00000000E+00	 2.28105000E+01	 0.00000000E+00
	 4.00000000E+00	 2.28105000E+01	 2.44921000E-16
	 2.00000000E+00	 2.43732000E+01	 1.22461000E-16
	 0.00000000E+00	 2.43732000E+01	 0.00000000E+00
	 4.00000000E+00	 2.43732000E+01	 2.44921000E-16
	 2.00000000E+00	 2.59359000E+01	 1.22461000E-16
	 0.00000000E+00	 2.59359000E+01	 0.00000000E+00
	 4.00000000E+00	 2.59359000E+01	 2.44921000E-16
	 2.00000000E+00	 2.74986000E+01	 1.22461000E-16
	 0.00000000E+00	 2.74986000E+01	 0.00000000E+00
	 4.00000000E+00	 2.74986000E+01	 2.44921000E-16
	 2.00000000E+00	 2.90612000E+01	 1.22461000E-16
	 0.00000000E+00	 2.90612000E+01	 0.00000000E+00
	 4.00000000E+00	 2.90612000E+01	 2.44921000E-16
	 2.00000000E+00	 3.06239000E+01	 1.22461000E-16
	 0.00000000E+00	 3.06239000E+01	 0.00000000E+00
	 4.00000000E+00	 3.06239000E+01	 2.44921000E-16
	 2.00000000E+00	 3.21866000E+01	 1.22461000E-16
	 0.00000000E+00	 3.21866000E+01	 0.00000000E+00
	 4.00000000E+00	 3.21866000E+01	 2.44921000E-16
	 2.00000000E+00	 3.37493000E+01	 1.22461000E-16
	 0.00000000E+00	 3.37493000E+01	 0.00000000E+00
	 4.00000000E+00	 3.37493000E+01	 2.44921000E-16
	 2.00000000E+00	 3.53120000E+01	 1.22461000E-16
	 0.00000000E+00	 3.53120000E+01	 0.00000000E+00
	 4.00000000E+00	 3.53120000E+01	 2.44921000E-16
	 2.00000000E+00	 3.68746000E+01	 1.22461000E-16
	 0.00000000E+00	 3.68746000E+01	 0.00000000E+00
	 4.00000000E+00	 3.68746000E+01	 2.44921000E-16
	 2.00000000E+00	 3.84373000E+01	 1.22461000E-16
	 0.00000000E+00	 3.84373000E+01	 0.00000000E+00
	 4.00000000E+00	 3.84373000E+01	 2.44921000E-16
	 2.00000000E+00	 4.00000000E+01	 1.22461000E-16
	 0.00000000E+00	 4.00000000E+01	 0.00000000E+00
	 4.00000000E+00	 4.00000000E+01	 2.44921000E-16

CELLS 58 290
	4 0 1 2 3 
	4 1 4 5 2 
	4 3 2 6 7 
	4 2 5 8 6 
	4 7 6 9 10 
	4 6 8 11 9 
	4 10 9 12 13 
	4 9 11 14 12 
	4 13 12 15 16 
	4 12 14 17 15 
	4 16 15 18 19 
	4 15 17 20 18 
	4 19 18 21 22 
	4 18 20 23 21 
	4 22 21 24 25 
	4 21 23 26 24 
	4 25 24 27 28 
	4 24 26 29 27 
	4 28 27 30 31 
	4 27 29 32 30 
	4 33 34 35 36 
	4 34 37 38 35 
	4 36 35 39 40 
	4 35 38 41 39 
	4 38 37 42 41 
	4 40 39 43 44 
	4 39 41 45 43 
	4 41 42 31 45 
	4 44 43 30 32 
	4 43 45 31 30 
	4 37 34 46 47 
	4 34 33 48 46 
	4 47 46 49 50 
	4 46 48 51 49 
	4 50 49 52 53 
	4 49 51 54 52 
	4 53 52 55 56 
	4 52 54 57 55 
	4 56 55 58 59 
	4 55 57 60 58 
	4 59 58 61 62 
	4 58 60 63 61 
	4 62 61 64 65 
	4 61 63 66 64 
	4 65 64 67 68 
	4 64 66 69 67 
	4 68 67 70 71 
	4 67 69 72 70 
	4 71 70 73 74 
	4 70 72 75 73 
	4 74 73 76 77 
	4 73 75 78 76 
	4 77 76 79 80 
	4 76 78 81 79 
	4 80 79 82 83 
	4 79 81 84 82 
	4 83 82 85 86 
	4 82 84 87 85 

CELL_TYPES 58
	9
	9
	9
	9
	9
	9
	9
	9
	9
	9
	9
	9
	9
	9
	9
	9
	9
	9
	9
	9
	9
	9
	9
	9
	9
	9
	9
	9
	9
	9
	9
	9
	9
	9
	9
	9
	9
	9
	9
	9
	9
	9
	9
	9
	9
	9
	9
	9
	9
	9
	9
	9
	9
	9
	9
	9
	9
	9

POINT_DATA 88
FIELD U 1
	U 3 88 double
		-3.85029000E-06	 0.00000000E+00	 0.00000000E+00
		-1.09126000E-03	 0.00000000E+00	 0.00000000E+00
		-1.09123000E-03	 4.22705000E-03	 0.00000000E+00
		-4.26581000E-06	 4.24781000E-03	 0.00000000E+00
		-2.18036000E-03	 0.00000000E+00	 0.00000000E+00
		-2.18031000E-03	 4.22661000E-03	 0.00000000E+00
		-1.09112000E-03	 8.45395000E-03	 0.00000000E+00
		-5.61784000E-06	 8.49721000E-03	 0.00000000E+00
		-2.18013000E-03	 8.45293000E-03	 0.00000000E+00
		-1.09085000E-03	 1.26805000E-02	 0.00000000E+00
		-8.25193000E-06	 1.27499000E-02	 0.00000000E+00
		-2.17977000E-03	 1.26786000E-02	 0.00000000E+00
		-1.09026000E-03	 1.69066000E-02	 0.00000000E+00
		-1.28501000E-05	 1.70080000E-02	 0.00000000E+00
		-2.17909000E-03	 1.69033000E-02	 0.00000000E+00
		-1.08909000E-03	 2.11318000E-02	 0.00000000E+00
		-2.06254000E-05	 2.12737000E-02	 0.00000000E+00
		-2.17787000E-03	 2.11260000E-02	 0.00000000E+00
		-1.08683000E-03	 2.53560000E-02	 0.00000000E+00
		-3.36613000E-05	 2.55503000E-02	 0.00000000E+00
		-2.17573000E-03	 2.53457000E-02	 0.00000000E+00
		-1.08287000E-03	 2.95788000E-02	 0.00000000E+00
		-5.57060000E-05	 2.98419000E-02	 0.00000000E+00
		-2.17201000E-03	 2.95602000E-02	 0.00000000E+00
		-1.07389000E-03	 3.37992000E-02	 0.00000000E+00
		-9.08441000E-05	 3.41530000E-02	 0.00000000E+00
		-2.16274000E-03	 3.37653000E-02	 0.00000000E+00
		-1.08091000E-03	 3.80188000E-02	 0.00000000E+00
		-1.73817000E-04	 3.84941000E-02	 0.00000000E+00
		-2.14598000E-03	 3.79485000E-02	 0.00000000E+00
		-7.59172000E-04	 4.20792000E-02	 0.00000000E+00
		 3.45827000E-05	 4.27061000E-02	 0.00000000E+00
		-1.72490000E-03	 4.20634000E-02	 0.00000000E+00
		-1.33695000E-03	 4.88776000E-02	 0.00000000E+00
		-8.34576000E-04	 4.81025000E-02	 0.00000000E+00
		-1.07323000E-03	 4.69739000E-02	 0.00000000E+00
		-1.28099000E-03	 4.83179000E-02	 0.00000000E+00
		-3.12963000E-04	 4.77516000E-02	 0.00000000E+00
		-5.83924000E-04	 4.71621000E-02	 0.00000000E+00
		-1.04149000E-03	 4.55231000E-02	 0.00000000E+00
		-1.42073000E-03	 4.68765000E-02	 0.00000000E+00
		-4.13579000E-04	 4.52742000E-02	 0.00000000E+00
		-6.71559000E-05	 4.52298000E-02	 0.00000000E+00
		-8.78085000E-04	 4.36911000E-02	 0.00000000E+00
		-1.53780000E-03	 4.46558000E-02	 0.00000000E+00
		-3.34693000E-04	 4.33634000E-02	 0.00000000E+00
		-4.60512000E-04	 5.00000000E-02	 0.00000000E+00
		-6.57738000E-05	 5.00000000E-02	 0.00000000E+00
		-7.38790000E-04	 5.00000000E-02	 0.00000000E+00
		-9.15623000E-05	 5.00000000E-02	 0.00000000E+00
		 1.58729000E-04	 5.00000000E-02	 0.00000000E+00
		-1.10172000E-04	 5.00000000E-02	 0.00000000E+00
		-3.98759000E-05	 5.00000000E-02	 0.00000000E+00
		 1.10746000E-04	 5.00000000E-02	 0.00000000E+00
		-3.11745000E-05	 5.00000000E-02	 0.00000000E+00
		-2.23687000E-05	 5.00000000E-02	 0.00000000E+00
		 6.76094000E-05	 5.00000000E-02	 0.00000000E+00
		-1.49688000E-05	 5.00000000E-02	 0.00000000E+00
		-1.31981000E-05	 5.00000000E-02	 0.00000000E+00
		 4.04883000E-05	 5.00000000E-02	 0.00000000E+00
		-8.54784000E-06	 5.00000000E-02	 0.00000000E+00
		-7.85838000E-06	 5.00000000E-02	 0.00000000E+00
		 2.41702000E-05	 5.00000000E-02	 0.00000000E+00
		-5.05925000E-06	 5.00000000E-02	 0.00000000E+00
		-4.68778000E-06	 5.00000000E-02	 0.00000000E+00
		 1.44249000E-05	 5.00000000E-02	 0.00000000E+00
		-3.01482000E-06	 5.00000000E-02	 0.00000000E+00
		-2.79952000E-06	 5.00000000E-02	 0.00000000E+00
		 8.61514000E-06	 5.00000000E-02	 0.00000000E+00
		-1.80010000E-06	 5.00000000E-02	 0.00000000E+00
		-1.67587000E-06	 5.00000000E-02	 0.00000000E+00
		 5.15733000E-06	 5.00000000E-02	 0.00000000E+00
		-1.07756000E-06	 5.00000000E-02	 0.00000000E+00
		-1.00983000E-06	 5.00000000E-02	 0.00000000E+00
		 3.10763000E-06	 5.00000000E-02	 0.00000000E+00
		-6.49297000E-07	 5.00000000E-02	 0.00000000E+00
		-6.19502000E-07	 5.00000000E-02	 0.00000000E+00
		 1.90645000E-06	 5.00000000E-02	 0.00000000E+00
		-3.98326000E-07	 5.00000000E-02	 0.00000000E+00
		-3.98328000E-07	 5.00000000E-02	 0.00000000E+00
		 1.22581000E-06	 5.00000000E-02	 0.00000000E+00
		-2.56116000E-07	 5.00000000E-02	 0.00000000E+00
		-2.85915000E-07	 5.00000000E-02	 0.00000000E+00
		 8.79874000E-07	 5.00000000E-02	 0.00000000E+00
		-1.83837000E-07	 5.00000000E-02	 0.00000000E+00
		-2.51570000E-07	 5.00000000E-02	 0.00000000E+00
		 7.74181000E-07	 5.00000000E-02	 0.00000000E+00
		-1.61754000E-07	 5.00000000E-02	 0.00000000E+00
FIELD S 1
	S 10 88 double
		 5.48798000E-01	 5.38490000E+02	-3.95504000E-01	-6.09427000E-01	 0.00000000E+00	 0.00000000E+00	 5.38415009E+02	-3.95504000E-01	 5.48107589E-01	 5.38490690E+02
		 2.92861000E-01	 5.37996000E+02	-2.63177000E-01	-3.10201000E-01	 0.00000000E+00	 0.00000000E+00	 5.37981642E+02	-2.63177000E-01	 2.92682045E-01	 5.37996179E+02
		 3.31764000E-01	 5.38011000E+02	-2.75161000E-01	-6.34004000E-01	 0.00000000E+00	 0.00000000E+00	 5.37984076E+02	-2.75161000E-01	 3.31016416E-01	 5.38011748E+02
		 6.27961000E-01	 5.38534000E+02	-4.19167000E-01	-1.24478000E+00	 0.00000000E+00	 0.00000000E+00	 5.38434683E+02	-4.19167000E-01	 6.25080443E-01	 5.38536881E+02
		 3.69233000E-02	 5.37503000E+02	-1.30851000E-01	-1.09755000E-02	 0.00000000E+00	 0.00000000E+00	 5.37549984E+02	-1.30851000E-01	 3.69230759E-02	 5.37503000E+02
		 3.55678000E-02	 5.37488000E+02	-1.31155000E-01	-2.32303000E-02	 0.00000000E+00	 0.00000000E+00	 5.37535814E+02	-1.31155000E-01	 3.55667959E-02	 5.37488001E+02
		 4.59041000E-01	 5.38058000E+02	-3.12526000E-01	-1.32377000E+00	 0.00000000E+00	 0.00000000E+00	 5.37990043E+02	-3.12526000E-01	 4.55781402E-01	 5.38061260E+02
		 8.87580000E-01	 5.38674000E+02	-4.94264000E-01	-2.59549000E+00	 0.00000000E+00	 0.00000000E+00	 5.38497437E+02	-4.94264000E-01	 8.75053816E-01	 5.38686526E+02
		 3.05025000E-02	 5.37442000E+02	-1.30789000E-01	-5.20404000E-02	 0.00000000E+00	 0.00000000E+00	 5.37492169E+02	-1.30789000E-01	 3.04974607E-02	 5.37442005E+02
		 7.09288000E-01	 5.38145000E+02	-3.79890000E-01	-2.13069000E+00	 0.00000000E+00	 0.00000000E+00	 5.37993786E+02	-3.79890000E-01	 7.00840909E-01	 5.38153447E+02
		 1.40024000E+00	 5.38935000E+02	-6.34221000E-01	-4.16726000E+00	 0.00000000E+00	 0.00000000E+00	 5.38603239E+02	-6.34221000E-01	 1.36793509E+00	 5.38967305E+02
		 1.83339000E-02	 5.37354000E+02	-1.25560000E-01	-9.41134000E-02	 0.00000000E+00	 0.00000000E+00	 5.37407652E+02	-1.25560000E-01	 1.83174162E-02	 5.37354016E+02
		 1.15064000E+00	 5.38288000E+02	-4.86497000E-01	-3.12854000E+00	 0.00000000E+00	 0.00000000E+00	 5.37985088E+02	-4.86497000E-01	 1.13241853E+00	 5.38306221E+02
		 2.30931000E+00	 5.39365000E+02	-8.65692000E-01	-6.09452000E+00	 0.00000000E+00	 0.00000000E+00	 5.38753633E+02	-8.65692000E-01	 2.24015815E+00	 5.39434152E+02
		-8.03648000E-03	 5.37211000E+02	-1.07301000E-01	-1.62563000E-01	 0.00000000E+00	 0.00000000E+00	 5.37268749E+02	-1.07301000E-01	-8.08567172E-03	 5.37211049E+02
		 1.90396000E+00	 5.38515000E+02	-6.48692000E-01	-4.41240000E+00	 0.00000000E+00	 0.00000000E+00	 5.37946199E+02	-6.48692000E-01	 1.86768054E+00	 5.38551279E+02
		 3.86963000E+00	 5.40047000E+02	-1.23584000E+00	-8.54274000E+00	 0.00000000E+00	 0.00000000E+00	 5.38951399E+02	-1.23584000E+00	 3.73355583E+00	 5.40183074E+02
		-6.17090000E-02	 5.36983000E+02	-6.15432000E-02	-2.82065000E-01	 0.00000000E+00	 0.00000000E+00	 5.37044848E+02	-6.18571453E-02	-6.15432000E-02	 5.36983148E+02
		 3.17783000E+00	 5.38872000E+02	-9.02852000E-01	-6.11655000E+00	 0.00000000E+00	 0.00000000E+00	 5.37850472E+02	-9.02852000E-01	 3.10800040E+00	 5.38941830E+02
		 6.51400000E+00	 5.41121000E+02	-1.84284000E+00	-1.17280000E+01	 0.00000000E+00	 0.00000000E+00	 5.39216788E+02	-1.84284000E+00	 6.25683941E+00	 5.41378161E+02
		-1.58332000E-01	 5.36624000E+02	 3.71336000E-02	-5.05154000E-01	 0.00000000E+00	 0.00000000E+00	 5.36685339E+02	-1.58807389E-01	 3.71336000E-02	 5.36624475E+02
		 5.38327000E+00	 5.39439000E+02	-1.19215000E+00	-8.37370000E+00	 0.00000000E+00	 0.00000000E+00	 5.37569304E+02	-1.19215000E+00	 5.25200725E+00	 5.39570263E+02
		 1.10270000E+01	 5.42824000E+02	-2.69687000E+00	-1.58796000E+01	 0.00000000E+00	 0.00000000E+00	 5.39491605E+02	-2.69687000E+00	 1.05532530E+01	 5.43297747E+02
		-2.60489000E-01	 5.36054000E+02	 3.12575000E-01	-8.67825000E-01	 0.00000000E+00	 0.00000000E+00	 5.36030294E+02	-2.61893247E-01	 3.12575000E-01	 5.36055404E+02
		 9.26789000E+00	 5.40091000E+02	-2.49521000E+00	-1.19327000E+01	 0.00000000E+00	 0.00000000E+00	 5.37199067E+02	-2.49521000E+00	 8.99978289E+00	 5.40359107E+02
		 1.78349000E+01	 5.44787000E+02	-6.08595000E+00	-2.19570000E+01	 0.00000000E+00	 0.00000000E+00	 5.40649789E+02	-6.08595000E+00	 1.69215804E+01	 5.45700320E+02
		 7.00895000E-01	 5.35395000E+02	 1.09553000E+00	-1.90853000E+00	 0.00000000E+00	 0.00000000E+00	 5.34507119E+02	 6.94082805E-01	 1.09553000E+00	 5.35401812E+02
		 2.31891000E+01	 5.40977000E+02	 1.32809000E+01	-7.71059000E+00	 0.00000000E+00	 0.00000000E+00	 5.22982971E+02	 1.32809000E+01	 2.30743039E+01	 5.41091796E+02
		 3.64505000E+01	 5.47546000E+02	 1.29551000E+01	-2.19685000E+01	 0.00000000E+00	 0.00000000E+00	 5.24620703E+02	 1.29551000E+01	 3.55079626E+01	 5.48488537E+02
		 9.92774000E+00	 5.34409000E+02	 1.36068000E+01	 6.54731000E+00	 0.00000000E+00	 0.00000000E+00	 5.22774456E+02	 9.84602004E+00	 1.36068000E+01	 5.34490720E+02
		 7.55255000E+00	 4.55850000E+02	 1.52428000E+01	 1.26565000E+01	 0.00000000E+00	 0.00000000E+00	 4.45042453E+02	 7.19551135E+00	 1.52428000E+01	 4.56207039E+02
		 3.13089000E+01	 4.22940000E+02	 2.92865000E+01	-1.93781000E+01	 0.00000000E+00	 0.00000000E+00	 3.94078134E+02	 2.92865000E+01	 3.03523982E+01	 4.23896502E+02
		 1.52575000E+01	 5.00571000E+02	 2.83322000E+01	 3.12995000E+01	 0.00000000E+00	 0.00000000E+00	 4.81968660E+02	 1.32472170E+01	 2.83322000E+01	 5.02581283E+02
		 1.57027000E+01	 1.82150000E+02	-3.18647000E+00	 4.90465000E+01	 0.00000000E+00	 0.00000000E+00	 1.96015901E+02	-3.18647000E+00	 2.32544378E+00	 1.95527256E+02
		 1.74161000E+01	 2.14639000E+02	-6.88853000E+00	 3.30910000E+01	 0.00000000E+00	 0.00000000E+00	 2.18096446E+02	-6.88853000E+00	 1.20120110E+01	 2.20043089E+02
		 2.23226000E+01	 2.82885000E+02	 1.48074000E+00	 3.96321000E+01	 0.00000000E+00	 0.00000000E+00	 2.80124727E+02	 1.48074000E+00	 1.64278314E+01	 2.88779769E+02
		 2.42566000E+01	 2.31791000E+02	-3.22095000E+00	 7.60607000E+01	 0.00000000E+00	 0.00000000E+00	 2.58618967E+02	-3.22095000E+00	-6.34125836E-01	 2.56681726E+02
		 2.80767000E+01	 2.95822000E+02	-1.01240000E+01	 1.82822000E+01	 0.00000000E+00	 0.00000000E+00	 2.90478250E+02	-1.01240000E+01	 2.68341205E+01	 2.97064580E+02
		 2.89161000E+01	 3.53722000E+02	 1.05803000E+00	 8.99422000E+00	 0.00000000E+00	 0.00000000E+00	 3.39950141E+02	 1.05803000E+00	 2.86672312E+01	 3.53970869E+02
		 4.23992000E+01	 4.07651000E+02	 4.20916000E+01	 4.70368000E+01	 0.00000000E+00	 0.00000000E+00	 3.74377757E+02	 3.64390987E+01	 4.20916000E+01	 4.13611101E+02
		 4.50337000E+01	 3.63447000E+02	 3.01257000E+01	 8.90171000E+01	 0.00000000E+00	 0.00000000E+00	 3.60733026E+02	 2.18374950E+01	 3.01257000E+01	 3.86643205E+02
		 5.49329000E+01	 4.35870000E+02	 4.56192000E+01	-3.86818000E+00	 0.00000000E+00	 0.00000000E+00	 3.85736492E+02	 4.56192000E+01	 5.48936251E+01	 4.35909275E+02
		 7.01012000E+01	 4.19886000E+02	 3.71809000E+01	-1.27928000E+01	 0.00000000E+00	 0.00000000E+00	 3.68020570E+02	 3.71809000E+01	 6.96339487E+01	 4.20353251E+02
		 1.04172000E+01	 4.10539000E+02	 2.65583000E+01	 3.89457000E+01	 0.00000000E+00	 0.00000000E+00	 3.98057642E+02	 6.66168443E+00	 2.65583000E+01	 4.14294516E+02
		 2.94164000E+01	 4.51637000E+02	 3.87243000E+01	 6.67001000E+01	 0.00000000E+00	 0.00000000E+00	 4.33328507E+02	 1.91300828E+01	 3.87243000E+01	 4.61923317E+02
		 2.56892000E+01	 3.95148000E+02	 3.74457000E+01	-7.92630000E+00	 0.00000000E+00	 0.00000000E+00	 3.63982083E+02	 2.55192288E+01	 3.74457000E+01	 3.95317971E+02
		-5.16179000E+00	 1.00047000E+02	-1.50397000E+01	 2.45417000E+01	 0.00000000E+00	 0.00000000E+00	 1.18374789E+02	-1.50397000E+01	-1.06049394E+01	 1.05490149E+02
		-6.79907000E+00	 1.15581000E+02	-1.72004000E+01	 1.84203000E+01	 0.00000000E+00	 0.00000000E+00	 1.31817704E+02	-1.72004000E+01	-9.51152193E+00	 1.18293452E+02
		-3.52452000E+00	 8.45129000E+01	-1.28790000E+01	 3.06631000E+01	 0.00000000E+00	 0.00000000E+00	 1.07155565E+02	-1.31516163E+01	-1.28790000E+01	 9.41399963E+01
		-2.89231000E+01	-1.65938000E+01	-2.46078000E+01	 1.07257000E+01	 0.00000000E+00	 0.00000000E+00	 2.15069930E+01	-3.51295272E+01	-2.46078000E+01	-1.03873728E+01
		-3.93967000E+01	-2.03279000E+01	-2.61836000E+01	 7.91702000E+00	 0.00000000E+00	 0.00000000E+00	 2.17780807E+01	-4.22552008E+01	-2.61836000E+01	-1.74693992E+01
		-1.84495000E+01	-1.28597000E+01	-2.30321000E+01	 1.35343000E+01	 0.00000000E+00	 0.00000000E+00	 2.50478289E+01	-2.94744677E+01	-2.30321000E+01	-1.83473233E+00
		-9.56959000E+00	-3.77907000E+00	-2.62058000E+00	 1.15933000E+00	 0.00000000E+00	 0.00000000E+00	 6.75371147E+00	-9.79307598E+00	-3.55558402E+00	-2.62058000E+00
		-1.74548000E+01	-5.76084000E+00	-1.12780000E+00	 3.67559000E-01	 0.00000000E+00	 0.00000000E+00	 1.45875852E+01	-1.74663415E+01	-5.74929845E+00	-1.12780000E+00
		-1.68435000E+00	-1.79731000E+00	-4.11336000E+00	 1.95110000E+00	 0.00000000E+00	 0.00000000E+00	 4.13023513E+00	-4.11336000E+00	-3.69274731E+00	 2.11087314E-01
		-4.90603000E+00	-1.66036000E+00	-4.49772000E-01	 2.19181000E-01	 0.00000000E+00	 0.00000000E+00	 4.00913795E+00	-4.92076446E+00	-1.64562554E+00	-4.49772000E-01
		-9.91370000E+00	-2.90922000E+00	 5.29514000E-01	-1.31420000E-01	 0.00000000E+00	 0.00000000E+00	 9.22095379E+00	-9.91616487E+00	-2.90675513E+00	 5.29514000E-01
		 1.01652000E-01	-4.11501000E-01	-1.42906000E+00	 5.69782000E-01	 0.00000000E+00	 0.00000000E+00	 1.67178658E+00	-1.42906000E+00	-7.79810912E-01	 4.69961912E-01
		-2.84227000E+00	-9.29409000E-01	-1.55744000E-01	 8.33669000E-02	 0.00000000E+00	 0.00000000E+00	 2.39965799E+00	-2.84589645E+00	-9.25782553E-01	-1.55744000E-01
		-5.86526000E+00	-1.68410000E+00	 4.32837000E-01	-1.12109000E-01	 0.00000000E+00	 0.00000000E+00	 5.55450077E+00	-5.86826381E+00	-1.68109619E+00	 4.32837000E-01
		 1.80719000E-01	-1.74720000E-01	-7.44326000E-01	 2.78843000E-01	 0.00000000E+00	 0.00000000E+00	 9.41545708E-01	-7.44326000E-01	-3.27662925E-01	 3.33661925E-01
		-1.68673000E+00	-5.48072000E-01	-8.12135000E-02	 4.48081000E-02	 0.00000000E+00	 0.00000000E+00	 1.43252028E+00	-1.68849055E+00	-5.46311448E-01	-8.12135000E-02
		-3.49402000E+00	-9.99391000E-01	 2.70230000E-01	-7.03103000E-02	 0.00000000E+00	 0.00000000E+00	 3.31921306E+00	-3.49600010E+00	-9.97410899E-01	 2.70230000E-01
		 1.20552000E-01	-9.67531000E-02	-4.32657000E-01	 1.59926000E-01	 0.00000000E+00	 0.00000000E+00	 5.56574832E-01	-4.32657000E-01	-1.81444032E-01	 2.05242932E-01
		-1.00560000E+00	-3.26382000E-01	-4.72389000E-02	 2.62009000E-02	 0.00000000E+00	 0.00000000E+00	 8.54936513E-01	-1.00660920E+00	-3.25372797E-01	-4.72389000E-02
		-2.08447000E+00	-5.95816000E-01	 1.62507000E-01	-4.22771000E-02	 0.00000000E+00	 0.00000000E+00	 1.98125898E+00	-2.08566968E+00	-5.94616316E-01	 1.62507000E-01
		 7.32812000E-02	-5.69484000E-02	-2.56985000E-01	 9.46790000E-02	 0.00000000E+00	 0.00000000E+00	 3.31537955E-01	-2.56985000E-01	-1.06742478E-01	 1.23075278E-01
		-6.00474000E-01	-1.94854000E-01	-2.80848000E-02	 1.55539000E-02	 0.00000000E+00	 0.00000000E+00	 5.10597929E-01	-6.01069555E-01	-1.94258445E-01	-2.80848000E-02
		-1.24485000E+00	-3.55780000E-01	 9.71842000E-02	-2.52208000E-02	 0.00000000E+00	 0.00000000E+00	 1.18332040E+00	-1.24556488E+00	-3.55065121E-01	 9.71842000E-02
		 4.39072000E-02	-3.39286000E-02	-1.53354000E-01	 5.63286000E-02	 0.00000000E+00	 0.00000000E+00	 1.97826042E-01	-1.53354000E-01	-6.34761228E-02	 7.34547228E-02
		-3.59453000E-01	-1.16639000E-01	-1.67995000E-02	 9.23756000E-03	 0.00000000E+00	 0.00000000E+00	 3.05655018E-01	-3.59803924E-01	-1.16288076E-01	-1.67995000E-02
		-7.45206000E-01	-2.12975000E-01	 5.81910000E-02	-1.49915000E-02	 0.00000000E+00	 0.00000000E+00	 7.08377035E-01	-7.45627935E-01	-2.12553065E-01	 5.81910000E-02
		 2.62992000E-02	-2.03021000E-02	-9.17899000E-02	 3.34666000E-02	 0.00000000E+00	 0.00000000E+00	 1.18210199E-01	-9.17899000E-02	-3.77805329E-02	 4.37776329E-02
		-2.16593000E-01	-7.02818000E-02	-1.01216000E-02	 5.45204000E-03	 0.00000000E+00	 0.00000000E+00	 1.84167050E-01	-2.16795880E-01	-7.00789202E-02	-1.01216000E-02
		-4.49036000E-01	-1.28331000E-01	 3.50652000E-02	-8.84919000E-03	 0.00000000E+00	 0.00000000E+00	 4.26833595E-01	-4.49279989E-01	-1.28087011E-01	 3.50652000E-02
		 1.58486000E-02	-1.22325000E-02	-5.53083000E-02	 1.97533000E-02	 0.00000000E+00	 0.00000000E+00	 7.08820651E-02	-5.53083000E-02	-2.24268402E-02	 2.60429402E-02
		-1.32874000E-01	-4.31159000E-02	-6.20923000E-03	 3.15596000E-03	 0.00000000E+00	 0.00000000E+00	 1.12965356E-01	-1.32984829E-01	-4.30050710E-02	-6.20923000E-03
		-2.75471000E-01	-7.87276000E-02	 2.15116000E-02	-5.12251000E-03	 0.00000000E+00	 0.00000000E+00	 2.61831977E-01	-2.75604282E-01	-7.85943180E-02	 2.15116000E-02
		 9.72286000E-03	-7.50424000E-03	-3.39301000E-02	 1.14344000E-02	 0.00000000E+00	 0.00000000E+00	 4.29252431E-02	-3.39301000E-02	-1.32063719E-02	 1.54249919E-02
		-8.54356000E-02	-2.77227000E-02	-3.99243000E-03	 1.72165000E-03	 0.00000000E+00	 0.00000000E+00	 7.26108771E-02	-8.54869134E-02	-2.76713866E-02	-3.99243000E-03
		-1.77123000E-01	-5.06204000E-02	 1.38315000E-02	-2.79445000E-03	 0.00000000E+00	 0.00000000E+00	 1.68326216E-01	-1.77184699E-01	-5.05587005E-02	 1.38315000E-02
		 6.25163000E-03	-4.82508000E-03	-2.18164000E-02	 6.23775000E-03	 0.00000000E+00	 0.00000000E+00	 2.67644346E-02	-2.18164000E-02	-7.62836160E-03	 9.05491160E-03
		-6.13247000E-02	-1.98990000E-02	-2.86573000E-03	 7.57423000E-04	 0.00000000E+00	 0.00000000E+00	 5.20918142E-02	-6.13385440E-02	-1.98851560E-02	-2.86573000E-03
		-1.27137000E-01	-3.63347000E-02	 9.92811000E-03	-1.22938000E-03	 0.00000000E+00	 0.00000000E+00	 1.20791593E-01	-1.27153642E-01	-3.63180584E-02	 9.92811000E-03
		 4.48735000E-03	-3.46339000E-03	-1.56596000E-02	 2.74423000E-03	 0.00000000E+00	 0.00000000E+00	 1.82077757E-02	-1.56596000E-02	-4.31858569E-03	 5.34254569E-03
		-5.39582000E-02	-1.75087000E-02	-2.52149000E-03	 3.54513000E-04	 0.00000000E+00	 0.00000000E+00	 4.58239660E-02	-5.39616477E-02	-1.75052523E-02	-2.52149000E-03
		-1.11865000E-01	-3.19701000E-02	 8.73551000E-03	-5.75414000E-04	 0.00000000E+00	 0.00000000E+00	 1.06269966E-01	-1.11869144E-01	-3.19659560E-02	 8.73551000E-03
		 3.94831000E-03	-3.04736000E-03	-1.37785000E-02	 1.28444000E-03	 0.00000000E+00	 0.00000000E+00	 1.56242644E-02	-1.37785000E-02	-3.27573431E-03	 4.17668431E-03
FIELD E 1
	E 10 88 double
		-8.69506000E-04	 2.82663000E-03	-8.75995000E-04	-4.20250000E-06	 0.00000000E+00	 0.00000000E+00	 2.46626129E-03	-8.75995000E-04	-8.69510778E-04	 2.82663478E-03
		-8.70264000E-04	 2.82424000E-03	-8.74084000E-04	-2.13914000E-06	 0.00000000E+00	 0.00000000E+00	 2.46427822E-03	-8.74084000E-04	-8.70265239E-04	 2.82424124E-03
		-8.70064000E-04	 2.82427000E-03	-8.74235000E-04	-4.37209000E-06	 0.00000000E+00	 0.00000000E+00	 2.46428601E-03	-8.74235000E-04	-8.70069174E-04	 2.82427517E-03
		-8.69125000E-04	 2.82677000E-03	-8.76320000E-04	-8.58374000E-06	 0.00000000E+00	 0.00000000E+00	 2.46635175E-03	-8.76320000E-04	-8.69144936E-04	 2.82678994E-03
		-8.71021000E-04	 2.82184000E-03	-8.72174000E-04	-7.57927000E-08	 0.00000000E+00	 0.00000000E+00	 2.46229176E-03	-8.72174000E-04	-8.71021002E-04	 2.82184000E-03
		-8.71004000E-04	 2.82177000E-03	-8.72150000E-04	-1.60435000E-07	 0.00000000E+00	 0.00000000E+00	 2.46223143E-03	-8.72150000E-04	-8.71004007E-04	 2.82177001E-03
		-8.69412000E-04	 2.82437000E-03	-8.74714000E-04	-9.12871000E-06	 0.00000000E+00	 0.00000000E+00	 2.46431311E-03	-8.74714000E-04	-8.69434560E-04	 2.82439256E-03
		-8.67870000E-04	 2.82721000E-03	-8.77365000E-04	-1.78980000E-05	 0.00000000E+00	 0.00000000E+00	 2.46664434E-03	-8.77365000E-04	-8.67956691E-04	 2.82729669E-03
		-8.70955000E-04	 2.82153000E-03	-8.72063000E-04	-3.59463000E-07	 0.00000000E+00	 0.00000000E+00	 2.46202612E-03	-8.72063000E-04	-8.70955035E-04	 2.82153003E-03
		-8.68132000E-04	 2.82453000E-03	-8.75617000E-04	-1.46933000E-05	 0.00000000E+00	 0.00000000E+00	 2.46433186E-03	-8.75617000E-04	-8.68190465E-04	 2.82458846E-03
		-8.65378000E-04	 2.82798000E-03	-8.79359000E-04	-2.87364000E-05	 0.00000000E+00	 0.00000000E+00	 2.46713536E-03	-8.79359000E-04	-8.65601572E-04	 2.82820357E-03
		-8.70886000E-04	 2.82108000E-03	-8.71875000E-04	-6.50214000E-07	 0.00000000E+00	 0.00000000E+00	 2.46164051E-03	-8.71875000E-04	-8.70886115E-04	 2.82108011E-03
		-8.65878000E-04	 2.82474000E-03	-8.77128000E-04	-2.15747000E-05	 0.00000000E+00	 0.00000000E+00	 2.46429649E-03	-8.77128000E-04	-8.66004118E-04	 2.82486612E-03
		-8.60934000E-04	 2.82914000E-03	-8.82753000E-04	-4.20260000E-05	 0.00000000E+00	 0.00000000E+00	 2.46783166E-03	-8.82753000E-04	-8.61412569E-04	 2.82961857E-03
		-8.70822000E-04	 2.82034000E-03	-8.71504000E-04	-1.12334000E-06	 0.00000000E+00	 0.00000000E+00	 2.46100237E-03	-8.71504000E-04	-8.70822342E-04	 2.82034034E-03
		-8.62034000E-04	 2.82497000E-03	-8.79577000E-04	-3.04285000E-05	 0.00000000E+00	 0.00000000E+00	 2.46412166E-03	-8.79577000E-04	-8.62285106E-04	 2.82522111E-03
		-8.53260000E-04	 2.83079000E-03	-8.88347000E-04	-5.89076000E-05	 0.00000000E+00	 0.00000000E+00	 2.46874940E-03	-8.88347000E-04	-8.54201686E-04	 2.83173169E-03
		-8.70809000E-04	 2.81915000E-03	-8.70807000E-04	-1.94936000E-06	 0.00000000E+00	 0.00000000E+00	 2.45997303E-03	-8.70810030E-04	-8.70807000E-04	 2.81915103E-03
		-8.55525000E-04	 2.82520000E-03	-8.83570000E-04	-4.21806000E-05	 0.00000000E+00	 0.00000000E+00	 2.46369971E-03	-8.83570000E-04	-8.56008320E-04	 2.82568332E-03
		-8.40156000E-04	 2.83314000E-03	-8.97589000E-04	-8.08702000E-05	 0.00000000E+00	 0.00000000E+00	 2.46999689E-03	-8.97589000E-04	-8.41935552E-04	 2.83491955E-03
		-8.70894000E-04	 2.81726000E-03	-8.69551000E-04	-3.49104000E-06	 0.00000000E+00	 0.00000000E+00	 2.45832509E-03	-8.70897304E-04	-8.69551000E-04	 2.81726330E-03
		-8.44416000E-04	 2.82506000E-03	-8.89609000E-04	-5.77490000E-05	 0.00000000E+00	 0.00000000E+00	 2.46242302E-03	-8.89609000E-04	-8.45324610E-04	 2.82596861E-03
		-8.17876000E-04	 2.83615000E-03	-9.12199000E-04	-1.09497000E-04	 0.00000000E+00	 0.00000000E+00	 2.47129568E-03	-9.12199000E-04	-8.21154260E-04	 2.83942826E-03
		-8.70957000E-04	 2.81398000E-03	-8.67019000E-04	-6.00059000E-06	 0.00000000E+00	 0.00000000E+00	 2.45532283E-03	-8.70966771E-04	-8.67019000E-04	 2.81398977E-03
		-8.22989000E-04	 2.82430000E-03	-9.03839000E-04	-8.22766000E-05	 0.00000000E+00	 0.00000000E+00	 2.46075376E-03	-9.03839000E-04	-8.24844076E-04	 2.82615508E-03
		-7.79841000E-04	 2.84093000E-03	-9.44251000E-04	-1.51373000E-04	 0.00000000E+00	 0.00000000E+00	 2.47665057E-03	-9.44251000E-04	-7.86158405E-04	 2.84724740E-03
		-8.66138000E-04	 2.80767000E-03	-8.63427000E-04	-1.31802000E-05	 0.00000000E+00	 0.00000000E+00	 2.44834947E-03	-8.66185285E-04	-8.63427000E-04	 2.80771728E-03
		-7.77345000E-04	 2.78072000E-03	-8.45461000E-04	-5.35445000E-05	 0.00000000E+00	 0.00000000E+00	 2.39586946E-03	-8.45461000E-04	-7.78150596E-04	 2.78152560E-03
		-7.17970000E-04	 2.79425000E-03	-8.79497000E-04	-1.51787000E-04	 0.00000000E+00	 0.00000000E+00	 2.40353596E-03	-8.79497000E-04	-7.24517546E-04	 2.80079755E-03
		-8.36721000E-04	 2.76720000E-03	-8.11424000E-04	 4.46980000E-05	 0.00000000E+00	 0.00000000E+00	 2.39478246E-03	-8.37275286E-04	-8.11424000E-04	 2.76775429E-03
		-7.24506000E-04	 2.35534000E-03	-6.71736000E-04	 8.64988000E-05	 0.00000000E+00	 0.00000000E+00	 2.03831725E-03	-7.26933443E-04	-6.71736000E-04	 2.35776744E-03
		-5.69630000E-04	 2.12082000E-03	-5.83674000E-04	-1.33887000E-04	 0.00000000E+00	 0.00000000E+00	 1.80496603E-03	-5.83674000E-04	-5.76276307E-04	 2.12746631E-03
		-7.78025000E-04	 2.55659000E-03	-6.88198000E-04	 2.14893000E-04	 0.00000000E+00	 0.00000000E+00	 2.20773636E-03	-7.91816337E-04	-6.88198000E-04	 2.57038134E-03
		-2.07980000E-04	 9.34223000E-04	-3.37678000E-04	 3.36677000E-04	 0.00000000E+00	 0.00000000E+00	 8.96820288E-04	-3.37678000E-04	-2.99832741E-04	 1.02607574E-03
		-2.45733000E-04	 1.10792000E-03	-4.12579000E-04	 2.27108000E-04	 0.00000000E+00	 0.00000000E+00	 9.97953406E-04	-4.12579000E-04	-2.82819768E-04	 1.14500677E-03