# vtk DataFile Version 3.0

ASCII
DATASET UNSTRUCTURED_GRID

POINTS 88 double
	 0.00000000E+00	 0.00000000E+00	 0.00000000E+00
	 1.25000000E+00	 0.00000000E+00	 7.65379000E-17
	 1.25000000E+00	 1.50000000E+00	 7.65379000E-17
	 0.00000000E+00	 1.50000000E+00	 0.00000000E+00
	 2.50000000E+00	 0.00000000E+00	 1.53076000E-16
	 2.50000000E+00	 1.50000000E+00	 1.53076000E-16
	 1.25000000E+00	 3.00000000E+00	 7.65379000E-17
	 0.00000000E+00	 3.00000000E+00	 0.00000000E+00
	 2.50000000E+00	 3.00000000E+00	 1.53076000E-16
	 1.25000000E+00	 4.50000000E+00	 7.65379000E-17
	 0.00000000E+00	 4.50000000E+00	 0.00000000E+00
	 2.50000000E+00	 4.50000000E+00	 1.53076000E-16
	 1.25000000E+00	 6.00000000E+00	 7.65379000E-17
	 0.00000000E+00	 6.00000000E+00	 0.00000000E+00
	 2.50000000E+00	 6.00000000E+00	 1.53076000E-16
	 1.25000000E+00	 7.50000000E+00	 7.65379000E-17
	 0.00000000E+00	 7.50000000E+00	 0.00000000E+00
	 2.50000000E+00	 7.50000000E+00	 1.53076000E-16
	 1.25000000E+00	 9.00000000E+00	 7.65379000E-17
	 0.00000000E+00	 9.00000000E+00	 0.00000000E+00
	 2.50000000E+00	 9.00000000E+00	 1.53076000E-16
	 1.25000000E+00	 1.05000000E+01	 7.65379000E-17
	 0.00000000E+00	 1.05000000E+01	 0.00000000E+00
	 2.50000000E+00	 1.05000000E+01	 1.53076000E-16
	 1.25000000E+00	 1.20000000E+01	 7.65379000E-17
	 0.00000000E+00	 1.20000000E+01	 0.00000000E+00
	 2.50000000E+00	 1.20000000E+01	 1.53076000E-16
	 1.25000000E+00	 1.35000000E+01	 7.65379000E-17
	 0.00000000E+00	 1.35000000E+01	 0.00000000E+00
	 2.50000000E+00	 1.35000000E+01	 1.53076000E-16
	 1.25000000E+00	 1.50000000E+01	 7.65379000E-17
	 0.00000000E+00	 1.50000000E+01	 0.00000000E+00
	 2.50000000E+00	 1.50000000E+01	 1.53076000E-16
	 4.00000000E+00	 1.81225000E+01	 2.44921000E-16
	 2.00000000E+00	 1.81225000E+01	 1.22461000E-16
	 2.06473000E+00	 1.74072000E+01	 1.26424000E-16
	 3.36906000E+00	 1.74894000E+01	 2.06289000E-16
	 0.00000000E+00	 1.81225000E+01	 0.00000000E+00
	 1.00023000E+00	 1.73768000E+01	 6.12446000E-17
	 1.88669000E+00	 1.66425000E+01	 1.15522000E-16
	 2.89445000E+00	 1.67320000E+01	 1.77228000E-16
	 9.37640000E-01	 1.65979000E+01	 5.74120000E-17
	 0.00000000E+00	 1.65612000E+01	 0.00000000E+00
	 1.64931000E+00	 1.58356000E+01	 1.00988000E-16
	 2.59986000E+00	 1.58882000E+01	 1.59190000E-16
	 8.61742000E-01	 1.58115000E+01	 5.27647000E-17
	 2.00000000E+00	 1.96852000E+01	 1.22461000E-16
	 0.00000000E+00	 1.96852000E+01	 0.00000000E+00
	 4.00000000E+00	 1.96852000E+01	 2.44921000E-16
	 2.00000000E+00	 2.12479000E+01	 1.22461000E-16
	 0.00000000E+00	 2.12479000E+01	 0.00000000E+00
	 4.00000000E+00	 2.12479000E+01	 2.44921000E-16
	 2.00000000E+00	 2.28105000E+01	 1.22461000E-16
	 0.00000000E+00	 2.28105000E+01	 0.00000000E+00
	 4.00000000E+00	 2.28105000E+01	 2.44921000E-16
	 2.00000000E+00	 2.43732000E+01	 1.22461000E-16
	 0.00000000E+00	 2.43732000E+01	 0.00000000E+00
	 4.00000000E+00	 2.43732000E+01	 2.44921000E-16
	 2.00000000E+00	 2.59359000E+01	 1.22461000E-16
	 0.00000000E+00	 2.59359000E+01	 0.00000000E+00
	 4.00000000E+00	 2.59359000E+01	 2.44921000E-16
	 2.00000000E+00	 2.74986000E+01	 1.22461000E-16
	 0.00000000E+00	 2.74986000E+01	 0.00000000E+00
	 4.00000000E+00	 2.74986000E+01	 2.44921000E-16
	 2.00000000E+00	 2.90612000E+01	 1.22461000E-16
	 0.00000000E+00	 2.90612000E+01	 0.00000000E+00
	 4.00000000E+00	 2.90612000E+01	 2.44921000E-16
	 2.00000000E+00	 3.06239000E+01	 1.22461000E-16
	 0.00000000E+00	 3.06239000E+01	 0.00000000E+00
	 4.00000000E+00	 3.06239000E+01	 2.44921000E-16
	 2.00000000E+00	 3.21866000E+01	 1.22461000E-16
	 0.00000000E+00	 3.21866000E+01	 0.00000000E+00
	 4.00000000E+00	 3.21866000E+01	 2.44921000E-16
	 2.00000000E+00	 3.37493000E+01	 1.22461000E-16
	 0.00000000E+00	 3.37493000E+01	 0.00000000E+00
	 4.00000000E+00	 3.37493000E+01	 2.44921000E-16
	 2.00000000E+00	 3.53120000E+01	 1.22461000E-16
	 0.00000000E+00	 3.53120000E+01	 0.00000000E+00
	 4.00000000E+00	 3.53120000E+01	 2.44921000E-16
	 2.00000000E+00	 3.68746000E+01	 1.22461000E-16
	 0.00000000E+00	 3.68746000E+01	 0.00000000E+00
	 4.00000000E+00	 3.68746000E+01	 2.44921000E-16
	 2.00000000E+00	 3.84373000E+01	 1.22461000E-16
	 0.00000000E+00	 3.84373000E+01	 0.00000000E+00
	 4.00000000E+00	 3.84373000E+01	 2.44921000E-16
	 2.00000000E+00	 4.00000000E+01	 1.22461000E-16
	 0.00000000E+00	 4.00000000E+01	 0.00000000E+00
	 4.00000000E+00	 4.00000000E+01	 2.44921000E-16

CELLS 58 290
	4 0 1 2 3 
	4 1 4 5 2 
	4 3 2 6 7 
	4 2 5 8 6 
	4 7 6 9 10 
	4 6 8 11 9 
	4 10 9 12 13 
	4 9 11 14 12 
	4 13 12 15 16 
	4 12 14 17 15 
	4 16 15 18 19 
	4 15 17 20 18 
	4 19 18 21 22 
	4 18 20 23 21 
	4 22 21 24 25 
	4 21 23 26 24 
	4 25 24 27 28 
	4 24 26 29 27 
	4 28 27 30 31 
	4 27 29 32 30 
	4 33 34 35 36 
	4 34 37 38 35 
	4 36 35 39 40 
	4 35 38 41 39 
	4 38 37 42 41 
	4 40 39 43 44 
	4 39 41 45 43 
	4 41 42 31 45 
	4 44 43 30 32 
	4 43 45 31 30 
	4 37 34 46 47 
	4 34 33 48 46 
	4 47 46 49 50 
	4 46 48 51 49 
	4 50 49 52 53 
	4 49 51 54 52 
	4 53 52 55 56 
	4 52 54 57 55 
	4 56 55 58 59 
	4 55 57 60 58 
	4 59 58 61 62 
	4 58 60 63 61 
	4 62 61 64 65 
	4 61 63 66 64 
	4 65 64 67 68 
	4 64 66 69 67 
	4 68 67 70 71 
	4 67 69 72 70 
	4 71 70 73 74 
	4 70 72 75 73 
	4 74 73 76 77 
	4 73 75 78 76 
	4 77 76 79 80 
	4 76 78 81 79 
	4 80 79 82 83 
	4 79 81 84 82 
	4 83 82 85 86 
	4 82 84 87 85 

CELL_TYPES 58
	9
	9
	9
	9
	9
	9
	9
	9
	9
	9
	9
	9
	9
	9
	9
	9
	9
	9
	9
	9
	9
	9
	9
	9
	9
	9
	9
	9
	9
	9
	9
	9
	9
	9
	9
	9
	9
	9
	9
	9
	9
	9
	9
	9
	9
	9
	9
	9
	9
	9
	9
	9
	9
	9
	9
	9
	9
	9

POINT_DATA 88
FIELD U 1
	U 3 88 double
		-1.91963000E-06	 0.00000000E+00	 0.00000000E+00
		-5.46099000E-04	 0.00000000E+00	 0.00000000E+00
		-5.46085000E-04	 2.11329000E-03	 0.00000000E+00
		-2.12710000E-06	 2.12366000E-03	 0.00000000E+00
		-1.09111000E-03	 0.00000000E+00	 0.00000000E+00
		-1.09109000E-03	 2.11307000E-03	 0.00000000E+00
		-5.46029000E-04	 4.22650000E-03	 0.00000000E+00
		-2.80229000E-06	 4.24811000E-03	 0.00000000E+00
		-1.09100000E-03	 4.22599000E-03	 0.00000000E+00
		-5.45895000E-04	 6.33955000E-03	 0.00000000E+00
		-4.11811000E-06	 6.37423000E-03	 0.00000000E+00
		-1.09082000E-03	 6.33861000E-03	 0.00000000E+00
		-5.45603000E-04	 8.45233000E-03	 0.00000000E+00
		-6.41598000E-06	 8.50300000E-03	 0.00000000E+00
		-1.09048000E-03	 8.45068000E-03	 0.00000000E+00
		-5.45016000E-04	 1.05647000E-02	 0.00000000E+00
		-1.03035000E-05	 1.06357000E-02	 0.00000000E+00
		-1.08987000E-03	 1.05618000E-02	 0.00000000E+00
		-5.43892000E-04	 1.26766000E-02	 0.00000000E+00
		-1.68249000E-05	 1.27738000E-02	 0.00000000E+00
		-1.08880000E-03	 1.26714000E-02	 0.00000000E+00
		-5.41910000E-04	 1.47878000E-02	 0.00000000E+00
		-2.78582000E-05	 1.49194000E-02	 0.00000000E+00
		-1.08694000E-03	 1.47784000E-02	 0.00000000E+00
		-5.37429000E-04	 1.68978000E-02	 0.00000000E+00
		-4.54683000E-05	 1.70748000E-02	 0.00000000E+00
		-1.08231000E-03	 1.68807000E-02	 0.00000000E+00
		-5.40848000E-04	 1.90073000E-02	 0.00000000E+00
		-8.69407000E-05	 1.92452000E-02	 0.00000000E+00
		-1.07382000E-03	 1.89720000E-02	 0.00000000E+00
		-3.79694000E-04	 2.10373000E-02	 0.00000000E+00
		 1.74444000E-05	 2.13511000E-02	 0.00000000E+00
		-8.62983000E-04	 2.10294000E-02	 0.00000000E+00
		-6.69380000E-04	 2.44384000E-02	 0.00000000E+00
		-4.17897000E-04	 2.40504000E-02	 0.00000000E+00
		-5.37324000E-04	 2.34853000E-02	 0.00000000E+00
		-6.41278000E-04	 2.41584000E-02	 0.00000000E+00
		-1.56690000E-04	 2.38748000E-02	 0.00000000E+00
		-2.92300000E-04	 2.35794000E-02	 0.00000000E+00
		-5.21199000E-04	 2.27596000E-02	 0.00000000E+00
		-7.10886000E-04	 2.34371000E-02	 0.00000000E+00
		-2.06933000E-04	 2.26350000E-02	 0.00000000E+00
		-3.35435000E-05	 2.26132000E-02	 0.00000000E+00
		-4.39149000E-04	 2.18435000E-02	 0.00000000E+00
		-7.69287000E-04	 2.23263000E-02	 0.00000000E+00
		-1.67374000E-04	 2.16796000E-02	 0.00000000E+00
		-2.30600000E-04	 2.50000000E-02	 0.00000000E+00
		-3.29441000E-05	 2.50000000E-02	 0.00000000E+00
		-3.69890000E-04	 2.50000000E-02	 0.00000000E+00
		-4.58419000E-05	 2.50000000E-02	 0.00000000E+00
		 7.94750000E-05	 2.50000000E-02	 0.00000000E+00
		-5.51533000E-05	 2.50000000E-02	 0.00000000E+00
		-1.99639000E-05	 2.50000000E-02	 0.00000000E+00
		 5.54449000E-05	 2.50000000E-02	 0.00000000E+00
		-1.56071000E-05	 2.50000000E-02	 0.00000000E+00
		-1.11986000E-05	 2.50000000E-02	 0.00000000E+00
		 3.38471000E-05	 2.50000000E-02	 0.00000000E+00
		-7.49394000E-06	 2.50000000E-02	 0.00000000E+00
		-6.60727000E-06	 2.50000000E-02	 0.00000000E+00
		 2.02691000E-05	 2.50000000E-02	 0.00000000E+00
		-4.27925000E-06	 2.50000000E-02	 0.00000000E+00
		-3.93401000E-06	 2.50000000E-02	 0.00000000E+00
		 1.20998000E-05	 2.50000000E-02	 0.00000000E+00
		-2.53273000E-06	 2.50000000E-02	 0.00000000E+00
		-2.34674000E-06	 2.50000000E-02	 0.00000000E+00
		 7.22117000E-06	 2.50000000E-02	 0.00000000E+00
		-1.50924000E-06	 2.50000000E-02	 0.00000000E+00
		-1.40145000E-06	 2.50000000E-02	 0.00000000E+00
		 4.31276000E-06	 2.50000000E-02	 0.00000000E+00
		-9.01140000E-07	 2.50000000E-02	 0.00000000E+00
		-8.38946000E-07	 2.50000000E-02	 0.00000000E+00
		 2.58176000E-06	 2.50000000E-02	 0.00000000E+00
		-5.39428000E-07	 2.50000000E-02	 0.00000000E+00
		-5.05520000E-07	 2.50000000E-02	 0.00000000E+00
		 1.55568000E-06	 2.50000000E-02	 0.00000000E+00
		-3.25039000E-07	 2.50000000E-02	 0.00000000E+00
		-3.10123000E-07	 2.50000000E-02	 0.00000000E+00
		 9.54369000E-07	 2.50000000E-02	 0.00000000E+00
		-1.99402000E-07	 2.50000000E-02	 0.00000000E+00
		-1.99403000E-07	 2.50000000E-02	 0.00000000E+00
		 6.13641000E-07	 2.50000000E-02	 0.00000000E+00
		-1.28212000E-07	 2.50000000E-02	 0.00000000E+00
		-1.43129000E-07	 2.50000000E-02	 0.00000000E+00
		 4.40464000E-07	 2.50000000E-02	 0.00000000E+00
		-9.20289000E-08	 2.50000000E-02	 0.00000000E+00
		-1.25936000E-07	 2.50000000E-02	 0.00000000E+00
		 3.87554000E-07	 2.50000000E-02	 0.00000000E+00
		-8.09741000E-08	 2.50000000E-02	 0.00000000E+00
FIELD S 1
	S 10 88 double
		 2.73375000E-01	 2.69384000E+02	-1.98085000E-01	-3.04834000E-01	 0.00000000E+00	 0.00000000E+00	 2.69347182E+02	-1.98085000E-01	 2.73029701E-01	 2.69384345E+02
		 1.45965000E-01	 2.69138000E+02	-1.31915000E-01	-1.55170000E-01	 0.00000000E+00	 0.00000000E+00	 2.69131217E+02	-1.31915000E-01	 1.45875489E-01	 2.69138090E+02
		 1.65399000E-01	 2.69145000E+02	-1.37939000E-01	-3.17162000E-01	 0.00000000E+00	 0.00000000E+00	 2.69131959E+02	-1.37939000E-01	 1.65025025E-01	 2.69145374E+02
		 3.12917000E-01	 2.69407000E+02	-2.09959000E-01	-6.22668000E-01	 0.00000000E+00	 0.00000000E+00	 2.69358061E+02	-2.09959000E-01	 3.11476190E-01	 2.69408441E+02
		 1.85545000E-02	 2.68891000E+02	-6.57462000E-02	-5.50625000E-03	 0.00000000E+00	 0.00000000E+00	 2.68914606E+02	-6.57462000E-02	 1.85543872E-02	 2.68891000E+02
		 1.78801000E-02	 2.68884000E+02	-6.59196000E-02	-1.16556000E-02	 0.00000000E+00	 0.00000000E+00	 2.68908030E+02	-6.59196000E-02	 1.78795947E-02	 2.68884001E+02
		 2.28991000E-01	 2.69169000E+02	-1.56724000E-01	-6.62288000E-01	 0.00000000E+00	 0.00000000E+00	 2.69135518E+02	-1.56724000E-01	 2.27360068E-01	 2.69170631E+02
		 4.42626000E-01	 2.69477000E+02	-2.47648000E-01	-1.29846000E+00	 0.00000000E+00	 0.00000000E+00	 2.69389562E+02	-2.47648000E-01	 4.36359295E-01	 2.69483267E+02
		 1.53557000E-02	 2.68860000E+02	-6.58006000E-02	-2.61165000E-02	 0.00000000E+00	 0.00000000E+00	 2.68885235E+02	-6.58006000E-02	 1.53531630E-02	 2.68860003E+02
		 3.54067000E-01	 2.69212000E+02	-1.90598000E-01	-1.06618000E+00	 0.00000000E+00	 0.00000000E+00	 2.69137014E+02	-1.90598000E-01	 3.49839035E-01	 2.69216228E+02
		 6.98856000E-01	 2.69608000E+02	-3.17901000E-01	-2.08512000E+00	 0.00000000E+00	 0.00000000E+00	 2.69443166E+02	-3.17901000E-01	 6.82688963E-01	 2.69624167E+02
		 9.27742000E-03	 2.68817000E+02	-6.32956000E-02	-4.72469000E-02	 0.00000000E+00	 0.00000000E+00	 2.68844029E+02	-6.32956000E-02	 9.26911566E-03	 2.68817008E+02
		 5.74760000E-01	 2.69284000E+02	-2.44225000E-01	-1.56587000E+00	 0.00000000E+00	 0.00000000E+00	 2.69133333E+02	-2.44225000E-01	 5.65635395E-01	 2.69293125E+02
		 1.15344000E+00	 2.69823000E+02	-4.34127000E-01	-3.05008000E+00	 0.00000000E+00	 0.00000000E+00	 2.69518632E+02	-4.34127000E-01	 1.11881833E+00	 2.69857622E+02
		-3.92203000E-03	 2.68745000E+02	-5.43237000E-02	-8.16471000E-02	 0.00000000E+00	 0.00000000E+00	 2.68774164E+02	-5.43237000E-02	-3.94683474E-03	 2.68745025E+02
		 9.51646000E-01	 2.69398000E+02	-3.25871000E-01	-2.20908000E+00	 0.00000000E+00	 0.00000000E+00	 2.69114589E+02	-3.25871000E-01	 9.33468424E-01	 2.69416178E+02
		 1.93413000E+00	 2.70165000E+02	-6.20081000E-01	-4.27641000E+00	 0.00000000E+00	 0.00000000E+00	 2.69618814E+02	-6.20081000E-01	 1.86596843E+00	 2.70233162E+02
		-3.08344000E-02	 2.68631000E+02	-3.16611000E-02	-1.41753000E-01	 0.00000000E+00	 0.00000000E+00	 2.68662360E+02	-3.16611000E-02	-3.09091926E-02	 2.68631075E+02
		 1.58934000E+00	 2.69578000E+02	-4.53829000E-01	-3.06326000E+00	 0.00000000E+00	 0.00000000E+00	 2.69068380E+02	-4.53829000E-01	 1.55432980E+00	 2.69613010E+02
		 3.25805000E+00	 2.70705000E+02	-9.25061000E-01	-5.87250000E+00	 0.00000000E+00	 0.00000000E+00	 2.69754682E+02	-9.25061000E-01	 3.12916595E+00	 2.70833884E+02
		-7.93731000E-02	 2.68451000E+02	 1.74033000E-02	-2.54014000E-01	 0.00000000E+00	 0.00000000E+00	 2.68482358E+02	-7.96133821E-02	 1.74033000E-02	 2.68451240E+02
		 2.69382000E+00	 2.69862000E+02	-6.00510000E-01	-4.19557000E+00	 0.00000000E+00	 0.00000000E+00	 2.68928685E+02	-6.00510000E-01	 2.62794962E+00	 2.69927870E+02
		 5.51853000E+00	 2.71560000E+02	-1.35563000E+00	-7.95396000E+00	 0.00000000E+00	 0.00000000E+00	 2.69896139E+02	-1.35563000E+00	 5.28093911E+00	 2.71797591E+02
		-1.30895000E-01	 2.68165000E+02	 1.54613000E-01	-4.37180000E-01	 0.00000000E+00	 0.00000000E+00	 2.68154324E+02	-1.31607370E-01	 1.54613000E-01	 2.68165712E+02
		 4.64282000E+00	 2.70192000E+02	-1.25081000E+00	-5.97854000E+00	 0.00000000E+00	 0.00000000E+00	 2.68744078E+02	-1.25081000E+00	 4.50828808E+00	 2.70326532E+02
		 8.93501000E+00	 2.72549000E+02	-3.04919000E+00	-1.09985000E+01	 0.00000000E+00	 0.00000000E+00	 2.70477468E+02	-3.04919000E+00	 8.47692672E+00	 2.73007083E+02
		 3.50622000E-01	 2.67834000E+02	 5.47561000E-01	-9.58561000E-01	 0.00000000E+00	 0.00000000E+00	 2.67390117E+02	 3.47186918E-01	 5.47561000E-01	 2.67837435E+02
		 1.16111000E+01	 2.70648000E+02	 6.65534000E+00	-3.86810000E+00	 0.00000000E+00	 0.00000000E+00	 2.61635790E+02	 6.65534000E+00	 1.15533520E+01	 2.70705748E+02
		 1.82561000E+01	 2.73943000E+02	 6.49494000E+00	-1.10101000E+01	 0.00000000E+00	 0.00000000E+00	 2.62459439E+02	 6.49494000E+00	 1.77828714E+01	 2.74416229E+02
		 4.96609000E+00	 2.67353000E+02	 6.81574000E+00	 3.27389000E+00	 0.00000000E+00	 0.00000000E+00	 2.61528474E+02	 4.92524693E+00	 6.81574000E+00	 2.67393843E+02
		 3.81321000E+00	 2.28113000E+02	 7.68072000E+00	 6.32833000E+00	 0.00000000E+00	 0.00000000E+00	 2.22661211E+02	 3.63480621E+00	 7.68072000E+00	 2.28291404E+02
		 1.56936000E+01	 2.11629000E+02	 1.46995000E+01	-9.72183000E+00	 0.00000000E+00	 0.00000000E+00	 1.97154738E+02	 1.46995000E+01	 1.52124086E+01	 2.12110191E+02
		 7.66314000E+00	 2.50511000E+02	 1.42298000E+01	 1.56728000E+01	 0.00000000E+00	 0.00000000E+00	 2.41164705E+02	 6.65583446E+00	 1.42298000E+01	 2.51518306E+02
		 7.86315000E+00	 9.11679000E+01	-1.60134000E+00	 2.45589000E+01	 0.00000000E+00	 0.00000000E+00	 9.81178558E+01	-1.60134000E+00	 1.16203586E+00	 9.78690141E+01
		 8.73178000E+00	 1.07468000E+02	-3.44374000E+00	 1.65678000E+01	 0.00000000E+00	 0.00000000E+00	 1.09191232E+02	-3.44374000E+00	 6.02588226E+00	 1.10173898E+02
		 1.11907000E+01	 1.41605000E+02	 7.49052000E-01	 1.98398000E+01	 0.00000000E+00	 0.00000000E+00	 1.40212378E+02	 7.49052000E-01	 8.23928432E+00	 1.44556416E+02
		 1.21588000E+01	 1.15992000E+02	-1.61351000E+00	 3.80837000E+01	 0.00000000E+00	 0.00000000E+00	 1.29430049E+02	-1.61351000E+00	-3.11722635E-01	 1.28462523E+02
		 1.40762000E+01	 1.48112000E+02	-5.05725000E+00	 9.14054000E+00	 0.00000000E+00	 0.00000000E+00	 1.45419738E+02	-5.05725000E+00	 1.34557352E+01	 1.48732465E+02
		 1.44910000E+01	 1.77079000E+02	 5.41254000E-01	 4.48666000E+00	 0.00000000E+00	 0.00000000E+00	 1.70170223E+02	 5.41254000E-01	 1.43672835E+01	 1.77202716E+02
		 2.12307000E+01	 2.03993000E+02	 2.10755000E+01	 2.35478000E+01	 0.00000000E+00	 0.00000000E+00	 1.87333776E+02	 1.82454711E+01	 2.10755000E+01	 2.06978229E+02
		 2.25668000E+01	 1.81866000E+02	 1.50923000E+01	 4.45759000E+01	 0.00000000E+00	 0.00000000E+00	 1.80509883E+02	 1.09417067E+01	 1.50923000E+01	 1.93491093E+02
		 2.74928000E+01	 2.18125000E+02	 2.28383000E+01	-1.95644000E+00	 0.00000000E+00	 0.00000000E+00	 1.93031294E+02	 2.28383000E+01	 2.74727234E+01	 2.18145077E+02
		 3.50910000E+01	 2.10129000E+02	 1.86178000E+01	-6.43252000E+00	 0.00000000E+00	 0.00000000E+00	 1.84166326E+02	 1.86178000E+01	 3.48549279E+01	 2.10365072E+02
		 5.25328000E+00	 2.05459000E+02	 1.33469000E+01	 1.94964000E+01	 0.00000000E+00	 0.00000000E+00	 1.99167710E+02	 3.37235603E+00	 1.33469000E+01	 2.07339924E+02
		 1.47669000E+01	 2.26052000E+02	 1.94401000E+01	 3.34067000E+01	 0.00000000E+00	 0.00000000E+00	 2.16849896E+02	 9.61073171E+00	 1.94401000E+01	 2.31208168E+02
		 1.28778000E+01	 1.97730000E+02	 1.87809000E+01	-3.98698000E+00	 0.00000000E+00	 0.00000000E+00	 1.82103458E+02	 1.27918469E+01	 1.87809000E+01	 1.97815953E+02
		-2.58761000E+00	 5.00805000E+01	-7.53687000E+00	 1.22877000E+01	 0.00000000E+00	 0.00000000E+00	 5.92626009E+01	-7.53687000E+00	-5.31332141E+00	 5.28062114E+01
		-3.40788000E+00	 5.78614000E+01	-8.62054000E+00	 9.22247000E+00	 0.00000000E+00	 0.00000000E+00	 6.59972293E+01	-8.62054000E+00	-4.76597544E+00	 5.92194954E+01
		-1.76734000E+00	 4.22997000E+01	-6.45320000E+00	 1.53530000E+01	 0.00000000E+00	 0.00000000E+00	 5.36423070E+01	-6.58881232E+00	-6.45320000E+00	 4.71211723E+01
		-1.44807000E+01	-8.30809000E+00	-1.23203000E+01	 5.36962000E+00	 0.00000000E+00	 0.00000000E+00	 1.07671534E+01	-1.75877864E+01	-1.23203000E+01	-5.20100356E+00
		-1.97254000E+01	-1.01786000E+01	-1.31103000E+01	 3.96359000E+00	 0.00000000E+00	 0.00000000E+00	 1.09031206E+01	-2.11564656E+01	-1.31103000E+01	-8.74753441E+00
		-9.23603000E+00	-6.43763000E+00	-1.15302000E+01	 6.77565000E+00	 0.00000000E+00	 0.00000000E+00	 1.25396397E+01	-1.47554421E+01	-1.15302000E+01	-9.18217888E-01
		-4.79084000E+00	-1.89187000E+00	-1.31186000E+00	 5.80362000E-01	 0.00000000E+00	 0.00000000E+00	 3.38117293E+00	-4.90270916E+00	-1.78000084E+00	-1.31186000E+00
		-8.73863000E+00	-2.88403000E+00	-5.64529000E-01	 1.83962000E-01	 0.00000000E+00	 0.00000000E+00	 7.30326657E+00	-8.74440472E+00	-2.87825528E+00	-5.64529000E-01
		-8.43046000E-01	-8.99697000E-01	-2.05919000E+00	 9.76762000E-01	 0.00000000E+00	 0.00000000E+00	 2.06773108E+00	-2.05919000E+00	-1.84854412E+00	 1.05801125E-01
		-2.45608000E+00	-8.31206000E-01	-2.25173000E-01	 1.09732000E-01	 0.00000000E+00	 0.00000000E+00	 2.00707302E+00	-2.46345700E+00	-8.23829002E-01	-2.25173000E-01
		-4.96307000E+00	-1.45641000E+00	 2.65085000E-01	-6.57986000E-02	 0.00000000E+00	 0.00000000E+00	 4.61626423E+00	-4.96430420E+00	-1.45517580E+00	 2.65085000E-01
		 5.09067000E-02	-2.06004000E-01	-7.15431000E-01	 2.85262000E-01	 0.00000000E+00	 0.00000000E+00	 8.36970399E-01	-7.15431000E-01	-3.90398751E-01	 2.35301451E-01
		-1.42289000E+00	-4.65275000E-01	-7.79780000E-02	 4.17397000E-02	 0.00000000E+00	 0.00000000E+00	 1.20130491E+00	-1.42470587E+00	-4.63459129E-01	-7.79780000E-02
		-2.93625000E+00	-8.43080000E-01	 2.16674000E-01	-5.61228000E-02	 0.00000000E+00	 0.00000000E+00	 2.78067146E+00	-2.93775370E+00	-8.41576296E-01	 2.16674000E-01
		 9.04719000E-02	-8.74693000E-02	-3.72630000E-01	 1.39602000E-01	 0.00000000E+00	 0.00000000E+00	 4.71367890E-01	-3.72630000E-01	-1.64041704E-01	 1.67044304E-01
		-8.44395000E-01	-2.74369000E-01	-4.06606000E-02	 2.24335000E-02	 0.00000000E+00	 0.00000000E+00	 7.17132419E-01	-8.45276512E-01	-2.73487488E-01	-4.06606000E-02
		-1.74914000E+00	-5.00302000E-01	 1.35274000E-01	-3.51973000E-02	 0.00000000E+00	 0.00000000E+00	 1.66162607E+00	-1.75013122E+00	-4.99310785E-01	 1.35274000E-01
		 6.03494000E-02	-4.84365000E-02	-2.16596000E-01	 8.00642000E-02	 0.00000000E+00	 0.00000000E+00	 2.78632734E-01	-2.16596000E-01	-9.08364688E-02	 1.02749369E-01
		-5.03407000E-01	-1.63388000E-01	-2.36497000E-02	 1.31171000E-02	 0.00000000E+00	 0.00000000E+00	 4.27983136E-01	-5.03912275E-01	-1.62882725E-01	-2.36497000E-02
		-1.04350000E+00	-2.98268000E-01	 8.13499000E-02	-2.11639000E-02	 0.00000000E+00	 0.00000000E+00	 9.91830440E-01	-1.04410055E+00	-2.97667449E-01	 8.13499000E-02
		 3.66848000E-02	-2.85090000E-02	-1.28649000E-01	 4.73981000E-02	 0.00000000E+00	 0.00000000E+00	 1.65971377E-01	-1.28649000E-01	-5.34372056E-02	 6.16130056E-02
		-3.00599000E-01	-9.75445000E-02	-1.40599000E-02	 7.78659000E-03	 0.00000000E+00	 0.00000000E+00	 2.55606387E-01	-3.00897157E-01	-9.72463432E-02	-1.40599000E-02
		-6.23178000E-01	-1.78104000E-01	 4.86500000E-02	-1.26255000E-02	 0.00000000E+00	 0.00000000E+00	 5.92375524E-01	-6.23535862E-01	-1.77746138E-01	 4.86500000E-02
		 2.19800000E-02	-1.69849000E-02	-7.67698000E-02	 2.81987000E-02	 0.00000000E+00	 0.00000000E+00	 9.90328753E-02	-7.67698000E-02	-3.17768215E-02	 3.67719215E-02
		-1.79943000E-01	-5.83895000E-02	-8.41004000E-03	 4.62444000E-03	 0.00000000E+00	 0.00000000E+00	 1.53011550E-01	-1.80118681E-01	-5.82138195E-02	-8.41004000E-03
		-3.73051000E-01	-1.06616000E-01	 2.91302000E-02	-7.50470000E-03	 0.00000000E+00	 0.00000000E+00	 3.54614072E-01	-3.73262218E-01	-1.06404782E-01	 2.91302000E-02
		 1.31654000E-02	-1.01633000E-02	-4.59503000E-02	 1.67536000E-02	 0.00000000E+00	 0.00000000E+00	 5.91764407E-02	-4.59503000E-02	-1.89131650E-02	 2.19152650E-02
		-1.08427000E-01	-3.51831000E-02	-5.06693000E-03	 2.72933000E-03	 0.00000000E+00	 0.00000000E+00	 9.21945012E-02	-1.08528564E-01	-3.50815362E-02	-5.06693000E-03
		-2.24787000E-01	-6.42426000E-02	 1.75535000E-02	-4.42990000E-03	 0.00000000E+00	 0.00000000E+00	 2.13672376E-01	-2.24909141E-01	-6.41204587E-02	 1.75535000E-02
		 7.93381000E-03	-6.12362000E-03	-2.76874000E-02	 9.88856000E-03	 0.00000000E+00	 0.00000000E+00	 3.54836601E-02	-2.76874000E-02	-1.12269474E-02	 1.30371374E-02
		-6.65168000E-02	-2.15838000E-02	-3.10836000E-03	 1.57989000E-03	 0.00000000E+00	 0.00000000E+00	 5.65505214E-02	-6.65722820E-02	-2.15283180E-02	-3.10836000E-03
		-1.37901000E-01	-3.94110000E-02	 1.07687000E-02	-2.56432000E-03	 0.00000000E+00	 0.00000000E+00	 1.31073293E-01	-1.37967720E-01	-3.93442797E-02	 1.07687000E-02
		 4.86726000E-03	-3.75663000E-03	-1.69854000E-02	 5.72410000E-03	 0.00000000E+00	 0.00000000E+00	 2.14883981E-02	-1.69854000E-02	-6.61114790E-03	 7.72177790E-03
		-4.27690000E-02	-1.38780000E-02	-1.99862000E-03	 8.61863000E-04	 0.00000000E+00	 0.00000000E+00	 3.63489359E-02	-4.27946879E-02	-1.38523121E-02	-1.99862000E-03
		-8.86676000E-02	-2.53405000E-02	 6.92405000E-03	-1.39890000E-03	 0.00000000E+00	 0.00000000E+00	 8.42639539E-02	-8.86984867E-02	-2.53096133E-02	 6.92405000E-03
		 3.12956000E-03	-2.41543000E-03	-1.09213000E-02	 3.12262000E-03	 0.00000000E+00	 0.00000000E+00	 1.33982823E-02	-1.09213000E-02	-3.81875638E-03	 4.53288638E-03
		-3.06991000E-02	-9.96145000E-03	-1.43459000E-03	 3.79167000E-04	 0.00000000E+00	 0.00000000E+00	 2.60771128E-02	-3.07060304E-02	-9.95451963E-03	-1.43459000E-03
		-6.36446000E-02	-1.81891000E-02	 4.97000000E-03	-6.15429000E-04	 0.00000000E+00	 0.00000000E+00	 6.04681000E-02	-6.36529309E-02	-1.81807691E-02	 4.97000000E-03
		 2.24636000E-03	-1.73377000E-03	-7.83917000E-03	 1.37376000E-03	 0.00000000E+00	 0.00000000E+00	 9.11478356E-03	-7.83917000E-03	-2.16188102E-03	 2.67447102E-03
		-2.70114000E-02	-8.76485000E-03	-1.26226000E-03	 1.77469000E-04	 0.00000000E+00	 0.00000000E+00	 2.29394052E-02	-2.70131259E-02	-8.76312407E-03	-1.26226000E-03
		-5.59994000E-02	-1.60042000E-02	 4.37299000E-03	-2.88051000E-04	 0.00000000E+00	 0.00000000E+00	 5.31985395E-02	-5.60014745E-02	-1.60021255E-02	 4.37299000E-03
		 1.97652000E-03	-1.52550000E-03	-6.89751000E-03	 6.42990000E-04	 0.00000000E+00	 0.00000000E+00	 7.82149796E-03	-6.89751000E-03	-1.63982433E-03	 2.09084433E-03
FIELD E 1
	E 10 88 double
		-4.35226000E-04	 1.41216000E-03	-4.38463000E-04	-2.09641000E-06	 0.00000000E+00	 0.00000000E+00	 1.23267346E-03	-4.38463000E-04	-4.35228379E-04	 1.41216238E-03
		-4.35601000E-04	 1.41096000E-03	-4.37509000E-04	-1.06715000E-06	 0.00000000E+00	 0.00000000E+00	 1.23167778E-03	-4.37509000E-04	-4.35601617E-04	 1.41096062E-03
		-4.35502000E-04	 1.41098000E-03	-4.37584000E-04	-2.18122000E-06	 0.00000000E+00	 0.00000000E+00	 1.23168516E-03	-4.37584000E-04	-4.35504577E-04	 1.41098258E-03
		-4.35036000E-04	 1.41223000E-03	-4.38625000E-04	-4.28222000E-06	 0.00000000E+00	 0.00000000E+00	 1.23271866E-03	-4.38625000E-04	-4.35045927E-04	 1.41223993E-03
		-4.35976000E-04	 1.40977000E-03	-4.36555000E-04	-3.78944000E-08	 0.00000000E+00	 0.00000000E+00	 1.23069038E-03	-4.36555000E-04	-4.35976001E-04	 1.40977000E-03
		-4.35968000E-04	 1.40973000E-03	-4.36543000E-04	-8.02184000E-08	 0.00000000E+00	 0.00000000E+00	 1.23065705E-03	-4.36543000E-04	-4.35968003E-04	 1.40973000E-03
		-4.35176000E-04	 1.41103000E-03	-4.37824000E-04	-4.55476000E-06	 0.00000000E+00	 0.00000000E+00	 1.23169884E-03	-4.37824000E-04	-4.35187237E-04	 1.41104124E-03
		-4.34409000E-04	 1.41245000E-03	-4.39148000E-04	-8.92977000E-06	 0.00000000E+00	 0.00000000E+00	 1.23286516E-03	-4.39148000E-04	-4.34452175E-04	 1.41249318E-03
		-4.35943000E-04	 1.40961000E-03	-4.36500000E-04	-1.79758000E-07	 0.00000000E+00	 0.00000000E+00	 1.23055439E-03	-4.36500000E-04	-4.35943018E-04	 1.40961002E-03
		-4.34537000E-04	 1.41111000E-03	-4.38276000E-04	-7.33248000E-06	 0.00000000E+00	 0.00000000E+00	 1.23170866E-03	-4.38276000E-04	-4.34566130E-04	 1.41113913E-03
		-4.33165000E-04	 1.41284000E-03	-4.40145000E-04	-1.43397000E-05	 0.00000000E+00	 0.00000000E+00	 1.23311443E-03	-4.40145000E-04	-4.33276384E-04	 1.41295138E-03
		-4.35908000E-04	 1.40939000E-03	-4.36406000E-04	-3.25232000E-07	 0.00000000E+00	 0.00000000E+00	 1.23036476E-03	-4.36406000E-04	-4.35908057E-04	 1.40939006E-03
		-4.33410000E-04	 1.41122000E-03	-4.39032000E-04	-1.07690000E-05	 0.00000000E+00	 0.00000000E+00	 1.23169438E-03	-4.39032000E-04	-4.33472868E-04	 1.41128287E-03
		-4.30944000E-04	 1.41342000E-03	-4.41844000E-04	-2.09759000E-05	 0.00000000E+00	 0.00000000E+00	 1.23346322E-03	-4.41844000E-04	-4.31182527E-04	 1.41365853E-03
		-4.35875000E-04	 1.40902000E-03	-4.36221000E-04	-5.62086000E-07	 0.00000000E+00	 0.00000000E+00	 1.23004552E-03	-4.36221000E-04	-4.35875171E-04	 1.40902017E-03
		-4.31488000E-04	 1.41134000E-03	-4.40259000E-04	-1.51927000E-05	 0.00000000E+00	 0.00000000E+00	 1.23161103E-03	-4.40259000E-04	-4.31613244E-04	 1.41146524E-03
		-4.27108000E-04	 1.41425000E-03	-4.44644000E-04	-2.94094000E-05	 0.00000000E+00	 0.00000000E+00	 1.23392627E-03	-4.44644000E-04	-4.27577595E-04	 1.41471959E-03
		-4.35868000E-04	 1.40843000E-03	-4.35874000E-04	-9.75936000E-07	 0.00000000E+00	 0.00000000E+00	 1.22953452E-03	-4.35874000E-04	-4.35868516E-04	 1.40843052E-03
		-4.28231000E-04	 1.41145000E-03	-4.42259000E-04	-2.10672000E-05	 0.00000000E+00	 0.00000000E+00	 1.23139695E-03	-4.42259000E-04	-4.28472220E-04	 1.41169122E-03
		-4.20552000E-04	 1.41542000E-03	-4.49272000E-04	-4.03856000E-05	 0.00000000E+00	 0.00000000E+00	 1.23454717E-03	-4.49272000E-04	-4.21439927E-04	 1.41630793E-03
		-4.35910000E-04	 1.40748000E-03	-4.35246000E-04	-1.74880000E-06	 0.00000000E+00	 0.00000000E+00	 1.22870705E-03	-4.35911659E-04	-4.35246000E-04	 1.40748166E-03
		-4.22670000E-04	 1.41139000E-03	-4.45288000E-04	-2.88552000E-05	 0.00000000E+00	 0.00000000E+00	 1.23076639E-03	-4.45288000E-04	-4.23123866E-04	 1.41184387E-03
		-4.09399000E-04	 1.41694000E-03	-4.56596000E-04	-5.46998000E-05	 0.00000000E+00	 0.00000000E+00	 1.23520860E-03	-4.56596000E-04	-4.11035820E-04	 1.41857682E-03
		-4.35940000E-04	 1.40584000E-03	-4.33981000E-04	-3.01063000E-06	 0.00000000E+00	 0.00000000E+00	 1.22720578E-03	-4.35944921E-04	-4.33981000E-04	 1.40584492E-03
		-4.11936000E-04	 1.41101000E-03	-4.52401000E-04	-4.11134000E-05	 0.00000000E+00	 0.00000000E+00	 1.22992429E-03	-4.52401000E-04	-4.12862771E-04	 1.41193677E-03
		-3.90349000E-04	 1.41933000E-03	-4.72631000E-04	-7.56296000E-05	 0.00000000E+00	 0.00000000E+00	 1.23787846E-03	-4.72631000E-04	-3.93504190E-04	 1.42248519E-03
		-4.33524000E-04	 1.40269000E-03	-4.32172000E-04	-6.59712000E-06	 0.00000000E+00	 0.00000000E+00	 1.22371596E-03	-4.33547702E-04	-4.32172000E-04	 1.40271370E-03
		-3.89076000E-04	 1.38925000E-03	-4.23105000E-04	-2.66953000E-05	 0.00000000E+00	 0.00000000E+00	 1.19745172E-03	-4.23105000E-04	-3.89476646E-04	 1.38965065E-03
		-3.59354000E-04	 1.39601000E-03	-4.40114000E-04	-7.57930000E-05	 0.00000000E+00	 0.00000000E+00	 1.20126265E-03	-4.40114000E-04	-3.62620507E-04	 1.39927651E-03
		-4.18798000E-04	 1.38249000E-03	-4.06096000E-04	 2.24023000E-05	 0.00000000E+00	 0.00000000E+00	 1.19692670E-03	-4.19076570E-04	-4.06096000E-04	 1.38276857E-03
		-3.62600000E-04	 1.17708000E-03	-3.36068000E-04	 4.33266000E-05	 0.00000000E+00	 0.00000000E+00	 1.01895355E-03	-3.63818247E-04	-3.36068000E-04	 1.17829825E-03
		-2.85067000E-04	 1.05988000E-03	-2.91929000E-04	-6.69239000E-05	 0.00000000E+00	 0.00000000E+00	 9.02242877E-04	-2.91929000E-04	-2.88388896E-04	 1.06320190E-03
		-3.89432000E-04	 1.27768000E-03	-3.44355000E-04	 1.07549000E-04	 0.00000000E+00	 0.00000000E+00	 1.10370010E-03	-3.96341581E-04	-3.44355000E-04	 1.28458958E-03
		-1.04134000E-04	 4.67375000E-04	-1.69083000E-04	 1.68512000E-04	 0.00000000E+00	 0.00000000E+00	 4.48775485E-04	-1.69083000E-04	-1.50120255E-04	 5.13361255E-04
		-1.23051000E-04	 5.54387000E-04	-2.06596000E-04	 1.13670000E-04	 0.00000000E+00	 0.00000000E+00	 4.99449108E-04	-2.06596000E-04	-1.41615403E-04	 5.72951403E-04