# vtk DataFile Version 3.0

ASCII
DATASET UNSTRUCTURED_GRID

POINTS 7532 double
	 8.28240000E+02	-1.52455000E+03	 0.00000000E+00
	-8.28240000E+02	-1.52455000E+03	 0.00000000E+00
	 8.11987000E+02	-1.49640000E+03	 0.00000000E+00
	 8.50959000E+02	-1.47390000E+03	 0.00000000E+00
	 8.42500000E+02	-1.45925000E+03	 0.00000000E+00
	 7.77500000E+02	-1.34667000E+03	 0.00000000E+00
	 7.68500000E+02	-1.33108000E+03	 0.00000000E+00
	 7.08000000E+02	-1.36601000E+03	 0.00000000E+00
	 7.08000000E+02	-1.50227000E+03	 0.00000000E+00
	 5.90000000E+02	-1.57039000E+03	 0.00000000E+00
	 4.72000000E+02	-1.50227000E+03	 0.00000000E+00
	 3.54000000E+02	-1.57039000E+03	 0.00000000E+00
	 2.36000000E+02	-1.50227000E+03	 0.00000000E+00
	 1.18000000E+02	-1.57039000E+03	 0.00000000E+00
	 0.00000000E+00	-1.50227000E+03	 0.00000000E+00
	-1.18000000E+02	-1.57039000E+03	 0.00000000E+00
	-2.36000000E+02	-1.50227000E+03	 0.00000000E+00
	-3.54000000E+02	-1.57039000E+03	 0.00000000E+00
	-4.72000000E+02	-1.50227000E+03	 0.00000000E+00
	-5.90000000E+02	-1.57039000E+03	 0.00000000E+00
	-7.08000000E+02	-1.50227000E+03	 0.00000000E+00
	-7.08000000E+02	-1.36601000E+03	 0.00000000E+00
	-7.68500000E+02	-1.33108000E+03	 0.00000000E+00
	-7.77500000E+02	-1.34667000E+03	 0.00000000E+00
	-8.42500000E+02	-1.45925000E+03	 0.00000000E+00
	-8.50959000E+02	-1.47390000E+03	 0.00000000E+00
	-8.11987000E+02	-1.49640000E+03	 0.00000000E+00
	 0.00000000E+00	-1.70700000E+03	 0.00000000E+00
	 0.00000000E+00	-1.62040000E+03	 0.00000000E+00
	-7.48000000E+01	-1.66370000E+03	 0.00000000E+00
	 7.48000000E+01	-1.66370000E+03	 0.00000000E+00
	-1.61200000E+02	-1.66370000E+03	 0.00000000E+00
	 1.61200000E+02	-1.66370000E+03	 0.00000000E+00
	-2.36000000E+02	-1.62040000E+03	 0.00000000E+00
	 2.36000000E+02	-1.62040000E+03	 0.00000000E+00
	-3.10800000E+02	-1.66370000E+03	 0.00000000E+00
	 3.10800000E+02	-1.66370000E+03	 0.00000000E+00
	-3.97200000E+02	-1.66370000E+03	 0.00000000E+00
	 3.97200000E+02	-1.66370000E+03	 0.00000000E+00
	-4.72000000E+02	-1.62040000E+03	 0.00000000E+00
	 4.72000000E+02	-1.62040000E+03	 0.00000000E+00
	 8.23126000E+02	-1.52731000E+03	 0.00000000E+00
	 8.18003000E+02	-1.53006000E+03	 0.00000000E+00
	 8.12871000E+02	-1.53280000E+03	 0.00000000E+00
	 8.07729000E+02	-1.53551000E+03	 0.00000000E+00
	 8.02579000E+02	-1.53821000E+03	 0.00000000E+00
	 7.97420000E+02	-1.54089000E+03	 0.00000000E+00
	 7.92251000E+02	-1.54356000E+03	 0.00000000E+00
	 7.87074000E+02	-1.54620000E+03	 0.00000000E+00
	 7.81888000E+02	-1.54883000E+03	 0.00000000E+00
	 7.76693000E+02	-1.55144000E+03	 0.00000000E+00
	 7.71489000E+02	-1.55404000E+03	 0.00000000E+00
	 7.66277000E+02	-1.55661000E+03	 0.00000000E+00
	 7.61056000E+02	-1.55917000E+03	 0.00000000E+00
	 7.55827000E+02	-1.56171000E+03	 0.00000000E+00
	 7.50589000E+02	-1.56424000E+03	 0.00000000E+00
	 7.45342000E+02	-1.56674000E+03	 0.00000000E+00
	 7.40088000E+02	-1.56923000E+03	 0.00000000E+00
	 7.34825000E+02	-1.57171000E+03	 0.00000000E+00
	 7.29553000E+02	-1.57416000E+03	 0.00000000E+00
	 7.24274000E+02	-1.57660000E+03	 0.00000000E+00
	 7.18986000E+02	-1.57901000E+03	 0.00000000E+00
	 7.13690000E+02	-1.58141000E+03	 0.00000000E+00
	 7.08387000E+02	-1.58380000E+03	 0.00000000E+00
	 7.03075000E+02	-1.58616000E+03	 0.00000000E+00
	 6.97755000E+02	-1.58851000E+03	 0.00000000E+00
	 6.92428000E+02	-1.59084000E+03	 0.00000000E+00
	 6.87093000E+02	-1.59315000E+03	 0.00000000E+00
	 6.81750000E+02	-1.59544000E+03	 0.00000000E+00
	 6.76399000E+02	-1.59772000E+03	 0.00000000E+00
	 6.71041000E+02	-1.59998000E+03	 0.00000000E+00
	 6.65676000E+02	-1.60222000E+03	 0.00000000E+00
	 6.60302000E+02	-1.60444000E+03	 0.00000000E+00
	 6.54922000E+02	-1.60664000E+03	 0.00000000E+00
	 6.49534000E+02	-1.60883000E+03	 0.00000000E+00
	 6.44139000E+02	-1.61100000E+03	 0.00000000E+00
	 6.38736000E+02	-1.61315000E+03	 0.00000000E+00
	 6.33327000E+02	-1.61528000E+03	 0.00000000E+00
	 6.27910000E+02	-1.61739000E+03	 0.00000000E+00
	 6.22486000E+02	-1.61949000E+03	 0.00000000E+00
	 6.17055000E+02	-1.62156000E+03	 0.00000000E+00
	 6.11617000E+02	-1.62362000E+03	 0.00000000E+00
	 6.06173000E+02	-1.62566000E+03	 0.00000000E+00
	 6.00721000E+02	-1.62769000E+03	 0.00000000E+00
	 5.95263000E+02	-1.62969000E+03	 0.00000000E+00
	 5.89799000E+02	-1.63167000E+03	 0.00000000E+00
	 5.84327000E+02	-1.63364000E+03	 0.00000000E+00
	 5.78849000E+02	-1.63559000E+03	 0.00000000E+00
	 5.73365000E+02	-1.63752000E+03	 0.00000000E+00
	 5.67874000E+02	-1.63943000E+03	 0.00000000E+00
	 5.62376000E+02	-1.64133000E+03	 0.00000000E+00
	 5.56873000E+02	-1.64320000E+03	 0.00000000E+00
	 5.51363000E+02	-1.64506000E+03	 0.00000000E+00
	 5.45847000E+02	-1.64690000E+03	 0.00000000E+00
	 5.40324000E+02	-1.64872000E+03	 0.00000000E+00
	 5.34796000E+02	-1.65052000E+03	 0.00000000E+00
	 5.29262000E+02	-1.65230000E+03	 0.00000000E+00
	 5.23721000E+02	-1.65407000E+03	 0.00000000E+00
	 5.18175000E+02	-1.65581000E+03	 0.00000000E+00
	 5.12623000E+02	-1.65754000E+03	 0.00000000E+00
	 5.07066000E+02	-1.65925000E+03	 0.00000000E+00
	 5.01502000E+02	-1.66094000E+03	 0.00000000E+00
	 4.95933000E+02	-1.66261000E+03	 0.00000000E+00
	 4.90359000E+02	-1.66426000E+03	 0.00000000E+00
	 4.84779000E+02	-1.66590000E+03	 0.00000000E+00
	 4.79193000E+02	-1.66751000E+03	 0.00000000E+00
	 4.73602000E+02	-1.66911000E+03	 0.00000000E+00
	 4.68006000E+02	-1.67069000E+03	 0.00000000E+00
	 4.62404000E+02	-1.67225000E+03	 0.00000000E+00
	 4.56798000E+02	-1.67379000E+03	 0.00000000E+00
	 4.51186000E+02	-1.67531000E+03	 0.00000000E+00
	 4.45569000E+02	-1.67681000E+03	 0.00000000E+00
	 4.39947000E+02	-1.67829000E+03	 0.00000000E+00
	 4.34320000E+02	-1.67976000E+03	 0.00000000E+00
	 4.28688000E+02	-1.68121000E+03	 0.00000000E+00
	 4.23052000E+02	-1.68263000E+03	 0.00000000E+00
	 4.17410000E+02	-1.68404000E+03	 0.00000000E+00
	 4.11765000E+02	-1.68543000E+03	 0.00000000E+00
	 4.06114000E+02	-1.68680000E+03	 0.00000000E+00
	 4.00459000E+02	-1.68815000E+03	 0.00000000E+00
	 3.94799000E+02	-1.68948000E+03	 0.00000000E+00
	 3.89135000E+02	-1.69080000E+03	 0.00000000E+00
	 3.83467000E+02	-1.69209000E+03	 0.00000000E+00
	 3.77794000E+02	-1.69337000E+03	 0.00000000E+00
	 3.72117000E+02	-1.69463000E+03	 0.00000000E+00
	 3.66436000E+02	-1.69586000E+03	 0.00000000E+00
	 3.60750000E+02	-1.69708000E+03	 0.00000000E+00
	 3.55061000E+02	-1.69828000E+03	 0.00000000E+00
	 3.49368000E+02	-1.69946000E+03	 0.00000000E+00
	 3.43670000E+02	-1.70062000E+03	 0.00000000E+00
	 3.37969000E+02	-1.70176000E+03	 0.00000000E+00
	 3.32264000E+02	-1.70289000E+03	 0.00000000E+00
	 3.26556000E+02	-1.70399000E+03	 0.00000000E+00
	 3.20843000E+02	-1.70508000E+03	 0.00000000E+00
	 3.15127000E+02	-1.70614000E+03	 0.00000000E+00
	 3.09408000E+02	-1.70719000E+03	 0.00000000E+00
	 3.03685000E+02	-1.70822000E+03	 0.00000000E+00
	 2.97958000E+02	-1.70922000E+03	 0.00000000E+00
	 2.92229000E+02	-1.71021000E+03	 0.00000000E+00
	 2.86496000E+02	-1.71118000E+03	 0.00000000E+00
	 2.80760000E+02	-1.71213000E+03	 0.00000000E+00
	 2.75020000E+02	-1.71306000E+03	 0.00000000E+00
	 2.69278000E+02	-1.71398000E+03	 0.00000000E+00
	 2.63532000E+02	-1.71487000E+03	 0.00000000E+00
	 2.57784000E+02	-1.71574000E+03	 0.00000000E+00
	 2.52033000E+02	-1.71660000E+03	 0.00000000E+00
	 2.46278000E+02	-1.71743000E+03	 0.00000000E+00
	 2.40521000E+02	-1.71825000E+03	 0.00000000E+00
	 2.34762000E+02	-1.71904000E+03	 0.00000000E+00
	 2.29000000E+02	-1.71982000E+03	 0.00000000E+00
	 2.23235000E+02	-1.72058000E+03	 0.00000000E+00
	 2.17467000E+02	-1.72132000E+03	 0.00000000E+00
	 2.11698000E+02	-1.72204000E+03	 0.00000000E+00
	 2.05925000E+02	-1.72274000E+03	 0.00000000E+00
	 2.00151000E+02	-1.72342000E+03	 0.00000000E+00
	 1.94374000E+02	-1.72408000E+03	 0.00000000E+00
	 1.88595000E+02	-1.72472000E+03	 0.00000000E+00
	 1.82814000E+02	-1.72534000E+03	 0.00000000E+00
	 1.77031000E+02	-1.72594000E+03	 0.00000000E+00
	 1.71246000E+02	-1.72653000E+03	 0.00000000E+00
	 1.65459000E+02	-1.72709000E+03	 0.00000000E+00
	 1.59670000E+02	-1.72764000E+03	 0.00000000E+00
	 1.53880000E+02	-1.72816000E+03	 0.00000000E+00
	 1.48087000E+02	-1.72867000E+03	 0.00000000E+00
	 1.42293000E+02	-1.72916000E+03	 0.00000000E+00
	 1.36498000E+02	-1.72962000E+03	 0.00000000E+00
	 1.30701000E+02	-1.73007000E+03	 0.00000000E+00
	 1.24902000E+02	-1.73050000E+03	 0.00000000E+00
	 1.19102000E+02	-1.73091000E+03	 0.00000000E+00
	 1.13301000E+02	-1.73130000E+03	 0.00000000E+00
	 1.07498000E+02	-1.73167000E+03	 0.00000000E+00
	 1.01694000E+02	-1.73202000E+03	 0.00000000E+00
	 9.58891000E+01	-1.73235000E+03	 0.00000000E+00
	 9.00831000E+01	-1.73266000E+03	 0.00000000E+00
	 8.42760000E+01	-1.73295000E+03	 0.00000000E+00
	 7.84680000E+01	-1.73322000E+03	 0.00000000E+00
	 7.26590000E+01	-1.73348000E+03	 0.00000000E+00
	 6.68493000E+01	-1.73371000E+03	 0.00000000E+00
	 6.10389000E+01	-1.73393000E+03	 0.00000000E+00
	 5.52277000E+01	-1.73412000E+03	 0.00000000E+00
	 4.94159000E+01	-1.73430000E+03	 0.00000000E+00
	 4.36036000E+01	-1.73445000E+03	 0.00000000E+00
	 3.77908000E+01	-1.73459000E+03	 0.00000000E+00
	 3.19775000E+01	-1.73471000E+03	 0.00000000E+00
	 2.61639000E+01	-1.73480000E+03	 0.00000000E+00
	 2.03500000E+01	-1.73488000E+03	 0.00000000E+00
	 1.45359000E+01	-1.73494000E+03	 0.00000000E+00
	 8.72160000E+00	-1.73498000E+03	 0.00000000E+00
	 2.90721000E+00	-1.73500000E+03	 0.00000000E+00
	-2.90721000E+00	-1.73500000E+03	 0.00000000E+00
	-8.72160000E+00	-1.73498000E+03	 0.00000000E+00
	-1.45359000E+01	-1.73494000E+03	 0.00000000E+00
	-2.03500000E+01	-1.73488000E+03	 0.00000000E+00
	-2.61639000E+01	-1.73480000E+03	 0.00000000E+00
	-3.19775000E+01	-1.73471000E+03	 0.00000000E+00
	-3.77908000E+01	-1.73459000E+03	 0.00000000E+00
	-4.36036000E+01	-1.73445000E+03	 0.00000000E+00
	-4.94159000E+01	-1.73430000E+03	 0.00000000E+00
	-5.52277000E+01	-1.73412000E+03	 0.00000000E+00
	-6.10389000E+01	-1.73393000E+03	 0.00000000E+00
	-6.68493000E+01	-1.73371000E+03	 0.00000000E+00
	-7.26590000E+01	-1.73348000E+03	 0.00000000E+00
[...]
POINT_DATA 7532
VECTORS 1_1.0_DISP double
	 0.00000000E+00	 0.00000000E+00	 0.00000000E+00
	 0.00000000E+00	 0.00000000E+00	 0.00000000E+00
	 0.00000000E+00	 0.00000000E+00	 0.00000000E+00
	 0.00000000E+00	 0.00000000E+00	 0.00000000E+00
	 0.00000000E+00	 0.00000000E+00	 0.00000000E+00
	 0.00000000E+00	 0.00000000E+00	 0.00000000E+00
	 0.00000000E+00	 0.00000000E+00	 0.00000000E+00
	 0.00000000E+00	 0.00000000E+00	 0.00000000E+00
	 0.00000000E+00	 0.00000000E+00	 0.00000000E+00
	 0.00000000E+00	 0.00000000E+00	 0.00000000E+00
	 0.00000000E+00	 0.00000000E+00	 0.00000000E+00
	 0.00000000E+00	 0.00000000E+00	 0.00000000E+00
	 0.00000000E+00	 0.00000000E+00	 0.00000000E+00
	 0.00000000E+00	 0.00000000E+00	 0.00000000E+00
	 0.00000000E+00	 0.00000000E+00	 0.00000000E+00
	 0.00000000E+00	 0.00000000E+00	 0.00000000E+00
	 0.00000000E+00	 0.00000000E+00	 0.00000000E+00
	 0.00000000E+00	 0.00000000E+00	 0.00000000E+00
	 0.00000000E+00	 0.00000000E+00	 0.00000000E+00
	 0.00000000E+00	 0.00000000E+00	 0.00000000E+00
	 0.00000000E+00	 0.00000000E+00	 0.00000000E+00
	 0.00000000E+00	 0.00000000E+00	 0.00000000E+00
	 0.00000000E+00	 0.00000000E+00	 0.00000000E+00
	 0.00000000E+00	 0.00000000E+00	 0.00000000E+00
	 0.00000000E+00	 0.00000000E+00	 0.00000000E+00
	 0.00000000E+00	 0.00000000E+00	 0.00000000E+00
	 0.00000000E+00	 0.00000000E+00	 0.00000000E+00
	 0.00000000E+00	 0.00000000E+00	 0.00000000E+00
	 0.00000000E+00	 0.00000000E+00	 0.00000000E+00
	 0.00000000E+00	 0.00000000E+00	 0.00000000E+00
	 0.00000000E+00	 0.00000000E+00	 0.00000000E+00
	 0.00000000E+00	 0.00000000E+00	 0.00000000E+00
	 0.00000000E+00	 0.00000000E+00	 0.00000000E+00
	 0.00000000E+00	 0.00000000E+00	 0.00000000E+00
	 0.00000000E+00	 0.00000000E+00	 0.00000000E+00
	 0.00000000E+00	 0.00000000E+00	 0.00000000E+00
	 0.00000000E+00	 0.00000000E+00	 0.00000000E+00
	 0.00000000E+00	 0.00000000E+00	 0.00000000E+00
	 0.00000000E+00	 0.00000000E+00	 0.00000000E+00
	 0.00000000E+00	 0.00000000E+00	 0.00000000E+00
	 0.00000000E+00	 0.00000000E+00	 0.00000000E+00
	 0.00000000E+00	 0.00000000E+00	 0.00000000E+00
	 0.00000000E+00	 0.00000000E+00	 0.00000000E+00
	 0.00000000E+00	 0.00000000E+00	 0.00000000E+00
	 0.00000000E+00	 0.00000000E+00	 0.00000000E+00
	 0.00000000E+00	 0.00000000E+00	 0.00000000E+00
	 0.00000000E+00	 0.00000000E+00	 0.00000000E+00
	 0.00000000E+00	 0.00000000E+00	 0.00000000E+00
	 0.00000000E+00	 0.00000000E+00	 0.00000000E+00
	 0.00000000E+00	 0.00000000E+00	 0.00000000E+00
	 0.00000000E+00	 0.00000000E+00	 0.00000000E+00
	 0.00000000E+00	 0.00000000E+00	 0.00000000E+00
	 0.00000000E+00	 0.00000000E+00	 0.00000000E+00
	 0.00000000E+00	 0.00000000E+00	 0.00000000E+00
	 0.00000000E+00	 0.00000000E+00	 0.00000000E+00
	 0.00000000E+00	 0.00000000E+00	 0.00000000E+00
	 0.00000000E+00	 0.00000000E+00	 0.00000000E+00
	 0.00000000E+00	 0.00000000E+00	 0.00000000E+00
	 0.00000000E+00	 0.00000000E+00	 0.00000000E+00
	 0.00000000E+00	 0.00000000E+00	 0.00000000E+00
	 0.00000000E+00	 0.00000000E+00	 0.00000000E+00
	 0.00000000E+00	 0.00000000E+00	 0.00000000E+00
	 0.00000000E+00	 0.00000000E+00	 0.00000000E+00
	 0.00000000E+00	 0.00000000E+00	 0.00000000E+00
	 0.00000000E+00	 0.00000000E+00	 0.00000000E+00
	 0.00000000E+00	 0.00000000E+00	 0.00000000E+00
	 0.00000000E+00	 0.00000000E+00	 0.00000000E+00
	 0.00000000E+00	 0.00000000E+00	 0.00000000E+00
	 0.00000000E+00	 0.00000000E+00	 0.00000000E+00
	 0.00000000E+00	 0.00000000E+00	 0.00000000E+00
	 0.00000000E+00	 0.00000000E+00	 0.00000000E+00
	 0.00000000E+00	 0.00000000E+00	 0.00000000E+00
	 0.00000000E+00	 0.00000000E+00	 0.00000000E+00
	 0.00000000E+00	 0.00000000E+00	 0.00000000E+00
	 0.00000000E+00	 0.00000000E+00	 0.00000000E+00
	 0.00000000E+00	 0.00000000E+00	 0.00000000E+00
	 0.00000000E+00	 0.00000000E+00	 0.00000000E+00
	 0.00000000E+00	 0.00000000E+00	 0.00000000E+00
	 0.00000000E+00	 0.00000000E+00	 0.00000000E+00
	 0.00000000E+00	 0.00000000E+00	 0.00000000E+00
	 0.00000000E+00	 0.00000000E+00	 0.00000000E+00
	 0.00000000E+00	 0.00000000E+00	 0.00000000E+00
	 0.00000000E+00	 0.00000000E+00	 0.00000000E+00
	 0.00000000E+00	 0.00000000E+00	 0.00000000E+00
	 0.00000000E+00	 0.00000000E+00	 0.00000000E+00
	 0.00000000E+00	 0.00000000E+00	 0.00000000E+00
	 0.00000000E+00	 0.00000000E+00	 0.00000000E+00
	 0.00000000E+00	 0.00000000E+00	 0.00000000E+00
	 0.00000000E+00	 0.00000000E+00	 0.00000000E+00
	 0.00000000E+00	 0.00000000E+00	 0.00000000E+00
	 0.00000000E+00	 0.00000000E+00	 0.00000000E+00
	 0.00000000E+00	 0.00000000E+00	 0.00000000E+00
	 0.00000000E+00	 0.00000000E+00	 0.00000000E+00
	 0.00000000E+00	 0.00000000E+00	 0.00000000E+00
	 0.00000000E+00	 0.00000000E+00	 0.00000000E+00
	 0.00000000E+00	 0.00000000E+00	 0.00000000E+00
	 0.00000000E+00	 0.00000000E+00	 0.00000000E+00
	 0.00000000E+00	 0.00000000E+00	 0.00000000E+00
	 0.00000000E+00	 0.00000000E+00	 0.00000000E+00
	 0.00000000E+00	 0.00000000E+00	 0.00000000E+00
	 0.00000000E+00	 0.00000000E+00	 0.00000000E+00
	 0.00000000E+00	 0.00000000E+00	 0.00000000E+00
	 0.00000000E+00	 0.00000000E+00	 0.00000000E+00
	 0.00000000E+00	 0.00000000E+00	 0.00000000E+00
	 0.00000000E+00	 0.00000000E+00	 0.00000000E+00
	 0.00000000E+00	 0.00000000E+00	 0.00000000E+00
	 0.00000000E+00	 0.00000000E+00	 0.00000000E+00
	 0.00000000E+00	 0.00000000E+00	 0.00000000E+00
	 0.00000000E+00	 0.00000000E+00	 0.00000000E+00
	 0.00000000E+00	 0.00000000E+00	 0.00000000E+00
	 0.00000000E+00	 0.00000000E+00	 0.00000000E+00
	 0.00000000E+00	 0.00000000E+00	 0.00000000E+00
	 0.00000000E+00	 0.00000000E+00	 0.00000000E+00
	 0.00000000E+00	 0.00000000E+00	 0.00000000E+00
	 0.00000000E+00	 0.00000000E+00	 0.00000000E+00
	 0.00000000E+00	 0.00000000E+00	 0.00000000E+00
	 0.00000000E+00	 0.00000000E+00	 0.00000000E+00
	 0.00000000E+00	 0.00000000E+00	 0.00000000E+00
	 0.00000000E+00	 0.00000000E+00	 0.00000000E+00
	 0.00000000E+00	 0.00000000E+00	 0.00000000E+00
	 0.00000000E+00	 0.00000000E+00	 0.00000000E+00
	 0.00000000E+00	 0.00000000E+00	 0.00000000E+00
	 0.00000000E+00	 0.00000000E+00	 0.00000000E+00
	 0.00000000E+00	 0.00000000E+00	 0.00000000E+00
	 0.00000000E+00	 0.00000000E+00	 0.00000000E+00
	 0.00000000E+00	 0.00000000E+00	 0.00000000E+00
	 0.00000000E+00	 0.00000000E+00	 0.00000000E+00
	 0.00000000E+00	 0.00000000E+00	 0.00000000E+00
	 0.00000000E+00	 0.00000000E+00	 0.00000000E+00
	 0.00000000E+00	 0.00000000E+00	 0.00000000E+00
	 0.00000000E+00	 0.00000000E+00	 0.00000000E+00
	 0.00000000E+00	 0.00000000E+00	 0.00000000E+00
	 0.00000000E+00	 0.00000000E+00	 0.00000000E+00
	 0.00000000E+00	 0.00000000E+00	 0.00000000E+00
	 0.00000000E+00	 0.00000000E+00	 0.00000000E+00
	 0.00000000E+00	 0.00000000E+00	 0.00000000E+00
	 0.00000000E+00	 0.00000000E+00	 0.00000000E+00
	 0.00000000E+00	 0.00000000E+00	 0.00000000E+00
	 0.00000000E+00	 0.00000000E+00	 0.00000000E+00
	 0.00000000E+00	 0.00000000E+00	 0.00000000E+00
	 0.00000000E+00	 0.00000000E+00	 0.00000000E+00
	 0.00000000E+00	 0.00000000E+00	 0.00000000E+00
	 0.00000000E+00	 0.00000000E+00	 0.00000000E+00
	 0.00000000E+00	 0.00000000E+00	 0.00000000E+00
	 0.00000000E+00	 0.00000000E+00	 0.00000000E+00
	 0.00000000E+00	 0.00000000E+00	 0.00000000E+00
	 0.00000000E+00	 0.00000000E+00	 0.00000000E+00
	 0.00000000E+00	 0.00000000E+00	 0.00000000E+00
	 0.00000000E+00	 0.00000000E+00	 0.00000000E+00
	 0.00000000E+00	 0.00000000E+00	 0.00000000E+00
	 0.00000000E+00	 0.00000000E+00	 0.00000000E+00
	 0.00000000E+00	 0.00000000E+00	 0.00000000E+00
	 0.00000000E+00	 0.00000000E+00	 0.00000000E+00
	 0.00000000E+00	 0.00000000E+00	 0.00000000E+00
	 0.00000000E+00	 0.00000000E+00	 0.00000000E+00
	 0.00000000E+00	 0.00000000E+00	 0.00000000E+00
	 0.00000000E+00	 0.00000000E+00	 0.00000000E+00
	 0.00000000E+00	 0.00000000E+00	 0.00000000E+00
	 0.00000000E+00	 0.00000000E+00	 0.00000000E+00
	 0.00000000E+00	 0.00000000E+00	 0.00000000E+00
	 0.00000000E+00	 0.00000000E+00	 0.00000000E+00
	 0.00000000E+00	 0.00000000E+00	 0.00000000E+00
	 0.00000000E+00	 0.00000000E+00	 0.00000000E+00
	 0.00000000E+00	 0.00000000E+00	 0.00000000E+00
	 0.00000000E+00	 0.00000000E+00	 0.00000000E+00
	 0.00000000E+00	 0.00000000E+00	 0.00000000E+00
	 0.00000000E+00	 0.00000000E+00	 0.00000000E+00
	 0.00000000E+00	 0.00000000E+00	 0.00000000E+00
	 0.00000000E+00	 0.00000000E+00	 0.00000000E+00
	 0.00000000E+00	 0.00000000E+00	 0.00000000E+00
	 0.00000000E+00	 0.00000000E+00	 0.00000000E+00
	 0.00000000E+00	 0.00000000E+00	 0.00000000E+00
	 0.00000000E+00	 0.00000000E+00	 0.00000000E+00
	 0.00000000E+00	 0.00000000E+00	 0.00000000E+00
	 0.00000000E+00	 0.00000000E+00	 0.00000000E+00
	 0.00000000E+00	 0.00000000E+00	 0.00000000E+00
	 0.00000000E+00	 0.00000000E+00	 0.00000000E+00
	 0.00000000E+00	 0.00000000E+00	 0.00000000E+00
	 0.00000000E+00	 0.00000000E+00	 0.00000000E+00
	 0.00000000E+00	 0.00000000E+00	 0.00000000E+00
	 0.00000000E+00	 0.00000000E+00	 0.00000000E+00
	 0.00000000E+00	 0.00000000E+00	 0.00000000E+00
	 0.00000000E+00	 0.00000000E+00	 0.00000000E+00
	 0.00000000E+00	 0.00000000E+00	 0.00000000E+00
	 0.00000000E+00	 0.00000000E+00	 0.00000000E+00
	 0.00000000E+00	 0.00000000E+00	 0.00000000E+00
	 0.00000000E+00	 0.00000000E+00	 0.00000000E+00
	 0.00000000E+00	 0.00000000E+00	 0.00000000E+00
	 0.00000000E+00	 0.00000000E+00	 0.00000000E+00
	 0.00000000E+00	 0.00000000E+00	 0.00000000E+00
	 0.00000000E+00	 0.00000000E+00	 0.00000000E+00
	 0.00000000E+00	 0.00000000E+00	 0.00000000E+00
	 0.00000000E+00	 0.00000000E+00	 0.00000000E+00
	 0.00000000E+00	 0.00000000E+00	 0.00000000E+00
	 0.00000000E+00	 0.00000000E+00	 0.00000000E+00
	 0.00000000E+00	 0.00000000E+00	 0.00000000E+00
	 0.00000000E+00	 0.00000000E+00	 0.00000000E+00
	 0.00000000E+00	 0.00000000E+00	 0.00000000E+00
	 0.00000000E+00	 0.00000000E+00	 0.00000000E+00
	 0.00000000E+00	 0.00000000E+00	 0.00000000E+00
	 0.00000000E+00	 0.00000000E+00	 0.00000000E+00
	 0.00000000E+00	 0.00000000E+00	 0.00000000E+00
	 0.00000000E+00	 0.00000000E+00	 0.00000000E+00
	 0.00000000E+00	 0.00000000E+00	 0.00000000E+00
	 0.00000000E+00	 0.00000000E+00	 0.00000000E+00
	 0.00000000E+00	 0.00000000E+00	 0.00000000E+00
	 0.00000000E+00	 0.00000000E+00	 0.00000000E+00
	 0.00000000E+00	 0.00000000E+00	 0.00000000E+00
	 0.00000000E+00	 0.00000000E+00	 0.00000000E+00
	 0.00000000E+00	 0.00000000E+00	 0.00000000E+00
	 0.00000000E+00	 0.00000000E+00	 0.00000000E+00
	 0.00000000E+00	 0.00000000E+00	 0.00000000E+00
	 0.00000000E+00	 0.00000000E+00	 0.00000000E+00
	 0.00000000E+00	 0.00000000E+00	 0.00000000E+00
	 0.00000000E+00	 0.00000000E+00	 0.00000000E+00
	 0.00000000E+00	 0.00000000E+00	 0.00000000E+00
	 0.00000000E+00	 0.00000000E+00	 0.00000000E+00
	 0.00000000E+00	 0.00000000E+00	 0.00000000E+00
	 0.00000000E+00	 0.00000000E+00	 0.00000000E+00
	 0.00000000E+00	 0.00000000E+00	 0.00000000E+00
	 0.00000000E+00	 0.00000000E+00	 0.00000000E+00
	 0.00000000E+00	 0.00000000E+00	 0.00000000E+00
	 0.00000000E+00	 0.00000000E+00	 0.00000000E+00
	 0.00000000E+00	 0.00000000E+00	 0.00000000E+00
	 0.00000000E+00	 0.00000000E+00	 0.00000000E+00
	 0.00000000E+00	 0.00000000E+00	 0.00000000E+00
	 0.00000000E+00	 0.00000000E+00	 0.00000000E+00
	 0.00000000E+00	 0.00000000E+00	 0.00000000E+00
	 0.00000000E+00	 0.00000000E+00	 0.00000000E+00
	 0.00000000E+00	 0.00000000E+00	 0.00000000E+00
	 0.00000000E+00	 0.00000000E+00	 0.00000000E+00
	 0.00000000E+00	 0.00000000E+00	 0.00000000E+00
	 0.00000000E+00	 0.00000000E+00	 0.00000000E+00
	 0.00000000E+00	 0.00000000E+00	 0.00000000E+00
	 0.00000000E+00	 0.00000000E+00	 0.00000000E+00
	 0.00000000E+00	 0.00000000E+00	 0.00000000E+00
	 0.00000000E+00	 0.00000000E+00	 0.00000000E+00
	 0.00000000E+00	 0.00000000E+00	 0.00000000E+00
	 0.00000000E+00	 0.00000000E+00	 0.00000000E+00
	 0.00000000E+00	 0.00000000E+00	 0.00000000E+00
	 0.00000000E+00	 0.00000000E+00	 0.00000000E+00
	 0.00000000E+00	 0.00000000E+00	 0.00000000E+00
	 0.00000000E+00	 0.00000000E+00	 0.00000000E+00
	 0.00000000E+00	 0.00000000E+00	 0.00000000E+00
	 0.00000000E+00	 0.00000000E+00	 0.00000000E+00
	 0.00000000E+00	 0.00000000E+00	 0.00000000E+00
	 0.00000000E+00	 0.00000000E+00	 0.00000000E+00
	 0.00000000E+00	 0.00000000E+00	 0.00000000E+00
	 0.00000000E+00	 0.00000000E+00	 0.00000000E+00
	 0.00000000E+00	 0.00000000E+00	 0.00000000E+00
	 0.00000000E+00	 0.00000000E+00	 0.00000000E+00
	 0.00000000E+00	 0.00000000E+00	 0.00000000E+00
	 0.00000000E+00	 0.00000000E+00	 0.00000000E+00
	 0.00000000E+00	 0.00000000E+00	 0.00000000E+00
	 0.00000000E+00	 0.00000000E+00	 0.00000000E+00
	 0.00000000E+00	 0.00000000E+00	 0.00000000E+00
	 0.00000000E+00	 0.00000000E+00	 0.00000000E+00
	 0.00000000E+00	 0.00000000E+00	 0.00000000E+00
	 0.00000000E+00	 0.00000000E+00	 0.00000000E+00
	 0.00000000E+00	 0.00000000E+00	 0.00000000E+00
	 0.00000000E+00	 0.00000000E+00	 0.00000000E+00
	 0.00000000E+00	 0.00000000E+00	 0.00000000E+00
	 0.00000000E+00	 0.00000000E+00	 0.00000000E+00
	 0.00000000E+00	 0.00000000E+00	 0.00000000E+00
	 0.00000000E+00	 0.00000000E+00	 0.00000000E+00
	 0.00000000E+00	 0.00000000E+00	 0.00000000E+00
	 0.00000000E+00	 0.00000000E+00	 0.00000000E+00
	 0.00000000E+00	 0.00000000E+00	 0.00000000E+00
	 0.00000000E+00	 0.00000000E+00	 0.00000000E+00
	 0.00000000E+00	 0.00000000E+00	 0.00000000E+00
	 0.00000000E+00	 0.00000000E+00	 0.00000000E+00
	 0.00000000E+00	 0.00000000E+00	 0.00000000E+00
	 0.00000000E+00	 0.00000000E+00	 0.00000000E+00
	 0.00000000E+00	 0.00000000E+00	 0.00000000E+00
	 0.00000000E+00	 0.00000000E+00	 0.00000000E+00
	 0.00000000E+00	 0.00000000E+00	 0.00000000E+00
	 0.00000000E+00	 0.00000000E+00	 0.00000000E+00
	 0.00000000E+00	 0.00000000E+00	 0.00000000E+00
	 0.00000000E+00	 0.00000000E+00	 0.00000000E+00
	 0.00000000E+00	 0.00000000E+00	 0.00000000E+00
	 0.00000000E+00	 0.00000000E+00	 0.00000000E+00
	 0.00000000E+00	 0.00000000E+00	 0.00000000E+00
	 0.00000000E+00	 0.00000000E+00	 0.00000000E+00
	 0.00000000E+00	 0.00000000E+00	 0.00000000E+00
	 0.00000000E+00	 0.00000000E+00	 0.00000000E+00
	 0.00000000E+00	 0.00000000E+00	 0.00000000E+00
	 0.00000000E+00	 0.00000000E+00	 0.00000000E+00
	 0.00000000E+00	 0.00000000E+00	 0.00000000E+00
	 0.00000000E+00	 0.00000000E+00	 0.00000000E+00
	 0.00000000E+00	 0.00000000E+00	 0.00000000E+00
	 0.00000000E+00	 0.00000000E+00	 0.00000000E+00
	 0.00000000E+00	 0.00000000E+00	 0.00000000E+00
	 0.00000000E+00	 0.00000000E+00	 0.00000000E+00
	 0.00000000E+00	 0.00000000E+00	 0.00000000E+00
	 0.00000000E+00	 0.00000000E+00	 0.00000000E+00
	 0.00000000E+00	 0.00000000E+00	 0.00000000E+00
	 0.00000000E+00	 0.00000000E+00	 0.00000000E+00
	 0.00000000E+00	 0.00000000E+00	 0.00000000E+00
	 0.00000000E+00	 0.00000000E+00	 0.00000000E+00
	 0.00000000E+00	 0.00000000E+00	 0.00000000E+00
	 0.00000000E+00	 0.00000000E+00	 0.00000000E+00
	 0.00000000E+00	 0.00000000E+00	 0.00000000E+00
	 0.00000000E+00	 0.00000000E+00	 0.00000000E+00
	 0.00000000E+00	 0.00000000E+00	 0.00000000E+00
	 0.00000000E+00	 0.00000000E+00	 0.00000000E+00
	 0.00000000E+00	 0.00000000E+00	 0.00000000E+00
	 0.00000000E+00	 0.00000000E+00	 0.00000000E+00
	 0.00000000E+00	 0.00000000E+00	 0.00000000E+00
	 0.00000000E+00	 0.00000000E+00	 0.00000000E+00
	 0.00000000E+00	 0.00000000E+00	 0.00000000E+00
	 0.00000000E+00	 0.00000000E+00	 0.00000000E+00
	 0.00000000E+00	 0.00000000E+00	 0.00000000E+00
	 0.00000000E+00	 0.00000000E+00	 0.00000000E+00
	 0.00000000E+00	 0.00000000E+00	 0.00000000E+00
	 0.00000000E+00	 0.00000000E+00	 0.00000000E+00
	 0.00000000E+00	 0.00000000E+00	 0.00000000E+00
	 0.00000000E+00	 0.00000000E+00	 0.00000000E+00
	 0.00000000E+00	 0.00000000E+00	 0.00000000E+00
	 0.00000000E+00	 0.00000000E+00	 0.00000000E+00
	 0.00000000E+00	 0.00000000E+00	 0.00000000E+00
	 0.00000000E+00	 0.00000000E+00	 0.00000000E+00
	 0.00000000E+00	 0.00000000E+00	 0.00000000E+00
	 0.00000000E+00	 0.00000000E+00	 0.00000000E+00
	 0.00000000E+00	 0.00000000E+00	 0.00000000E+00
	 0.00000000E+00	 0.00000000E+00	 0.00000000E+00
	 0.00000000E+00	 0.00000000E+00	 0.00000000E+00
	 0.00000000E+00	 0.00000000E+00	 0.00000000E+00
	 0.00000000E+00	 0.00000000E+00	 0.00000000E+00
	 0.00000000E+00	 0.00000000E+00	 0.00000000E+00
	 0.00000000E+00	 0.00000000E+00	 0.00000000E+00
	 0.00000000E+00	 0.00000000E+00	 0.00000000E+00
	 0.00000000E+00	 0.00000000E+00	 0.00000000E+00
	 0.00000000E+00	 0.00000000E+00	 0.00000000E+00
	 0.00000000E+00	 0.00000000E+00	 0.00000000E+00
	 0.00000000E+00	 0.00000000E+00	 0.00000000E+00
	 0.00000000E+00	 0.00000000E+00	 0.00000000E+00
	 0.00000000E+00	 0.00000000E+00	 0.00000000E+00
	 0.00000000E+00	 0.00000000E+00	 0.00000000E+00
	 0.00000000E+00	 0.00000000E+00	 0.00000000E+00
	 0.00000000E+00	 0.00000000E+00	 0.00000000E+00
	 0.00000000E+00	 0.00000000E+00	 0.00000000E+00
	 0.00000000E+00	 0.00000000E+00	 0.00000000E+00
	 0.00000000E+00	 0.00000000E+00	 0.00000000E+00
	 0.00000000E+00	 0.00000000E+00	 0.00000000E+00
	 0.00000000E+00	 0.00000000E+00	 0.00000000E+00
	 0.00000000E+00	 0.00000000E+00	 0.00000000E+00
	 0.00000000E+00	 0.00000000E+00	 0.00000000E+00
	 0.00000000E+00	 0.00000000E+00	 0.00000000E+00
	 0.00000000E+00	 0.00000000E+00	 0.00000000E+00
	 0.00000000E+00	 0.00000000E+00	 0.00000000E+00
	 0.00000000E+00	 0.00000000E+00	 0.00000000E+00
	 0.00000000E+00	 0.00000000E+00	 0.00000000E+00
	 0.00000000E+00	 0.00000000E+00	 0.00000000E+00
	 0.00000000E+00	 0.00000000E+00	 0.00000000E+00
	 0.00000000E+00	 0.00000000E+00	 0.00000000E+00
	 0.00000000E+00	 0.00000000E+00	 0.00000000E+00
	 0.00000000E+00	 0.00000000E+00	 0.00000000E+00
	 0.00000000E+00	 0.00000000E+00	 0.00000000E+00
	 0.00000000E+00	 0.00000000E+00	 0.00000000E+00
	 0.00000000E+00	 0.00000000E+00	 0.00000000E+00
	 0.00000000E+00	 0.00000000E+00	 0.00000000E+00
	 0.00000000E+00	 0.00000000E+00	 0.00000000E+00
	 0.00000000E+00	 0.00000000E+00	 0.00000000E+00
	 0.00000000E+00	 0.00000000E+00	 0.00000000E+00
	 0.00000000E+00	 0.00000000E+00	 0.00000000E+00
	 0.00000000E+00	 0.00000000E+00	 0.00000000E+00
	 0.00000000E+00	 0.00000000E+00	 0.00000000E+00
	 0.00000000E+00	 0.00000000E+00	 0.00000000E+00
	 0.00000000E+00	 0.00000000E+00	 0.00000000E+00
	 0.00000000E+00	 0.00000000E+00	 0.00000000E+00
	 0.00000000E+00	 0.00000000E+00	 0.00000000E+00
	 0.00000000E+00	 0.00000000E+00	 0.00000000E+00
	 0.00000000E+00	 0.00000000E+00	 0.00000000E+00
	 0.00000000E+00	 0.00000000E+00	 0.00000000E+00
	 0.00000000E+00	 0.00000000E+00	 0.00000000E+00
	 0.00000000E+00	 0.00000000E+00	 0.00000000E+00
	 0.00000000E+00	 0.00000000E+00	 0.00000000E+00
	 0.00000000E+00	 0.00000000E+00	 0.00000000E+00
	 0.00000000E+00	 0.00000000E+00	 0.00000000E+00
	 0.00000000E+00	 0.00000000E+00	 0.00000000E+00
	 0.00000000E+00	 0.00000000E+00	 0.00000000E+00
	 0.00000000E+00	 0.00000000E+00	 0.00000000E+00
	 0.00000000E+00	 0.00000000E+00	 0.00000000E+00
	 0.00000000E+00	 0.00000000E+00	 0.00000000E+00
	 0.00000000E+00	 0.00000000E+00	 0.00000000E+00
	 0.00000000E+00	 0.00000000E+00	 0.00000000E+00
	 0.00000000E+00	 0.00000000E+00	 0.00000000E+00
	 0.00000000E+00	 0.00000000E+00	 0.00000000E+00
	 0.00000000E+00	 0.00000000E+00	 0.00000000E+00
	 0.00000000E+00	 0.00000000E+00	 0.00000000E+00
	 0.00000000E+00	 0.00000000E+00	 0.00000000E+00
	 0.00000000E+00	 0.00000000E+00	 0.00000000E+00
	 0.00000000E+00	 0.00000000E+00	 0.00000000E+00
	 0.00000000E+00	 0.00000000E+00	 0.00000000E+00
	 0.00000000E+00	 0.00000000E+00	 0.00000000E+00
	 0.00000000E+00	 0.00000000E+00	 0.00000000E+00
	 0.00000000E+00	 0.00000000E+00	 0.00000000E+00
	 0.00000000E+00	 0.00000000E+00	 0.00000000E+00
	 0.00000000E+00	 0.00000000E+00	 0.00000000E+00
	 0.00000000E+00	 0.00000000E+00	 0.00000000E+00
	 0.00000000E+00	 0.00000000E+00	 0.00000000E+00
	 0.00000000E+00	 0.00000000E+00	 0.00000000E+00
	 0.00000000E+00	 0.00000000E+00	 0.00000000E+00
	 0.00000000E+00	 0.00000000E+00	 0.00000000E+00
	 0.00000000E+00	 0.00000000E+00	 0.00000000E+00
	 0.00000000E+00	 0.00000000E+00	 0.00000000E+00
	 0.00000000E+00	 0.00000000E+00	 0.00000000E+00