    1C
    1UUSER                                                              
    1UDATE              25.may.2019                                     
    1UTIME              14:03:26                                        
    1UHOST                                                              
    1UPGM               CalculiX                                        
    1UVERSION           Version 2.15                             
    1UCOMPILETIME       Fri 15 Mar 11:57:46 CET 2019                    
    1UDIR                                                               
    1UDBN                                                               
    1UMAT    1STEEL                                                     
    2C                          7532                                     1
 -1         1 8.28240E+02-1.52455E+03 0.00000E+00
 -1         2-8.28240E+02-1.52455E+03 0.00000E+00
 -1         3 8.11987E+02-1.49640E+03 0.00000E+00
 -1         4 8.50959E+02-1.47390E+03 0.00000E+00
 -1         5 8.42500E+02-1.45925E+03 0.00000E+00
 -1         6 7.77500E+02-1.34667E+03 0.00000E+00
 -1         7 7.68500E+02-1.33108E+03 0.00000E+00
 -1         8 7.08000E+02-1.36601E+03 0.00000E+00
 -1         9 7.08000E+02-1.50227E+03 0.00000E+00
 -1        10 5.90000E+02-1.57039E+03 0.00000E+00
 -1        11 4.72000E+02-1.50227E+03 0.00000E+00
 -1        12 3.54000E+02-1.57039E+03 0.00000E+00
 -1        13 2.36000E+02-1.50227E+03 0.00000E+00
 -1        14 1.18000E+02-1.57039E+03 0.00000E+00
 -1        15 0.00000E+00-1.50227E+03 0.00000E+00
 -1        16-1.18000E+02-1.57039E+03 0.00000E+00
 -1        17-2.36000E+02-1.50227E+03 0.00000E+00
 -1        18-3.54000E+02-1.57039E+03 0.00000E+00
 -1        19-4.72000E+02-1.50227E+03 0.00000E+00
 -1        20-5.90000E+02-1.57039E+03 0.00000E+00
 -1        21-7.08000E+02-1.50227E+03 0.00000E+00
 -1        22-7.08000E+02-1.36601E+03 0.00000E+00
 -1        23-7.68500E+02-1.33108E+03 0.00000E+00
 -1        24-7.77500E+02-1.34667E+03 0.00000E+00
 -1        25-8.42500E+02-1.45925E+03 0.00000E+00
 -1        26-8.50959E+02-1.47390E+03 0.00000E+00
 -1        27-8.11987E+02-1.49640E+03 0.00000E+00
 -1        28 0.00000E+00-1.70700E+03 0.00000E+00
 -1        29 0.00000E+00-1.62040E+03 0.00000E+00
 -1        30-7.48000E+01-1.66370E+03 0.00000E+00
 -1        31 7.48000E+01-1.66370E+03 0.00000E+00
 -1        32-1.61200E+02-1.66370E+03 0.00000E+00
 -1        33 1.61200E+02-1.66370E+03 0.00000E+00
 -1        34-2.36000E+02-1.62040E+03 0.00000E+00
 -1        35 2.36000E+02-1.62040E+03 0.00000E+00
 -1        36-3.10800E+02-1.66370E+03 0.00000E+00
 -1        37 3.10800E+02-1.66370E+03 0.00000E+00
 -1        38-3.97200E+02-1.66370E+03 0.00000E+00
 -1        39 3.97200E+02-1.66370E+03 0.00000E+00
 -1        40-4.72000E+02-1.62040E+03 0.00000E+00
 -1        41 4.72000E+02-1.62040E+03 0.00000E+00
 -1        42 8.23126E+02-1.52731E+03 0.00000E+00
 -1        43 8.18003E+02-1.53006E+03 0.00000E+00
 -1        44 8.12871E+02-1.53280E+03 0.00000E+00
 -1        45 8.07729E+02-1.53551E+03 0.00000E+00
 -1        46 8.02579E+02-1.53821E+03 0.00000E+00
 -1        47 7.97420E+02-1.54089E+03 0.00000E+00
 -1        48 7.92251E+02-1.54356E+03 0.00000E+00
 -1        49 7.87074E+02-1.54620E+03 0.00000E+00
 -1        50 7.81888E+02-1.54883E+03 0.00000E+00
 -1        51 7.76693E+02-1.55144E+03 0.00000E+00
 -1        52 7.71489E+02-1.55404E+03 0.00000E+00
 -1        53 7.66277E+02-1.55661E+03 0.00000E+00
 -1        54 7.61056E+02-1.55917E+03 0.00000E+00
 -1        55 7.55827E+02-1.56171E+03 0.00000E+00
 -1        56 7.50589E+02-1.56424E+03 0.00000E+00
 -1        57 7.45342E+02-1.56674E+03 0.00000E+00
 -1        58 7.40088E+02-1.56923E+03 0.00000E+00
 -1        59 7.34825E+02-1.57171E+03 0.00000E+00
 -1        60 7.29553E+02-1.57416E+03 0.00000E+00
 -1        61 7.24274E+02-1.57660E+03 0.00000E+00
 -1        62 7.18986E+02-1.57901E+03 0.00000E+00
 -1        63 7.13690E+02-1.58141E+03 0.00000E+00
 -1        64 7.08387E+02-1.58380E+03 0.00000E+00
 -1        65 7.03075E+02-1.58616E+03 0.00000E+00
 -1        66 6.97755E+02-1.58851E+03 0.00000E+00
 -1        67 6.92428E+02-1.59084E+03 0.00000E+00
 -1        68 6.87093E+02-1.59315E+03 0.00000E+00
 -1        69 6.81750E+02-1.59544E+03 0.00000E+00
 -1        70 6.76399E+02-1.59772E+03 0.00000E+00
 -1        71 6.71041E+02-1.59998E+03 0.00000E+00
 -1        72 6.65676E+02-1.60222E+03 0.00000E+00
 -1        73 6.60302E+02-1.60444E+03 0.00000E+00
 -1        74 6.54922E+02-1.60664E+03 0.00000E+00
 -1        75 6.49534E+02-1.60883E+03 0.00000E+00
 -1        76 6.44139E+02-1.61100E+03 0.00000E+00
 -1        77 6.38736E+02-1.61315E+03 0.00000E+00
 -1        78 6.33327E+02-1.61528E+03 0.00000E+00
 -1        79 6.27910E+02-1.61739E+03 0.00000E+00
 -1        80 6.22486E+02-1.61949E+03 0.00000E+00
 -1        81 6.17055E+02-1.62156E+03 0.00000E+00
 -1        82 6.11617E+02-1.62362E+03 0.00000E+00
 -1        83 6.06173E+02-1.62566E+03 0.00000E+00
 -1        84 6.00721E+02-1.62769E+03 0.00000E+00
 -1        85 5.95263E+02-1.62969E+03 0.00000E+00
 -1        86 5.89799E+02-1.63167E+03 0.00000E+00
 -1        87 5.84327E+02-1.63364E+03 0.00000E+00
 -1        88 5.78849E+02-1.63559E+03 0.00000E+00
 -1        89 5.73365E+02-1.63752E+03 0.00000E+00
 -1        90 5.67874E+02-1.63943E+03 0.00000E+00
 -1        91 5.62376E+02-1.64133E+03 0.00000E+00
 -1        92 5.56873E+02-1.64320E+03 0.00000E+00
 -1        93 5.51363E+02-1.64506E+03 0.00000E+00
 -1        94 5.45847E+02-1.64690E+03 0.00000E+00
 -1        95 5.40324E+02-1.64872E+03 0.00000E+00
 -1        96 5.34796E+02-1.65052E+03 0.00000E+00
 -1        97 5.29262E+02-1.65230E+03 0.00000E+00
 -1        98 5.23721E+02-1.65407E+03 0.00000E+00
 -1        99 5.18175E+02-1.65581E+03 0.00000E+00
 -1       100 5.12623E+02-1.65754E+03 0.00000E+00
 -1       101 5.07066E+02-1.65925E+03 0.00000E+00
 -1       102 5.01502E+02-1.66094E+03 0.00000E+00
 -1       103 4.95933E+02-1.66261E+03 0.00000E+00
 -1       104 4.90359E+02-1.66426E+03 0.00000E+00
 -1       105 4.84779E+02-1.66590E+03 0.00000E+00
 -1       106 4.79193E+02-1.66751E+03 0.00000E+00
 -1       107 4.73602E+02-1.66911E+03 0.00000E+00
 -1       108 4.68006E+02-1.67069E+03 0.00000E+00
 -1       109 4.62404E+02-1.67225E+03 0.00000E+00
 -1       110 4.56798E+02-1.67379E+03 0.00000E+00
 -1       111 4.51186E+02-1.67531E+03 0.00000E+00
 -1       112 4.45569E+02-1.67681E+03 0.00000E+00
 -1       113 4.39947E+02-1.67829E+03 0.00000E+00
 -1       114 4.34320E+02-1.67976E+03 0.00000E+00
 -1       115 4.28688E+02-1.68121E+03 0.00000E+00
 -1       116 4.23052E+02-1.68263E+03 0.00000E+00
 -1       117 4.17410E+02-1.68404E+03 0.00000E+00
 -1       118 4.11765E+02-1.68543E+03 0.00000E+00
 -1       119 4.06114E+02-1.68680E+03 0.00000E+00
 -1       120 4.00459E+02-1.68815E+03 0.00000E+00
 -1       121 3.94799E+02-1.68948E+03 0.00000E+00
 -1       122 3.89135E+02-1.69080E+03 0.00000E+00
 -1       123 3.83467E+02-1.69209E+03 0.00000E+00
 -1       124 3.77794E+02-1.69337E+03 0.00000E+00
 -1       125 3.72117E+02-1.69463E+03 0.00000E+00
 -1       126 3.66436E+02-1.69586E+03 0.00000E+00
 -1       127 3.60750E+02-1.69708E+03 0.00000E+00
 -1       128 3.55061E+02-1.69828E+03 0.00000E+00
 -1       129 3.49368E+02-1.69946E+03 0.00000E+00
 -1       130 3.43670E+02-1.70062E+03 0.00000E+00
 -1       131 3.37969E+02-1.70176E+03 0.00000E+00
 -1       132 3.32264E+02-1.70289E+03 0.00000E+00
 -1       133 3.26556E+02-1.70399E+03 0.00000E+00
 -1       134 3.20843E+02-1.70508E+03 0.00000E+00
 -1       135 3.15127E+02-1.70614E+03 0.00000E+00
 -1       136 3.09408E+02-1.70719E+03 0.00000E+00
 -1       137 3.03685E+02-1.70822E+03 0.00000E+00
 -1       138 2.97958E+02-1.70922E+03 0.00000E+00
 -1       139 2.92229E+02-1.71021E+03 0.00000E+00
 -1       140 2.86496E+02-1.71118E+03 0.00000E+00
 -1       141 2.80760E+02-1.71213E+03 0.00000E+00
 -1       142 2.75020E+02-1.71306E+03 0.00000E+00
 -1       143 2.69278E+02-1.71398E+03 0.00000E+00
 -1       144 2.63532E+02-1.71487E+03 0.00000E+00
 -1       145 2.57784E+02-1.71574E+03 0.00000E+00
 -1       146 2.52033E+02-1.71660E+03 0.00000E+00
 -1       147 2.46278E+02-1.71743E+03 0.00000E+00
 -1       148 2.40521E+02-1.71825E+03 0.00000E+00
 -1       149 2.34762E+02-1.71904E+03 0.00000E+00
 -1       150 2.29000E+02-1.71982E+03 0.00000E+00
 -1       151 2.23235E+02-1.72058E+03 0.00000E+00
 -1       152 2.17467E+02-1.72132E+03 0.00000E+00
 -1       153 2.11698E+02-1.72204E+03 0.00000E+00
 -1       154 2.05925E+02-1.72274E+03 0.00000E+00
 -1       155 2.00151E+02-1.72342E+03 0.00000E+00
 -1       156 1.94374E+02-1.72408E+03 0.00000E+00
 -1       157 1.88595E+02-1.72472E+03 0.00000E+00
 -1       158 1.82814E+02-1.72534E+03 0.00000E+00
 -1       159 1.77031E+02-1.72594E+03 0.00000E+00
 -1       160 1.71246E+02-1.72653E+03 0.00000E+00
 -1       161 1.65459E+02-1.72709E+03 0.00000E+00
 -1       162 1.59670E+02-1.72764E+03 0.00000E+00
 -1       163 1.53880E+02-1.72816E+03 0.00000E+00
 -1       164 1.48087E+02-1.72867E+03 0.00000E+00
 -1       165 1.42293E+02-1.72916E+03 0.00000E+00
 -1       166 1.36498E+02-1.72962E+03 0.00000E+00
 -1       167 1.30701E+02-1.73007E+03 0.00000E+00
 -1       168 1.24902E+02-1.73050E+03 0.00000E+00
 -1       169 1.19102E+02-1.73091E+03 0.00000E+00
 -1       170 1.13301E+02-1.73130E+03 0.00000E+00
 -1       171 1.07498E+02-1.73167E+03 0.00000E+00
 -1       172 1.01694E+02-1.73202E+03 0.00000E+00
 -1       173 9.58891E+01-1.73235E+03 0.00000E+00
 -1       174 9.00831E+01-1.73266E+03 0.00000E+00
 -1       175 8.42760E+01-1.73295E+03 0.00000E+00
 -1       176 7.84680E+01-1.73322E+03 0.00000E+00
 -1       177 7.26590E+01-1.73348E+03 0.00000E+00
 -1       178 6.68493E+01-1.73371E+03 0.00000E+00
 -1       179 6.10389E+01-1.73393E+03 0.00000E+00
 -1       180 5.52277E+01-1.73412E+03 0.00000E+00
 -1       181 4.94159E+01-1.73430E+03 0.00000E+00
 -1       182 4.36036E+01-1.73445E+03 0.00000E+00
 -1       183 3.77908E+01-1.73459E+03 0.00000E+00
 -1       184 3.19775E+01-1.73471E+03 0.00000E+00
 -1       185 2.61639E+01-1.73480E+03 0.00000E+00
 -1       186 2.03500E+01-1.73488E+03 0.00000E+00
 -1       187 1.45359E+01-1.73494E+03 0.00000E+00
 -1       188 8.72160E+00-1.73498E+03 0.00000E+00
 -1       189 2.90721E+00-1.73500E+03 0.00000E+00
 -1       190-2.90721E+00-1.73500E+03 0.00000E+00
 -1       191-8.72160E+00-1.73498E+03 0.00000E+00
 -1       192-1.45359E+01-1.73494E+03 0.00000E+00
 -1       193-2.03500E+01-1.73488E+03 0.00000E+00
 -1       194-2.61639E+01-1.73480E+03 0.00000E+00
 -1       195-3.19775E+01-1.73471E+03 0.00000E+00
 -1       196-3.77908E+01-1.73459E+03 0.00000E+00
 -1       197-4.36036E+01-1.73445E+03 0.00000E+00
 -1       198-4.94159E+01-1.73430E+03 0.00000E+00
 -1       199-5.52277E+01-1.73412E+03 0.00000E+00
 -1       200-6.10389E+01-1.73393E+03 0.00000E+00
 -1       201-6.68493E+01-1.73371E+03 0.00000E+00
 -1       202-7.26590E+01-1.73348E+03 0.00000E+00
 -1       203-7.84680E+01-1.73322E+03 0.00000E+00
 -1       204-8.42760E+01-1.73295E+03 0.00000E+00
 -1       205-9.00831E+01-1.73266E+03 0.00000E+00
 -1       206-9.58891E+01-1.73235E+03 0.00000E+00
 -1       207-1.01694E+02-1.73202E+03 0.00000E+00
 -1       208-1.07498E+02-1.73167E+03 0.00000E+00
 -1       209-1.13301E+02-1.73130E+03 0.00000E+00
 -1       210-1.19102E+02-1.73091E+03 0.00000E+00
 -1       211-1.24902E+02-1.73050E+03 0.00000E+00
 -1       212-1.30701E+02-1.73007E+03 0.00000E+00
 -1       213-1.36498E+02-1.72962E+03 0.00000E+00
 -1       214-1.42293E+02-1.72916E+03 0.00000E+00
 -1       215-1.48087E+02-1.72867E+03 0.00000E+00
 -1       216-1.53880E+02-1.72816E+03 0.00000E+00
 -1       217-1.59670E+02-1.72764E+03 0.00000E+00
 -1       218-1.65459E+02-1.72709E+03 0.00000E+00
 -1       219-1.71246E+02-1.72653E+03 0.00000E+00
 -1       220-1.77031E+02-1.72594E+03 0.00000E+00
 -1       221-1.82814E+02-1.72534E+03 0.00000E+00
 -1       222-1.88595E+02-1.72472E+03 0.00000E+00
 -1       223-1.94374E+02-1.72408E+03 0.00000E+00
 -1       224-2.00151E+02-1.72342E+03 0.00000E+00
 -1       225-2.05925E+02-1.72274E+03 0.00000E+00
 -1       226-2.11698E+02-1.72204E+03 0.00000E+00
 -1       227-2.17467E+02-1.72132E+03 0.00000E+00
 -1       228-2.23235E+02-1.72058E+03 0.00000E+00
 -1       229-2.29000E+02-1.71982E+03 0.00000E+00
 -1       230-2.34762E+02-1.71904E+03 0.00000E+00
 -1       231-2.40521E+02-1.71825E+03 0.00000E+00
 -1       232-2.46278E+02-1.71743E+03 0.00000E+00
 -1       233-2.52033E+02-1.71660E+03 0.00000E+00
 -1       234-2.57784E+02-1.71574E+03 0.00000E+00
 -1       235-2.63532E+02-1.71487E+03 0.00000E+00
 -1       236-2.69278E+02-1.71398E+03 0.00000E+00
 -1       237-2.75020E+02-1.71306E+03 0.00000E+00
 -1       238-2.80760E+02-1.71213E+03 0.00000E+00
 -1       239-2.86496E+02-1.71118E+03 0.00000E+00
 -1       240-2.92229E+02-1.71021E+03 0.00000E+00
 -1       241-2.97958E+02-1.70922E+03 0.00000E+00
 -1       242-3.03685E+02-1.70822E+03 0.00000E+00
 -1       243-3.09408E+02-1.70719E+03 0.00000E+00
 -1       244-3.15127E+02-1.70614E+03 0.00000E+00
 -1       245-3.20843E+02-1.70508E+03 0.00000E+00
 -1       246-3.26556E+02-1.70399E+03 0.00000E+00
 -1       247-3.32264E+02-1.70289E+03 0.00000E+00
 -1       248-3.37969E+02-1.70176E+03 0.00000E+00
 -1       249-3.43670E+02-1.70062E+03 0.00000E+00
 -1       250-3.49368E+02-1.69946E+03 0.00000E+00
 -1       251-3.55061E+02-1.69828E+03 0.00000E+00
 -1       252-3.60750E+02-1.69708E+03 0.00000E+00
 -1       253-3.66436E+02-1.69586E+03 0.00000E+00
 -1       254-3.72117E+02-1.69463E+03 0.00000E+00
 -1       255-3.77794E+02-1.69337E+03 0.00000E+00
 -1       256-3.83467E+02-1.69209E+03 0.00000E+00
 -1       257-3.89135E+02-1.69080E+03 0.00000E+00
 -1       258-3.94799E+02-1.68948E+03 0.00000E+00
 -1       259-4.00459E+02-1.68815E+03 0.00000E+00
 -1       260-4.06114E+02-1.68680E+03 0.00000E+00
 -1       261-4.11765E+02-1.68543E+03 0.00000E+00
 -1       262-4.17410E+02-1.68404E+03 0.00000E+00
 -1       263-4.23052E+02-1.68263E+03 0.00000E+00
 -1       264-4.28688E+02-1.68121E+03 0.00000E+00
 -1       265-4.34320E+02-1.67976E+03 0.00000E+00
 -1       266-4.39947E+02-1.67829E+03 0.00000E+00
 -1       267-4.45569E+02-1.67681E+03 0.00000E+00
 -1       268-4.51186E+02-1.67531E+03 0.00000E+00
 -1       269-4.56798E+02-1.67379E+03 0.00000E+00
 -1       270-4.62404E+02-1.67225E+03 0.00000E+00
 -1       271-4.68006E+02-1.67069E+03 0.00000E+00
 -1       272-4.73602E+02-1.66911E+03 0.00000E+00
 -1       273-4.79193E+02-1.66751E+03 0.00000E+00
 -1       274-4.84779E+02-1.66590E+03 0.00000E+00
 -1       275-4.90359E+02-1.66426E+03 0.00000E+00
 -1       276-4.95933E+02-1.66261E+03 0.00000E+00
 -1       277-5.01502E+02-1.66094E+03 0.00000E+00
 -1       278-5.07066E+02-1.65925E+03 0.00000E+00
 -1       279-5.12623E+02-1.65754E+03 0.00000E+00
 -1       280-5.18175E+02-1.65581E+03 0.00000E+00
 -1       281-5.23721E+02-1.65407E+03 0.00000E+00
 -1       282-5.29262E+02-1.65230E+03 0.00000E+00
 -1       283-5.34796E+02-1.65052E+03 0.00000E+00
 -1       284-5.40324E+02-1.64872E+03 0.00000E+00
 -1       285-5.45847E+02-1.64690E+03 0.00000E+00
 -1       286-5.51363E+02-1.64506E+03 0.00000E+00
 -1       287-5.56873E+02-1.64320E+03 0.00000E+00
 -1       288-5.62376E+02-1.64133E+03 0.00000E+00
 -1       289-5.67874E+02-1.63943E+03 0.00000E+00
 -1       290-5.73365E+02-1.63752E+03 0.00000E+00
 -1       291-5.78849E+02-1.63559E+03 0.00000E+00
 -1       292-5.84327E+02-1.63364E+03 0.00000E+00
 -1       293-5.89799E+02-1.63167E+03 0.00000E+00
 -1       294-5.95263E+02-1.62969E+03 0.00000E+00
 -1       295-6.00721E+02-1.62769E+03 0.00000E+00
 -1       296-6.06173E+02-1.62566E+03 0.00000E+00
 -1       297-6.11617E+02-1.62362E+03 0.00000E+00
 -1       298-6.17055E+02-1.62156E+03 0.00000E+00
 -1       299-6.22486E+02-1.61949E+03 0.00000E+00
 -1       300-6.27910E+02-1.61739E+03 0.00000E+00
 -1       301-6.33327E+02-1.61528E+03 0.00000E+00
 -1       302-6.38736E+02-1.61315E+03 0.00000E+00
 -1       303-6.44139E+02-1.61100E+03 0.00000E+00
 -1       304-6.49534E+02-1.60883E+03 0.00000E+00
 -1       305-6.54922E+02-1.60664E+03 0.00000E+00
 -1       306-6.60302E+02-1.60444E+03 0.00000E+00
 -1       307-6.65676E+02-1.60222E+03 0.00000E+00
 -1       308-6.71041E+02-1.59998E+03 0.00000E+00
 -1       309-6.76399E+02-1.59772E+03 0.00000E+00
 -1       310-6.81750E+02-1.59544E+03 0.00000E+00
 -1       311-6.87093E+02-1.59315E+03 0.00000E+00
 -1       312-6.92428E+02-1.59084E+03 0.00000E+00
 -1       313-6.97755E+02-1.58851E+03 0.00000E+00
 -1       314-7.03075E+02-1.58616E+03 0.00000E+00
 -1       315-7.08387E+02-1.58380E+03 0.00000E+00
 -1       316-7.13690E+02-1.58141E+03 0.00000E+00
 -1       317-7.18986E+02-1.57901E+03 0.00000E+00
 -1       318-7.24274E+02-1.57660E+03 0.00000E+00
 -1       319-7.29553E+02-1.57416E+03 0.00000E+00
 -1       320-7.34825E+02-1.57171E+03 0.00000E+00
 -1       321-7.40088E+02-1.56923E+03 0.00000E+00
 -1       322-7.45342E+02-1.56674E+03 0.00000E+00
 -1       323-7.50589E+02-1.56424E+03 0.00000E+00
 -1       324-7.55827E+02-1.56171E+03 0.00000E+00
 -1       325-7.61056E+02-1.55917E+03 0.00000E+00
 -1       326-7.66277E+02-1.55661E+03 0.00000E+00
 -1       327-7.71489E+02-1.55404E+03 0.00000E+00
 -1       328-7.76693E+02-1.55144E+03 0.00000E+00
 -1       329-7.81888E+02-1.54883E+03 0.00000E+00
 -1       330-7.87074E+02-1.54620E+03 0.00000E+00
 -1       331-7.92251E+02-1.54356E+03 0.00000E+00
 -1       332-7.97420E+02-1.54089E+03 0.00000E+00
 -1       333-8.02579E+02-1.53821E+03 0.00000E+00
 -1       334-8.07729E+02-1.53551E+03 0.00000E+00
 -1       335-8.12871E+02-1.53280E+03 0.00000E+00
 -1       336-8.18003E+02-1.53006E+03 0.00000E+00
 -1       337-8.23126E+02-1.52731E+03 0.00000E+00
 -1       338 8.25531E+02-1.51986E+03 0.00000E+00
 -1       339 8.22822E+02-1.51517E+03 0.00000E+00
 -1       340 8.20113E+02-1.51047E+03 0.00000E+00
 -1       341 8.17405E+02-1.50578E+03 0.00000E+00
 -1       342 8.14696E+02-1.50109E+03 0.00000E+00
 -1       343 8.16859E+02-1.49359E+03 0.00000E+00
 -1       344 8.21730E+02-1.49078E+03 0.00000E+00
 -1       345 8.26602E+02-1.48796E+03 0.00000E+00
 -1       346 8.31473E+02-1.48515E+03 0.00000E+00
 -1       347 8.36344E+02-1.48234E+03 0.00000E+00
 -1       348 8.41216E+02-1.47953E+03 0.00000E+00
 -1       349 8.46088E+02-1.47671E+03 0.00000E+00
 -1       350 8.37323E+02-1.46194E+03 0.00000E+00
 -1       351 8.31926E+02-1.46415E+03 0.00000E+00
 -1       352 8.26353E+02-1.46587E+03 0.00000E+00
 -1       353 8.20648E+02-1.46708E+03 0.00000E+00
 -1       354 8.14857E+02-1.46778E+03 0.00000E+00
 -1       355 8.09028E+02-1.46795E+03 0.00000E+00
 -1       356 8.03206E+02-1.46760E+03 0.00000E+00
 -1       357 7.97438E+02-1.46674E+03 0.00000E+00
 -1       358 7.91772E+02-1.46535E+03 0.00000E+00
 -1       359 7.86253E+02-1.46347E+03 0.00000E+00
 -1       360 7.80925E+02-1.46110E+03 0.00000E+00
 -1       361 7.75831E+02-1.45826E+03 0.00000E+00
 -1       362 7.71012E+02-1.45497E+03 0.00000E+00
 -1       363 7.66507E+02-1.45127E+03 0.00000E+00
 -1       364 7.62352E+02-1.44717E+03 0.00000E+00
 -1       365 7.58580E+02-1.44272E+03 0.00000E+00
 -1       366 7.55223E+02-1.43795E+03 0.00000E+00
 -1       367 7.52307E+02-1.43290E+03 0.00000E+00
 -1       368 7.49855E+02-1.42761E+03 0.00000E+00
 -1       369 7.47888E+02-1.42212E+03 0.00000E+00
 -1       370 7.46420E+02-1.41648E+03 0.00000E+00
 -1       371 7.45465E+02-1.41072E+03 0.00000E+00
 -1       372 7.45029E+02-1.40491E+03 0.00000E+00
 -1       373 7.45116E+02-1.39907E+03 0.00000E+00
 -1       374 7.45726E+02-1.39327E+03 0.00000E+00
 -1       375 7.46853E+02-1.38755E+03 0.00000E+00
 -1       376 7.48489E+02-1.38195E+03 0.00000E+00
 -1       377 7.50620E+02-1.37652E+03 0.00000E+00
 -1       378 7.53228E+02-1.37131E+03 0.00000E+00
 -1       379 7.56294E+02-1.36635E+03 0.00000E+00
 -1       380 7.59793E+02-1.36168E+03 0.00000E+00
 -1       381 7.63696E+02-1.35734E+03 0.00000E+00
 -1       382 7.67971E+02-1.35338E+03 0.00000E+00
 -1       383 7.72585E+02-1.34981E+03 0.00000E+00
 -1       384 8.48139E+02-1.46902E+03 0.00000E+00
 -1       385 8.45320E+02-1.46414E+03 0.00000E+00
 -1       386 7.75250E+02-1.34277E+03 0.00000E+00
 -1       387 7.73000E+02-1.33888E+03 0.00000E+00
 -1       388 7.70750E+02-1.33498E+03 0.00000E+00
 -1       389 7.63458E+02-1.33399E+03 0.00000E+00
 -1       390 7.58417E+02-1.33690E+03 0.00000E+00
 -1       391 7.53375E+02-1.33981E+03 0.00000E+00
 -1       392 7.48333E+02-1.34272E+03 0.00000E+00
 -1       393 7.43292E+02-1.34563E+03 0.00000E+00
 -1       394 7.38250E+02-1.34855E+03 0.00000E+00
 -1       395 7.33208E+02-1.35146E+03 0.00000E+00
 -1       396 7.28167E+02-1.35437E+03 0.00000E+00
 -1       397 7.23125E+02-1.35728E+03 0.00000E+00
 -1       398 7.18083E+02-1.36019E+03 0.00000E+00
 -1       399 7.13042E+02-1.36310E+03 0.00000E+00
 -1       400 7.08000E+02-1.37169E+03 0.00000E+00
 -1       401 7.08000E+02-1.37736E+03 0.00000E+00
 -1       402 7.08000E+02-1.38304E+03 0.00000E+00
 -1       403 7.08000E+02-1.38872E+03 0.00000E+00
 -1       404 7.08000E+02-1.39440E+03 0.00000E+00
 -1       405 7.08000E+02-1.40007E+03 0.00000E+00
 -1       406 7.08000E+02-1.40575E+03 0.00000E+00
 -1       407 7.08000E+02-1.41143E+03 0.00000E+00
 -1       408 7.08000E+02-1.41711E+03 0.00000E+00
 -1       409 7.08000E+02-1.42278E+03 0.00000E+00
 -1       410 7.08000E+02-1.42846E+03 0.00000E+00
 -1       411 7.08000E+02-1.43414E+03 0.00000E+00
 -1       412 7.08000E+02-1.43981E+03 0.00000E+00
 -1       413 7.08000E+02-1.44549E+03 0.00000E+00
 -1       414 7.08000E+02-1.45117E+03 0.00000E+00
 -1       415 7.08000E+02-1.45685E+03 0.00000E+00
 -1       416 7.08000E+02-1.46252E+03 0.00000E+00
 -1       417 7.08000E+02-1.46820E+03 0.00000E+00
 -1       418 7.08000E+02-1.47388E+03 0.00000E+00
 -1       419 7.08000E+02-1.47956E+03 0.00000E+00
 -1       420 7.08000E+02-1.48523E+03 0.00000E+00
 -1       421 7.08000E+02-1.49091E+03 0.00000E+00
 -1       422 7.08000E+02-1.49659E+03 0.00000E+00
 -1       423 7.03083E+02-1.50510E+03 0.00000E+00
 -1       424 6.98167E+02-1.50794E+03 0.00000E+00
 -1       425 6.93250E+02-1.51078E+03 0.00000E+00
 -1       426 6.88333E+02-1.51362E+03 0.00000E+00
 -1       427 6.83417E+02-1.51646E+03 0.00000E+00
 -1       428 6.78500E+02-1.51930E+03 0.00000E+00
 -1       429 6.73583E+02-1.52214E+03 0.00000E+00
 -1       430 6.68667E+02-1.52497E+03 0.00000E+00
 -1       431 6.63750E+02-1.52781E+03 0.00000E+00
 -1       432 6.58833E+02-1.53065E+03 0.00000E+00
 -1       433 6.53917E+02-1.53349E+03 0.00000E+00
 -1       434 6.49000E+02-1.53633E+03 0.00000E+00
 -1       435 6.44083E+02-1.53917E+03 0.00000E+00
 -1       436 6.39167E+02-1.54201E+03 0.00000E+00
 -1       437 6.34250E+02-1.54484E+03 0.00000E+00
 -1       438 6.29333E+02-1.54768E+03 0.00000E+00
 -1       439 6.24417E+02-1.55052E+03 0.00000E+00
 -1       440 6.19500E+02-1.55336E+03 0.00000E+00
 -1       441 6.14583E+02-1.55620E+03 0.00000E+00
 -1       442 6.09667E+02-1.55904E+03 0.00000E+00
 -1       443 6.04750E+02-1.56188E+03 0.00000E+00
 -1       444 5.99833E+02-1.56471E+03 0.00000E+00
 -1       445 5.94917E+02-1.56755E+03 0.00000E+00
 -1       446 5.85083E+02-1.56755E+03 0.00000E+00
 -1       447 5.80167E+02-1.56471E+03 0.00000E+00
 -1       448 5.75250E+02-1.56188E+03 0.00000E+00
 -1       449 5.70333E+02-1.55904E+03 0.00000E+00
 -1       450 5.65417E+02-1.55620E+03 0.00000E+00
 -1       451 5.60500E+02-1.55336E+03 0.00000E+00
 -1       452 5.55583E+02-1.55052E+03 0.00000E+00
 -1       453 5.50667E+02-1.54768E+03 0.00000E+00
 -1       454 5.45750E+02-1.54484E+03 0.00000E+00
 -1       455 5.40833E+02-1.54201E+03 0.00000E+00
 -1       456 5.35917E+02-1.53917E+03 0.00000E+00
 -1       457 5.31000E+02-1.53633E+03 0.00000E+00
 -1       458 5.26083E+02-1.53349E+03 0.00000E+00
 -1       459 5.21167E+02-1.53065E+03 0.00000E+00
 -1       460 5.16250E+02-1.52781E+03 0.00000E+00
 -1       461 5.11333E+02-1.52497E+03 0.00000E+00
 -1       462 5.06417E+02-1.52214E+03 0.00000E+00
 -1       463 5.01500E+02-1.51930E+03 0.00000E+00
 -1       464 4.96583E+02-1.51646E+03 0.00000E+00
 -1       465 4.91667E+02-1.51362E+03 0.00000E+00
 -1       466 4.86750E+02-1.51078E+03 0.00000E+00
 -1       467 4.81833E+02-1.50794E+03 0.00000E+00
 -1       468 4.76917E+02-1.50510E+03 0.00000E+00
 -1       469 4.67083E+02-1.50510E+03 0.00000E+00
 -1       470 4.62167E+02-1.50794E+03 0.00000E+00
 -1       471 4.57250E+02-1.51078E+03 0.00000E+00
 -1       472 4.52333E+02-1.51362E+03 0.00000E+00
 -1       473 4.47417E+02-1.51646E+03 0.00000E+00
 -1       474 4.42500E+02-1.51930E+03 0.00000E+00
 -1       475 4.37583E+02-1.52214E+03 0.00000E+00
 -1       476 4.32667E+02-1.52497E+03 0.00000E+00
 -1       477 4.27750E+02-1.52781E+03 0.00000E+00
 -1       478 4.22833E+02-1.53065E+03 0.00000E+00
 -1       479 4.17917E+02-1.53349E+03 0.00000E+00
 -1       480 4.13000E+02-1.53633E+03 0.00000E+00
 -1       481 4.08083E+02-1.53917E+03 0.00000E+00
 -1       482 4.03167E+02-1.54201E+03 0.00000E+00
 -1       483 3.98250E+02-1.54484E+03 0.00000E+00
 -1       484 3.93333E+02-1.54768E+03 0.00000E+00
 -1       485 3.88417E+02-1.55052E+03 0.00000E+00
 -1       486 3.83500E+02-1.55336E+03 0.00000E+00
 -1       487 3.78583E+02-1.55620E+03 0.00000E+00
 -1       488 3.73667E+02-1.55904E+03 0.00000E+00
 -1       489 3.68750E+02-1.56188E+03 0.00000E+00
 -1       490 3.63833E+02-1.56471E+03 0.00000E+00
 -1       491 3.58917E+02-1.56755E+03 0.00000E+00
 -1       492 3.49083E+02-1.56755E+03 0.00000E+00
 -1       493 3.44167E+02-1.56471E+03 0.00000E+00
 -1       494 3.39250E+02-1.56188E+03 0.00000E+00
 -1       495 3.34333E+02-1.55904E+03 0.00000E+00
 -1       496 3.29417E+02-1.55620E+03 0.00000E+00
 -1       497 3.24500E+02-1.55336E+03 0.00000E+00
 -1       498 3.19583E+02-1.55052E+03 0.00000E+00
 -1       499 3.14667E+02-1.54768E+03 0.00000E+00
 -1       500 3.09750E+02-1.54484E+03 0.00000E+00
 -1       501 3.04833E+02-1.54201E+03 0.00000E+00
 -1       502 2.99917E+02-1.53917E+03 0.00000E+00
 -1       503 2.95000E+02-1.53633E+03 0.00000E+00
 -1       504 2.90083E+02-1.53349E+03 0.00000E+00
 -1       505 2.85167E+02-1.53065E+03 0.00000E+00
 -1       506 2.80250E+02-1.52781E+03 0.00000E+00
 -1       507 2.75333E+02-1.52497E+03 0.00000E+00
 -1       508 2.70417E+02-1.52214E+03 0.00000E+00
 -1       509 2.65500E+02-1.51930E+03 0.00000E+00
 -1       510 2.60583E+02-1.51646E+03 0.00000E+00
 -1       511 2.55667E+02-1.51362E+03 0.00000E+00
 -1       512 2.50750E+02-1.51078E+03 0.00000E+00
 -1       513 2.45833E+02-1.50794E+03 0.00000E+00
 -1       514 2.40917E+02-1.50510E+03 0.00000E+00
 -1       515 2.31083E+02-1.50510E+03 0.00000E+00
 -1       516 2.26167E+02-1.50794E+03 0.00000E+00
 -1       517 2.21250E+02-1.51078E+03 0.00000E+00
 -1       518 2.16333E+02-1.51362E+03 0.00000E+00
 -1       519 2.11417E+02-1.51646E+03 0.00000E+00
 -1       520 2.06500E+02-1.51930E+03 0.00000E+00
 -1       521 2.01583E+02-1.52214E+03 0.00000E+00
 -1       522 1.96667E+02-1.52497E+03 0.00000E+00
 -1       523 1.91750E+02-1.52781E+03 0.00000E+00
 -1       524 1.86833E+02-1.53065E+03 0.00000E+00
 -1       525 1.81917E+02-1.53349E+03 0.00000E+00
 -1       526 1.77000E+02-1.53633E+03 0.00000E+00
 -1       527 1.72083E+02-1.53917E+03 0.00000E+00
 -1       528 1.67167E+02-1.54201E+03 0.00000E+00
 -1       529 1.62250E+02-1.54484E+03 0.00000E+00
 -1       530 1.57333E+02-1.54768E+03 0.00000E+00
 -1       531 1.52417E+02-1.55052E+03 0.00000E+00
 -1       532 1.47500E+02-1.55336E+03 0.00000E+00
 -1       533 1.42583E+02-1.55620E+03 0.00000E+00
 -1       534 1.37667E+02-1.55904E+03 0.00000E+00
 -1       535 1.32750E+02-1.56188E+03 0.00000E+00
 -1       536 1.27833E+02-1.56471E+03 0.00000E+00
 -1       537 1.22917E+02-1.56755E+03 0.00000E+00
 -1       538 1.13083E+02-1.56755E+03 0.00000E+00
 -1       539 1.08167E+02-1.56471E+03 0.00000E+00
 -1       540 1.03250E+02-1.56188E+03 0.00000E+00
 -1       541 9.83333E+01-1.55904E+03 0.00000E+00
 -1       542 9.34167E+01-1.55620E+03 0.00000E+00
 -1       543 8.85000E+01-1.55336E+03 0.00000E+00
 -1       544 8.35833E+01-1.55052E+03 0.00000E+00
 -1       545 7.86667E+01-1.54768E+03 0.00000E+00
 -1       546 7.37500E+01-1.54484E+03 0.00000E+00
 -1       547 6.88333E+01-1.54201E+03 0.00000E+00
 -1       548 6.39167E+01-1.53917E+03 0.00000E+00
 -1       549 5.90000E+01-1.53633E+03 0.00000E+00
 -1       550 5.40833E+01-1.53349E+03 0.00000E+00
 -1       551 4.91667E+01-1.53065E+03 0.00000E+00
 -1       552 4.42500E+01-1.52781E+03 0.00000E+00
 -1       553 3.93333E+01-1.52497E+03 0.00000E+00
 -1       554 3.44167E+01-1.52214E+03 0.00000E+00
 -1       555 2.95000E+01-1.51930E+03 0.00000E+00
 -1       556 2.45833E+01-1.51646E+03 0.00000E+00
 -1       557 1.96667E+01-1.51362E+03 0.00000E+00
 -1       558 1.47500E+01-1.51078E+03 0.00000E+00
 -1       559 9.83333E+00-1.50794E+03 0.00000E+00
 -1       560 4.91667E+00-1.50510E+03 0.00000E+00
 -1       561-4.91667E+00-1.50510E+03 0.00000E+00
 -1       562-9.83333E+00-1.50794E+03 0.00000E+00
 -1       563-1.47500E+01-1.51078E+03 0.00000E+00
 -1       564-1.96667E+01-1.51362E+03 0.00000E+00
 -1       565-2.45833E+01-1.51646E+03 0.00000E+00
 -1       566-2.95000E+01-1.51930E+03 0.00000E+00
 -1       567-3.44167E+01-1.52214E+03 0.00000E+00
 -1       568-3.93333E+01-1.52497E+03 0.00000E+00
 -1       569-4.42500E+01-1.52781E+03 0.00000E+00
 -1       570-4.91667E+01-1.53065E+03 0.00000E+00
 -1       571-5.40833E+01-1.53349E+03 0.00000E+00
 -1       572-5.90000E+01-1.53633E+03 0.00000E+00
 -1       573-6.39167E+01-1.53917E+03 0.00000E+00
 -1       574-6.88333E+01-1.54201E+03 0.00000E+00
 -1       575-7.37500E+01-1.54484E+03 0.00000E+00
 -1       576-7.86667E+01-1.54768E+03 0.00000E+00
 -1       577-8.35833E+01-1.55052E+03 0.00000E+00
 -1       578-8.85000E+01-1.55336E+03 0.00000E+00
 -1       579-9.34167E+01-1.55620E+03 0.00000E+00
 -1       580-9.83333E+01-1.55904E+03 0.00000E+00
 -1       581-1.03250E+02-1.56188E+03 0.00000E+00
 -1       582-1.08167E+02-1.56471E+03 0.00000E+00
 -1       583-1.13083E+02-1.56755E+03 0.00000E+00