    1C
    1UUSER                                                              
    1UDATE              25.may.2019                                     
    1UTIME              14:47:05                                        
    1UHOST                                                              
    1UPGM               CalculiX                                        
    1UVERSION           Version 2.15                             
    1UCOMPILETIME       Fri 15 Mar 11:57:46 CET 2019                    
    1UDIR                                                               
    1UDBN                                                               
    1UMAT    1STEEL                                                     
    2C                            12                                     1
 -1         1 5.00000E+00 9.00000E+00 0.00000E+00
 -1         2 6.00000E+00 6.00000E+00 0.00000E+00
 -1         3 3.00000E+00 7.00000E+00 0.00000E+00
 -1         4 5.00000E+00 9.00000E+00-5.00000E-02
 -1         5 5.00000E+00 9.00000E+00 0.00000E+00
 -1         6 5.00000E+00 9.00000E+00 5.00000E-02
 -1         7 6.00000E+00 6.00000E+00-5.00000E-02
 -1         8 6.00000E+00 6.00000E+00 0.00000E+00
 -1         9 6.00000E+00 6.00000E+00 5.00000E-02
 -1        10 3.00000E+00 7.00000E+00-5.00000E-02
 -1        11 3.00000E+00 7.00000E+00 0.00000E+00
 -1        12 3.00000E+00 7.00000E+00 5.00000E-02
 -3
    3C                             1                                     1
 -1         1    2    0    1
 -2         7         4        10         9         6        12
 -3
