    1C
    1UUSER                                                              
    1UDATE              26.may.2019                                     
    1UTIME              11:57:18                                        
    1UHOST                                                              
    1UPGM               CalculiX                                        
    1UVERSION           Version 2.15                             
    1UCOMPILETIME       Fri 15 Mar 11:57:46 CET 2019                    
    1UDIR                                                               
    1UDBN                                                               
    1UMAT    1STEEL                                                     
    2C                            19                                     1
 -1         1 0.00000E+00 1.00000E+01 0.00000E+00
 -1         2 0.00000E+00 5.00000E+00 0.00000E+00
 -1         3 5.00000E+00 5.00000E+00 0.00000E+00
 -1         4 5.00000E+00 1.00000E+01 0.00000E+00
 -1         5 0.00000E+00 1.00000E+01-5.00000E-02
 -1         6 0.00000E+00 1.00000E+01 0.00000E+00
 -1         7 0.00000E+00 1.00000E+01 5.00000E-02
 -1         8 0.00000E+00 5.00000E+00-5.00000E-02
 -1         9 0.00000E+00 5.00000E+00 0.00000E+00
 -1        10 0.00000E+00 5.00000E+00 5.00000E-02
 -1        11 5.00000E+00 5.00000E+00-5.00000E-02
 -1        12 5.00000E+00 5.00000E+00 0.00000E+00
 -1        13 5.00000E+00 5.00000E+00 5.00000E-02
 -1        14 5.00000E+00 1.00000E+01-5.00000E-02
 -1        15 5.00000E+00 1.00000E+01 0.00000E+00
 -1        16 5.00000E+00 1.00000E+01 5.00000E-02
 -1        17 2.50000E+00 7.50000E+00-1.73472E-18
 -1        18 2.50000E+00 7.50000E+00-1.73472E-18
 -1        19 2.50000E+00 7.50000E+00-1.73472E-18
 -3
    3C                             1                                     1
 -1         1    1    0    1
 -2         5         8        11        14         7        10        13        16
 -3
