    1C
    1UModel: balk                                                       
    1UUSER                                                              
    1UDATE              25.may.2019                                     
    1UTIME              21:40:36                                        
    1UHOST                                                              
    1UPGM               CalculiX                                        
    1UVERSION           Version 2.15                             
    1UCOMPILETIME       Fri 15 Mar 11:57:46 CET 2019                    
    1UDIR                                                               
    1UDBN                                                               
    1UMAT    1EL                                                        
    2C                            98                                     1
 -1         1 0.00000E+00 0.00000E+00 0.00000E+00
 -1         2 1.00000E+00 0.00000E+00 0.00000E+00
 -1         3 1.00000E+00 1.00000E+00 0.00000E+00
 -1         4 0.00000E+00 1.00000E+00 0.00000E+00
 -1         5 0.00000E+00 0.00000E+00 1.00000E+00
 -1         6 1.00000E+00 0.00000E+00 1.00000E+00
 -1         7 1.00000E+00 1.00000E+00 1.00000E+00
 -1         8 0.00000E+00 1.00000E+00 1.00000E+00
 -1         9 2.50000E-01 0.00000E+00 0.00000E+00
 -1        10 5.00000E-01 0.00000E+00 0.00000E+00
 -1        11 7.50000E-01 0.00000E+00 0.00000E+00
 -1        12 1.00000E+00 2.50000E-01 0.00000E+00
 -1        13 1.00000E+00 5.00000E-01 0.00000E+00
 -1        14 1.00000E+00 7.50000E-01 0.00000E+00
 -1        15 7.50000E-01 1.00000E+00 0.00000E+00
 -1        16 5.00000E-01 1.00000E+00 0.00000E+00
 -1        17 2.50000E-01 1.00000E+00 0.00000E+00
 -1        18 0.00000E+00 7.50000E-01 0.00000E+00
 -1        19 0.00000E+00 5.00000E-01 0.00000E+00
 -1        20 0.00000E+00 2.50000E-01 0.00000E+00
 -1        21 2.50000E-01 0.00000E+00 1.00000E+00
 -1        22 5.00000E-01 0.00000E+00 1.00000E+00
 -1        23 7.50000E-01 0.00000E+00 1.00000E+00
 -1        24 1.00000E+00 2.50000E-01 1.00000E+00
 -1        25 1.00000E+00 5.00000E-01 1.00000E+00
 -1        26 1.00000E+00 7.50000E-01 1.00000E+00
 -1        27 7.50000E-01 1.00000E+00 1.00000E+00
 -1        28 5.00000E-01 1.00000E+00 1.00000E+00
 -1        29 2.50000E-01 1.00000E+00 1.00000E+00
 -1        30 0.00000E+00 7.50000E-01 1.00000E+00
 -1        31 0.00000E+00 5.00000E-01 1.00000E+00
 -1        32 0.00000E+00 2.50000E-01 1.00000E+00
 -1        33 1.00000E+00 0.00000E+00 2.50000E-01
 -1        34 1.00000E+00 0.00000E+00 5.00000E-01
 -1        35 1.00000E+00 0.00000E+00 7.50000E-01
 -1        36 0.00000E+00 0.00000E+00 7.50000E-01
 -1        37 0.00000E+00 0.00000E+00 5.00000E-01
 -1        38 0.00000E+00 0.00000E+00 2.50000E-01
 -1        39 1.00000E+00 1.00000E+00 2.50000E-01
 -1        40 1.00000E+00 1.00000E+00 5.00000E-01
 -1        41 1.00000E+00 1.00000E+00 7.50000E-01
 -1        42 0.00000E+00 1.00000E+00 2.50000E-01
 -1        43 0.00000E+00 1.00000E+00 5.00000E-01
 -1        44 0.00000E+00 1.00000E+00 7.50000E-01
 -1        45 5.00000E-01 2.50000E-01 0.00000E+00
 -1        46 2.50000E-01 5.00000E-01 0.00000E+00
 -1        47 5.00000E-01 5.00000E-01 0.00000E+00
 -1        48 7.50000E-01 5.00000E-01 0.00000E+00
 -1        49 5.00000E-01 7.50000E-01 0.00000E+00
 -1        50 5.00000E-01 2.50000E-01 1.00000E+00
 -1        51 2.50000E-01 5.00000E-01 1.00000E+00
 -1        52 5.00000E-01 5.00000E-01 1.00000E+00
 -1        53 7.50000E-01 5.00000E-01 1.00000E+00
 -1        54 5.00000E-01 7.50000E-01 1.00000E+00
 -1        55 5.00000E-01 0.00000E+00 2.50000E-01
 -1        56 2.50000E-01 0.00000E+00 5.00000E-01
 -1        57 5.00000E-01 0.00000E+00 5.00000E-01
 -1        58 7.50000E-01 0.00000E+00 5.00000E-01
 -1        59 5.00000E-01 0.00000E+00 7.50000E-01
 -1        60 1.00000E+00 5.00000E-01 2.50000E-01
 -1        61 1.00000E+00 2.50000E-01 5.00000E-01
 -1        62 1.00000E+00 5.00000E-01 5.00000E-01
 -1        63 1.00000E+00 7.50000E-01 5.00000E-01
 -1        64 1.00000E+00 5.00000E-01 7.50000E-01
 -1        65 5.00000E-01 1.00000E+00 2.50000E-01
 -1        66 7.50000E-01 1.00000E+00 5.00000E-01
 -1        67 5.00000E-01 1.00000E+00 5.00000E-01
 -1        68 2.50000E-01 1.00000E+00 5.00000E-01
 -1        69 5.00000E-01 1.00000E+00 7.50000E-01
 -1        70 0.00000E+00 5.00000E-01 2.50000E-01
 -1        71 0.00000E+00 7.50000E-01 5.00000E-01
 -1        72 0.00000E+00 5.00000E-01 5.00000E-01
 -1        73 0.00000E+00 2.50000E-01 5.00000E-01
 -1        74 0.00000E+00 5.00000E-01 7.50000E-01
 -1        75 5.00000E-01 5.00000E-01 2.50000E-01
 -1        76 5.00000E-01 2.50000E-01 5.00000E-01
 -1        77 2.50000E-01 5.00000E-01 5.00000E-01
 -1        78 5.00000E-01 5.00000E-01 5.00000E-01
 -1        79 7.50000E-01 5.00000E-01 5.00000E-01
 -1        80 5.00000E-01 7.50000E-01 5.00000E-01
 -1        81 5.00000E-01 5.00000E-01 7.50000E-01
 -1       156 2.50000E-01 0.00000E+00 5.00000E-01
 -1       157 5.00000E-01 0.00000E+00 5.00000E-01
 -1       158 7.50000E-01 0.00000E+00 5.00000E-01
 -1       161 1.00000E+00 2.50000E-01 5.00000E-01
 -1       162 1.00000E+00 5.00000E-01 5.00000E-01
 -1       163 1.00000E+00 7.50000E-01 5.00000E-01
 -1       166 7.50000E-01 1.00000E+00 5.00000E-01
 -1       167 5.00000E-01 1.00000E+00 5.00000E-01
 -1       168 2.50000E-01 1.00000E+00 5.00000E-01
 -1       171 0.00000E+00 7.50000E-01 5.00000E-01
 -1       172 0.00000E+00 5.00000E-01 5.00000E-01
 -1       173 0.00000E+00 2.50000E-01 5.00000E-01
 -1       176 5.00000E-01 2.50000E-01 5.00000E-01
 -1       177 2.50000E-01 5.00000E-01 5.00000E-01
 -1       178 5.00000E-01 5.00000E-01 5.00000E-01
 -1       179 7.50000E-01 5.00000E-01 5.00000E-01
 -1       180 5.00000E-01 7.50000E-01 5.00000E-01
 -3
    3C                             8                                     1
 -1         1    4    0    1
 -2         1        10        47        19        37        57        78        72         9        45
 -2        46        20        38        55        75        70        56        76        77        73
 -1         2    4    0    1
 -2        10         2        13        47        57        34        62        78        11        12
 -2        48        45        55        33        60        75        58        61        79        76
 -1         3    4    0    1
 -2        19        47        16         4        72        78        67        43        46        49
 -2        17        18        70        75        65        42        77        80        68        71
 -1         4    4    0    1
 -2        47        13         3        16        78        62        40        67        48        14
 -2        15        49        75        60        39        65        79        63        66        80
 -1         5    4    0    1
 -2        37       157       178       172         5        22        52        31       156       176
 -2       177       173        36        59        81        74        21        50        51        32
 -1         6    4    0    1
 -2       157        34       162       178        22         6        25        52       158       161
 -2       179       176        59        35        64        81        23        24        53        50
 -1         7    4    0    1
 -2       172       178       167        43        31        52        28         8       177       180
 -2       168       171        74        81        69        44        51        54        29        30
 -1         8    4    0    1
 -2       178       162        40       167        52        25         7        28       179       163
 -2       166       180        81        64        41        69        53        26        27        54
 -3
 9999
