    1C
    1UUSER                                                              
    1UDATE              26.may.2019                                     
    1UTIME              22:07:58                                        
    1UHOST                                                              
    1UPGM               CalculiX                                        
    1UVERSION           Version 2.15                             
    1UCOMPILETIME       Fri 15 Mar 11:57:46 CET 2019                    
    1UDIR                                                               
    1UDBN                                                               
    1UMAT    1STEEL                                                     
    1UMAT    2GAS                                                       
    2C                          1800                                     1
 -1         1 3.00000E-01 3.72529E-09 3.72529E-09
 -1         2 2.40000E-01 3.72529E-09 3.72529E-09
 -1         3 3.00000E-01 6.00000E-02 3.72529E-09
 -1         4 2.70000E-01 3.72529E-09 3.72529E-09
 -1         5 2.70000E-01 3.00000E-02 3.72529E-09
 -1         6 3.00000E-01 3.00000E-02 3.72529E-09
 -1         7 2.40000E-01 6.00000E-02 3.72529E-09
 -1         8 2.40000E-01 3.00000E-02 3.72529E-09
 -1         9 2.70000E-01 6.00000E-02 3.72529E-09
 -1        10 3.00000E-01 1.20000E-01 3.72529E-09
 -1        11 2.70000E-01 9.00000E-02 3.72529E-09
 -1        12 3.00000E-01 9.00000E-02 3.72529E-09
 -1        13 2.40000E-01 1.20000E-01 3.72529E-09
 -1        14 2.40000E-01 9.00000E-02 3.72529E-09
 -1        15 2.70000E-01 1.20000E-01 3.72529E-09
 -1        16 3.00000E-01 1.80000E-01 3.72529E-09
 -1        17 2.70000E-01 1.50000E-01 3.72529E-09
 -1        18 3.00000E-01 1.50000E-01 3.72529E-09
 -1        19 2.40000E-01 1.80000E-01 3.72529E-09
 -1        20 2.40000E-01 1.50000E-01 3.72529E-09
 -1        21 2.70000E-01 1.80000E-01 3.72529E-09
 -1        22 3.00000E-01 2.40000E-01 3.72529E-09
 -1        23 2.70000E-01 2.10000E-01 3.72529E-09
 -1        24 3.00000E-01 2.10000E-01 3.72529E-09
 -1        25 2.40000E-01 2.40000E-01 3.72529E-09
 -1        26 2.40000E-01 2.10000E-01 3.72529E-09
 -1        27 2.70000E-01 2.40000E-01 3.72529E-09
 -1        28 3.00000E-01 3.00000E-01 3.72529E-09
 -1        29 2.70000E-01 2.70000E-01 3.72529E-09
 -1        30 3.00000E-01 2.70000E-01 3.72529E-09
 -1        31 2.40000E-01 3.00000E-01 3.72529E-09
 -1        32 2.40000E-01 2.70000E-01 3.72529E-09
 -1        33 2.70000E-01 3.00000E-01 3.72529E-09
 -1        34 1.80000E-01 3.72529E-09 3.72529E-09
 -1        35 2.10000E-01 3.72529E-09 3.72529E-09
 -1        36 2.10000E-01 3.00000E-02 3.72529E-09
 -1        37 1.80000E-01 6.00000E-02 3.72529E-09
 -1        38 1.80000E-01 3.00000E-02 3.72529E-09
 -1        39 2.10000E-01 6.00000E-02 3.72529E-09
 -1        40 2.10000E-01 9.00000E-02 3.72529E-09
 -1        41 1.80000E-01 1.20000E-01 3.72529E-09
 -1        42 1.80000E-01 9.00000E-02 3.72529E-09
 -1        43 2.10000E-01 1.20000E-01 3.72529E-09
 -1        44 2.10000E-01 1.50000E-01 3.72529E-09
 -1        45 1.80000E-01 1.80000E-01 3.72529E-09
 -1        46 1.80000E-01 1.50000E-01 3.72529E-09
 -1        47 2.10000E-01 1.80000E-01 3.72529E-09
 -1        48 2.10000E-01 2.10000E-01 3.72529E-09
 -1        49 1.80000E-01 2.40000E-01 3.72529E-09
 -1        50 1.80000E-01 2.10000E-01 3.72529E-09
 -1        51 2.10000E-01 2.40000E-01 3.72529E-09
 -1        52 2.10000E-01 2.70000E-01 3.72529E-09
 -1        53 1.80000E-01 3.00000E-01 3.72529E-09
 -1        54 1.80000E-01 2.70000E-01 3.72529E-09
 -1        55 2.10000E-01 3.00000E-01 3.72529E-09
 -1        56 1.20000E-01 3.72529E-09 3.72529E-09
 -1        57 1.50000E-01 3.72529E-09 3.72529E-09
 -1        58 1.50000E-01 3.00000E-02 3.72529E-09
 -1        59 1.20000E-01 6.00000E-02 3.72529E-09
 -1        60 1.20000E-01 3.00000E-02 3.72529E-09
 -1        61 1.50000E-01 6.00000E-02 3.72529E-09
 -1        62 1.50000E-01 9.00000E-02 3.72529E-09
 -1        63 1.20000E-01 1.20000E-01 3.72529E-09
 -1        64 1.20000E-01 9.00000E-02 3.72529E-09
 -1        65 1.50000E-01 1.20000E-01 3.72529E-09
 -1        66 1.50000E-01 1.50000E-01 3.72529E-09
 -1        67 1.20000E-01 1.80000E-01 3.72529E-09
 -1        68 1.20000E-01 1.50000E-01 3.72529E-09
 -1        69 1.50000E-01 1.80000E-01 3.72529E-09
 -1        70 1.50000E-01 2.10000E-01 3.72529E-09
 -1        71 1.20000E-01 2.40000E-01 3.72529E-09
 -1        72 1.20000E-01 2.10000E-01 3.72529E-09
 -1        73 1.50000E-01 2.40000E-01 3.72529E-09
 -1        74 1.50000E-01 2.70000E-01 3.72529E-09
 -1        75 1.20000E-01 3.00000E-01 3.72529E-09
 -1        76 1.20000E-01 2.70000E-01 3.72529E-09
 -1        77 1.50000E-01 3.00000E-01 3.72529E-09
 -1        78 6.00000E-02 3.72529E-09 3.72529E-09
 -1        79 9.00000E-02 3.72529E-09 3.72529E-09
 -1        80 9.00000E-02 3.00000E-02 3.72529E-09
 -1        81 6.00000E-02 6.00000E-02 3.72529E-09
 -1        82 6.00000E-02 3.00000E-02 3.72529E-09
 -1        83 9.00000E-02 6.00000E-02 3.72529E-09
 -1        84 9.00000E-02 9.00000E-02 3.72529E-09
 -1        85 6.00000E-02 1.20000E-01 3.72529E-09
 -1        86 6.00000E-02 9.00000E-02 3.72529E-09
 -1        87 9.00000E-02 1.20000E-01 3.72529E-09
 -1        88 9.00000E-02 1.50000E-01 3.72529E-09
 -1        89 6.00000E-02 1.80000E-01 3.72529E-09
 -1        90 6.00000E-02 1.50000E-01 3.72529E-09
 -1        91 9.00000E-02 1.80000E-01 3.72529E-09
 -1        92 9.00000E-02 2.10000E-01 3.72529E-09
 -1        93 6.00000E-02 2.40000E-01 3.72529E-09
 -1        94 6.00000E-02 2.10000E-01 3.72529E-09
 -1        95 9.00000E-02 2.40000E-01 3.72529E-09
 -1        96 9.00000E-02 2.70000E-01 3.72529E-09
 -1        97 6.00000E-02 3.00000E-01 3.72529E-09
 -1        98 6.00000E-02 2.70000E-01 3.72529E-09
 -1        99 9.00000E-02 3.00000E-01 3.72529E-09
 -1       100 3.72529E-09 3.72529E-09 3.72529E-09
 -1       101 3.00000E-02 3.72529E-09 3.72529E-09
 -1       102 3.00000E-02 3.00000E-02 3.72529E-09
 -1       103 3.72529E-09 6.00000E-02 3.72529E-09
 -1       104 3.72529E-09 3.00000E-02 3.72529E-09
 -1       105 3.00000E-02 6.00000E-02 3.72529E-09
 -1       106 3.00000E-02 9.00000E-02 3.72529E-09
 -1       107 3.72529E-09 1.20000E-01 3.72529E-09
 -1       108 3.72529E-09 9.00000E-02 3.72529E-09
 -1       109 3.00000E-02 1.20000E-01 3.72529E-09
 -1       110 3.00000E-02 1.50000E-01 3.72529E-09
 -1       111 3.72529E-09 1.80000E-01 3.72529E-09
 -1       112 3.72529E-09 1.50000E-01 3.72529E-09
 -1       113 3.00000E-02 1.80000E-01 3.72529E-09
 -1       114 3.00000E-02 2.10000E-01 3.72529E-09
 -1       115 3.72529E-09 2.40000E-01 3.72529E-09
 -1       116 3.72529E-09 2.10000E-01 3.72529E-09
 -1       117 3.00000E-02 2.40000E-01 3.72529E-09
 -1       118 3.00000E-02 2.70000E-01 3.72529E-09
 -1       119 3.72529E-09 3.00000E-01 3.72529E-09
 -1       120 3.72529E-09 2.70000E-01 3.72529E-09
 -1       121 3.00000E-02 3.00000E-01 3.72529E-09
 -1       603-1.00000E-01 5.00000E-01 1.00000E+00
 -1       604 1.00000E-01 5.00000E-01 1.00000E+00
 -1       605 3.00000E-01 5.00000E-01 1.00000E+00
 -1       606 5.00000E-01 5.00000E-01 1.00000E+00
 -1       607 7.00000E-01 5.00000E-01 1.00000E+00
 -1       608 9.00000E-01 5.00000E-01 1.00000E+00
 -1       609 0.00000E+00 5.00000E-01 1.00000E+00
 -1       610 2.00000E-01 5.00000E-01 1.00000E+00
 -1       611 4.00000E-01 5.00000E-01 1.00000E+00
 -1       612 6.00000E-01 5.00000E-01 1.00000E+00
 -1       613 8.00000E-01 5.00000E-01 1.00000E+00
 -1       614 3.00000E-01 3.72529E-09 5.00000E-03
 -1       615 3.00000E-01 3.72529E-09 3.72529E-09
 -1       616 3.00000E-01 3.72529E-09-5.00000E-03
 -1       617 3.00000E-01 5.00000E-03 3.72529E-09
 -1       618 3.00000E-01 3.72529E-09 3.72529E-09
 -1       619 3.00000E-01-5.00000E-03 3.72529E-09
 -1       620 2.95000E-01 3.72529E-09 3.72529E-09
 -1       621 3.00000E-01 3.72529E-09 3.72529E-09
 -1       622 3.05000E-01 3.72529E-09 3.72529E-09
 -1       623 2.40000E-01 3.72529E-09 5.00000E-03
 -1       624 2.40000E-01 3.72529E-09 3.72529E-09
 -1       625 2.40000E-01 3.72529E-09-5.00000E-03
 -1       626 2.40000E-01 5.00000E-03 3.72529E-09
 -1       627 2.40000E-01 3.72529E-09 3.72529E-09
 -1       628 2.40000E-01-5.00000E-03 3.72529E-09
 -1       629 3.00000E-01 6.00000E-02 5.00000E-03
 -1       630 3.00000E-01 6.00000E-02 3.72529E-09
 -1       631 3.00000E-01 6.00000E-02-5.00000E-03
 -1       632 2.95000E-01 6.00000E-02 3.72529E-09
 -1       633 3.00000E-01 6.00000E-02 3.72529E-09
 -1       634 3.05000E-01 6.00000E-02 3.72529E-09
 -1       635 2.70000E-01 3.72529E-09 5.00000E-03
 -1       637 2.70000E-01 3.72529E-09-5.00000E-03
 -1       638 2.70000E-01 5.00000E-03 3.72529E-09
 -1       640 2.70000E-01-5.00000E-03 3.72529E-09
 -1       641 2.70000E-01 3.00000E-02 5.00000E-03
 -1       643 2.70000E-01 3.00000E-02-5.00000E-03
 -1       644 3.00000E-01 3.00000E-02 5.00000E-03
 -1       646 3.00000E-01 3.00000E-02-5.00000E-03
 -1       647 2.95000E-01 3.00000E-02 3.72529E-09
 -1       649 3.05000E-01 3.00000E-02 3.72529E-09
 -1       650 2.40000E-01 6.00000E-02 5.00000E-03
 -1       651 2.40000E-01 6.00000E-02 3.72529E-09
 -1       652 2.40000E-01 6.00000E-02-5.00000E-03
 -1       653 2.40000E-01 3.00000E-02 5.00000E-03
 -1       655 2.40000E-01 3.00000E-02-5.00000E-03
 -1       656 2.70000E-01 6.00000E-02 5.00000E-03
 -1       658 2.70000E-01 6.00000E-02-5.00000E-03
 -1       659 3.00000E-01 1.20000E-01 5.00000E-03
 -1       660 3.00000E-01 1.20000E-01 3.72529E-09
 -1       661 3.00000E-01 1.20000E-01-5.00000E-03
 -1       662 2.95000E-01 1.20000E-01 3.72529E-09
 -1       663 3.00000E-01 1.20000E-01 3.72529E-09
 -1       664 3.05000E-01 1.20000E-01 3.72529E-09
 -1       665 2.70000E-01 9.00000E-02 5.00000E-03
 -1       667 2.70000E-01 9.00000E-02-5.00000E-03
 -1       668 3.00000E-01 9.00000E-02 5.00000E-03
 -1       670 3.00000E-01 9.00000E-02-5.00000E-03
 -1       671 2.95000E-01 9.00000E-02 3.72529E-09
 -1       673 3.05000E-01 9.00000E-02 3.72529E-09
 -1       674 2.40000E-01 1.20000E-01 5.00000E-03
 -1       675 2.40000E-01 1.20000E-01 3.72529E-09
 -1       676 2.40000E-01 1.20000E-01-5.00000E-03
 -1       677 2.40000E-01 9.00000E-02 5.00000E-03
 -1       679 2.40000E-01 9.00000E-02-5.00000E-03
 -1       680 2.70000E-01 1.20000E-01 5.00000E-03
 -1       682 2.70000E-01 1.20000E-01-5.00000E-03
 -1       683 3.00000E-01 1.80000E-01 5.00000E-03
 -1       684 3.00000E-01 1.80000E-01 3.72529E-09
 -1       685 3.00000E-01 1.80000E-01-5.00000E-03
 -1       686 2.95000E-01 1.80000E-01 3.72529E-09
 -1       687 3.00000E-01 1.80000E-01 3.72529E-09
 -1       688 3.05000E-01 1.80000E-01 3.72529E-09
 -1       689 2.70000E-01 1.50000E-01 5.00000E-03
 -1       691 2.70000E-01 1.50000E-01-5.00000E-03
 -1       692 3.00000E-01 1.50000E-01 5.00000E-03
 -1       694 3.00000E-01 1.50000E-01-5.00000E-03
 -1       695 2.95000E-01 1.50000E-01 3.72529E-09
 -1       697 3.05000E-01 1.50000E-01 3.72529E-09
 -1       698 2.40000E-01 1.80000E-01 5.00000E-03
 -1       699 2.40000E-01 1.80000E-01 3.72529E-09
 -1       700 2.40000E-01 1.80000E-01-5.00000E-03
 -1       701 2.40000E-01 1.50000E-01 5.00000E-03
 -1       703 2.40000E-01 1.50000E-01-5.00000E-03
 -1       704 2.70000E-01 1.80000E-01 5.00000E-03
 -1       706 2.70000E-01 1.80000E-01-5.00000E-03
 -1       707 3.00000E-01 2.40000E-01 5.00000E-03
 -1       708 3.00000E-01 2.40000E-01 3.72529E-09
 -1       709 3.00000E-01 2.40000E-01-5.00000E-03
 -1       710 2.95000E-01 2.40000E-01 3.72529E-09
 -1       711 3.00000E-01 2.40000E-01 3.72529E-09
 -1       712 3.05000E-01 2.40000E-01 3.72529E-09
 -1       713 2.70000E-01 2.10000E-01 5.00000E-03
 -1       715 2.70000E-01 2.10000E-01-5.00000E-03
 -1       716 3.00000E-01 2.10000E-01 5.00000E-03
 -1       718 3.00000E-01 2.10000E-01-5.00000E-03
 -1       719 2.95000E-01 2.10000E-01 3.72529E-09
 -1       721 3.05000E-01 2.10000E-01 3.72529E-09
 -1       722 2.40000E-01 2.40000E-01 5.00000E-03
 -1       723 2.40000E-01 2.40000E-01 3.72529E-09
 -1       724 2.40000E-01 2.40000E-01-5.00000E-03
 -1       725 2.40000E-01 2.10000E-01 5.00000E-03
 -1       727 2.40000E-01 2.10000E-01-5.00000E-03
 -1       728 2.70000E-01 2.40000E-01 5.00000E-03
 -1       730 2.70000E-01 2.40000E-01-5.00000E-03
 -1       731 3.00000E-01 3.00000E-01 5.00000E-03
 -1       732 3.00000E-01 3.00000E-01 3.72529E-09
 -1       733 3.00000E-01 3.00000E-01-5.00000E-03
 -1       734 3.00000E-01 2.95000E-01 3.72529E-09
 -1       735 3.00000E-01 3.00000E-01 3.72529E-09
 -1       736 3.00000E-01 3.05000E-01 3.72529E-09
 -1       737 2.95000E-01 3.00000E-01 3.72529E-09
 -1       738 3.00000E-01 3.00000E-01 3.72529E-09
 -1       739 3.05000E-01 3.00000E-01 3.72529E-09
 -1       740 2.70000E-01 2.70000E-01 5.00000E-03
 -1       742 2.70000E-01 2.70000E-01-5.00000E-03
 -1       743 3.00000E-01 2.70000E-01 5.00000E-03
 -1       745 3.00000E-01 2.70000E-01-5.00000E-03
 -1       746 2.95000E-01 2.70000E-01 3.72529E-09
 -1       748 3.05000E-01 2.70000E-01 3.72529E-09
 -1       749 2.40000E-01 3.00000E-01 5.00000E-03
 -1       750 2.40000E-01 3.00000E-01 3.72529E-09
 -1       751 2.40000E-01 3.00000E-01-5.00000E-03
 -1       752 2.40000E-01 2.95000E-01 3.72529E-09
 -1       753 2.40000E-01 3.00000E-01 3.72529E-09
 -1       754 2.40000E-01 3.05000E-01 3.72529E-09
 -1       755 2.40000E-01 2.70000E-01 5.00000E-03
 -1       757 2.40000E-01 2.70000E-01-5.00000E-03
 -1       758 2.70000E-01 3.00000E-01 5.00000E-03
 -1       760 2.70000E-01 3.00000E-01-5.00000E-03
 -1       761 2.70000E-01 2.95000E-01 3.72529E-09
 -1       763 2.70000E-01 3.05000E-01 3.72529E-09
 -1       764 1.80000E-01 3.72529E-09 5.00000E-03
 -1       765 1.80000E-01 3.72529E-09 3.72529E-09
 -1       766 1.80000E-01 3.72529E-09-5.00000E-03
 -1       767 1.80000E-01 5.00000E-03 3.72529E-09
 -1       768 1.80000E-01 3.72529E-09 3.72529E-09
 -1       769 1.80000E-01-5.00000E-03 3.72529E-09
 -1       770 2.10000E-01 3.72529E-09 5.00000E-03
 -1       772 2.10000E-01 3.72529E-09-5.00000E-03
 -1       773 2.10000E-01 5.00000E-03 3.72529E-09
 -1       775 2.10000E-01-5.00000E-03 3.72529E-09
 -1       776 2.10000E-01 3.00000E-02 5.00000E-03
 -1       778 2.10000E-01 3.00000E-02-5.00000E-03
 -1       779 1.80000E-01 6.00000E-02 5.00000E-03
 -1       780 1.80000E-01 6.00000E-02 3.72529E-09
 -1       781 1.80000E-01 6.00000E-02-5.00000E-03
 -1       782 1.80000E-01 3.00000E-02 5.00000E-03
 -1       784 1.80000E-01 3.00000E-02-5.00000E-03
 -1       785 2.10000E-01 6.00000E-02 5.00000E-03
 -1       787 2.10000E-01 6.00000E-02-5.00000E-03
 -1       788 2.10000E-01 9.00000E-02 5.00000E-03
 -1       790 2.10000E-01 9.00000E-02-5.00000E-03
 -1       791 1.80000E-01 1.20000E-01 5.00000E-03
 -1       792 1.80000E-01 1.20000E-01 3.72529E-09
 -1       793 1.80000E-01 1.20000E-01-5.00000E-03
 -1       794 1.80000E-01 9.00000E-02 5.00000E-03
 -1       796 1.80000E-01 9.00000E-02-5.00000E-03
 -1       797 2.10000E-01 1.20000E-01 5.00000E-03
 -1       799 2.10000E-01 1.20000E-01-5.00000E-03
 -1       800 2.10000E-01 1.50000E-01 5.00000E-03
 -1       802 2.10000E-01 1.50000E-01-5.00000E-03
 -1       803 1.80000E-01 1.80000E-01 5.00000E-03
 -1       804 1.80000E-01 1.80000E-01 3.72529E-09
 -1       805 1.80000E-01 1.80000E-01-5.00000E-03
 -1       806 1.80000E-01 1.50000E-01 5.00000E-03
 -1       808 1.80000E-01 1.50000E-01-5.00000E-03
 -1       809 2.10000E-01 1.80000E-01 5.00000E-03
 -1       811 2.10000E-01 1.80000E-01-5.00000E-03
 -1       812 2.10000E-01 2.10000E-01 5.00000E-03
 -1       814 2.10000E-01 2.10000E-01-5.00000E-03
 -1       815 1.80000E-01 2.40000E-01 5.00000E-03
 -1       816 1.80000E-01 2.40000E-01 3.72529E-09
 -1       817 1.80000E-01 2.40000E-01-5.00000E-03
 -1       818 1.80000E-01 2.10000E-01 5.00000E-03
 -1       820 1.80000E-01 2.10000E-01-5.00000E-03
 -1       821 2.10000E-01 2.40000E-01 5.00000E-03
 -1       823 2.10000E-01 2.40000E-01-5.00000E-03
 -1       824 2.10000E-01 2.70000E-01 5.00000E-03
 -1       826 2.10000E-01 2.70000E-01-5.00000E-03
 -1       827 1.80000E-01 3.00000E-01 5.00000E-03
 -1       828 1.80000E-01 3.00000E-01 3.72529E-09
 -1       829 1.80000E-01 3.00000E-01-5.00000E-03
 -1       830 1.80000E-01 2.95000E-01 3.72529E-09
 -1       831 1.80000E-01 3.00000E-01 3.72529E-09
 -1       832 1.80000E-01 3.05000E-01 3.72529E-09
 -1       833 1.80000E-01 2.70000E-01 5.00000E-03
 -1       835 1.80000E-01 2.70000E-01-5.00000E-03
 -1       836 2.10000E-01 3.00000E-01 5.00000E-03
 -1       838 2.10000E-01 3.00000E-01-5.00000E-03
 -1       839 2.10000E-01 2.95000E-01 3.72529E-09
 -1       841 2.10000E-01 3.05000E-01 3.72529E-09
 -1       842 1.20000E-01 3.72529E-09 5.00000E-03
 -1       843 1.20000E-01 3.72529E-09 3.72529E-09
 -1       844 1.20000E-01 3.72529E-09-5.00000E-03
 -1       845 1.20000E-01 5.00000E-03 3.72529E-09
 -1       846 1.20000E-01 3.72529E-09 3.72529E-09
 -1       847 1.20000E-01-5.00000E-03 3.72529E-09
 -1       848 1.50000E-01 3.72529E-09 5.00000E-03
 -1       850 1.50000E-01 3.72529E-09-5.00000E-03
 -1       851 1.50000E-01 5.00000E-03 3.72529E-09
 -1       853 1.50000E-01-5.00000E-03 3.72529E-09
 -1       854 1.50000E-01 3.00000E-02 5.00000E-03
 -1       856 1.50000E-01 3.00000E-02-5.00000E-03
 -1       857 1.20000E-01 6.00000E-02 5.00000E-03
 -1       858 1.20000E-01 6.00000E-02 3.72529E-09
 -1       859 1.20000E-01 6.00000E-02-5.00000E-03
 -1       860 1.20000E-01 3.00000E-02 5.00000E-03
 -1       862 1.20000E-01 3.00000E-02-5.00000E-03
 -1       863 1.50000E-01 6.00000E-02 5.00000E-03
 -1       865 1.50000E-01 6.00000E-02-5.00000E-03
 -1       866 1.50000E-01 9.00000E-02 5.00000E-03
 -1       868 1.50000E-01 9.00000E-02-5.00000E-03
 -1       869 1.20000E-01 1.20000E-01 5.00000E-03
 -1       870 1.20000E-01 1.20000E-01 3.72529E-09
 -1       871 1.20000E-01 1.20000E-01-5.00000E-03
 -1       872 1.20000E-01 9.00000E-02 5.00000E-03
 -1       874 1.20000E-01 9.00000E-02-5.00000E-03
 -1       875 1.50000E-01 1.20000E-01 5.00000E-03
 -1       877 1.50000E-01 1.20000E-01-5.00000E-03
 -1       878 1.50000E-01 1.50000E-01 5.00000E-03
 -1       880 1.50000E-01 1.50000E-01-5.00000E-03
 -1       881 1.20000E-01 1.80000E-01 5.00000E-03
 -1       882 1.20000E-01 1.80000E-01 3.72529E-09
 -1       883 1.20000E-01 1.80000E-01-5.00000E-03
 -1       884 1.20000E-01 1.50000E-01 5.00000E-03
 -1       886 1.20000E-01 1.50000E-01-5.00000E-03
 -1       887 1.50000E-01 1.80000E-01 5.00000E-03
 -1       889 1.50000E-01 1.80000E-01-5.00000E-03
 -1       890 1.50000E-01 2.10000E-01 5.00000E-03
 -1       892 1.50000E-01 2.10000E-01-5.00000E-03
 -1       893 1.20000E-01 2.40000E-01 5.00000E-03
 -1       894 1.20000E-01 2.40000E-01 3.72529E-09
 -1       895 1.20000E-01 2.40000E-01-5.00000E-03
 -1       896 1.20000E-01 2.10000E-01 5.00000E-03
 -1       898 1.20000E-01 2.10000E-01-5.00000E-03
 -1       899 1.50000E-01 2.40000E-01 5.00000E-03
 -1       901 1.50000E-01 2.40000E-01-5.00000E-03
 -1       902 1.50000E-01 2.70000E-01 5.00000E-03
 -1       904 1.50000E-01 2.70000E-01-5.00000E-03
 -1       905 1.20000E-01 3.00000E-01 5.00000E-03
 -1       906 1.20000E-01 3.00000E-01 3.72529E-09
 -1       907 1.20000E-01 3.00000E-01-5.00000E-03
 -1       908 1.20000E-01 2.95000E-01 3.72529E-09
 -1       909 1.20000E-01 3.00000E-01 3.72529E-09
 -1       910 1.20000E-01 3.05000E-01 3.72529E-09
 -1       911 1.20000E-01 2.70000E-01 5.00000E-03
 -1       913 1.20000E-01 2.70000E-01-5.00000E-03
 -1       914 1.50000E-01 3.00000E-01 5.00000E-03
 -1       916 1.50000E-01 3.00000E-01-5.00000E-03
 -1       917 1.50000E-01 2.95000E-01 3.72529E-09
 -1       919 1.50000E-01 3.05000E-01 3.72529E-09
 -1       920 6.00000E-02 3.72529E-09 5.00000E-03
 -1       921 6.00000E-02 3.72529E-09 3.72529E-09
 -1       922 6.00000E-02 3.72529E-09-5.00000E-03
 -1       923 6.00000E-02 5.00000E-03 3.72529E-09
 -1       924 6.00000E-02 3.72529E-09 3.72529E-09
 -1       925 6.00000E-02-5.00000E-03 3.72529E-09
 -1       926 9.00000E-02 3.72529E-09 5.00000E-03
 -1       928 9.00000E-02 3.72529E-09-5.00000E-03
 -1       929 9.00000E-02 5.00000E-03 3.72529E-09
 -1       931 9.00000E-02-5.00000E-03 3.72529E-09
 -1       932 9.00000E-02 3.00000E-02 5.00000E-03
 -1       934 9.00000E-02 3.00000E-02-5.00000E-03
 -1       935 6.00000E-02 6.00000E-02 5.00000E-03
 -1       936 6.00000E-02 6.00000E-02 3.72529E-09
 -1       937 6.00000E-02 6.00000E-02-5.00000E-03
 -1       938 6.00000E-02 3.00000E-02 5.00000E-03
 -1       940 6.00000E-02 3.00000E-02-5.00000E-03
 -1       941 9.00000E-02 6.00000E-02 5.00000E-03
 -1       943 9.00000E-02 6.00000E-02-5.00000E-03
 -1       944 9.00000E-02 9.00000E-02 5.00000E-03
 -1       946 9.00000E-02 9.00000E-02-5.00000E-03
 -1       947 6.00000E-02 1.20000E-01 5.00000E-03
 -1       948 6.00000E-02 1.20000E-01 3.72529E-09
 -1       949 6.00000E-02 1.20000E-01-5.00000E-03
 -1       950 6.00000E-02 9.00000E-02 5.00000E-03
 -1       952 6.00000E-02 9.00000E-02-5.00000E-03
 -1       953 9.00000E-02 1.20000E-01 5.00000E-03
 -1       955 9.00000E-02 1.20000E-01-5.00000E-03
 -1       956 9.00000E-02 1.50000E-01 5.00000E-03
 -1       958 9.00000E-02 1.50000E-01-5.00000E-03
 -1       959 6.00000E-02 1.80000E-01 5.00000E-03
 -1       960 6.00000E-02 1.80000E-01 3.72529E-09
 -1       961 6.00000E-02 1.80000E-01-5.00000E-03
 -1       962 6.00000E-02 1.50000E-01 5.00000E-03
 -1       964 6.00000E-02 1.50000E-01-5.00000E-03
 -1       965 9.00000E-02 1.80000E-01 5.00000E-03
 -1       967 9.00000E-02 1.80000E-01-5.00000E-03
 -1       968 9.00000E-02 2.10000E-01 5.00000E-03
 -1       970 9.00000E-02 2.10000E-01-5.00000E-03
 -1       971 6.00000E-02 2.40000E-01 5.00000E-03
 -1       972 6.00000E-02 2.40000E-01 3.72529E-09
 -1       973 6.00000E-02 2.40000E-01-5.00000E-03
 -1       974 6.00000E-02 2.10000E-01 5.00000E-03
 -1       976 6.00000E-02 2.10000E-01-5.00000E-03
 -1       977 9.00000E-02 2.40000E-01 5.00000E-03
 -1       979 9.00000E-02 2.40000E-01-5.00000E-03
 -1       980 9.00000E-02 2.70000E-01 5.00000E-03
 -1       982 9.00000E-02 2.70000E-01-5.00000E-03
 -1       983 6.00000E-02 3.00000E-01 5.00000E-03
 -1       984 6.00000E-02 3.00000E-01 3.72529E-09
 -1       985 6.00000E-02 3.00000E-01-5.00000E-03
 -1       986 6.00000E-02 2.95000E-01 3.72529E-09
 -1       987 6.00000E-02 3.00000E-01 3.72529E-09
 -1       988 6.00000E-02 3.05000E-01 3.72529E-09
 -1       989 6.00000E-02 2.70000E-01 5.00000E-03
 -1       991 6.00000E-02 2.70000E-01-5.00000E-03
 -1       992 9.00000E-02 3.00000E-01 5.00000E-03
 -1       994 9.00000E-02 3.00000E-01-5.00000E-03
 -1       995 9.00000E-02 2.95000E-01 3.72529E-09
 -1       997 9.00000E-02 3.05000E-01 3.72529E-09
 -1       998 3.72529E-09 3.72529E-09 5.00000E-03
 -1       999 3.72529E-09 3.72529E-09 3.72529E-09
 -1      1000 3.72529E-09 3.72529E-09-5.00000E-03
 -1      1001 3.72529E-09 5.00000E-03 3.72529E-09
 -1      1002 3.72529E-09 3.72529E-09 3.72529E-09
 -1      1003 3.72529E-09-5.00000E-03 3.72529E-09
 -1      1004 5.00000E-03 3.72529E-09 3.72529E-09
 -1      1005 3.72529E-09 3.72529E-09 3.72529E-09
 -1      1006-5.00000E-03 3.72529E-09 3.72529E-09
 -1      1007 3.00000E-02 3.72529E-09 5.00000E-03
 -1      1009 3.00000E-02 3.72529E-09-5.00000E-03
 -1      1010 3.00000E-02 5.00000E-03 3.72529E-09
 -1      1012 3.00000E-02-5.00000E-03 3.72529E-09
 -1      1013 3.00000E-02 3.00000E-02 5.00000E-03
 -1      1015 3.00000E-02 3.00000E-02-5.00000E-03
 -1      1016 3.72529E-09 6.00000E-02 5.00000E-03
 -1      1017 3.72529E-09 6.00000E-02 3.72529E-09
 -1      1018 3.72529E-09 6.00000E-02-5.00000E-03
 -1      1019 5.00000E-03 6.00000E-02 3.72529E-09
 -1      1020 3.72529E-09 6.00000E-02 3.72529E-09
 -1      1021-5.00000E-03 6.00000E-02 3.72529E-09
 -1      1022 3.72529E-09 3.00000E-02 5.00000E-03
 -1      1024 3.72529E-09 3.00000E-02-5.00000E-03
 -1      1025 5.00000E-03 3.00000E-02 3.72529E-09
 -1      1027-5.00000E-03 3.00000E-02 3.72529E-09
 -1      1028 3.00000E-02 6.00000E-02 5.00000E-03
 -1      1030 3.00000E-02 6.00000E-02-5.00000E-03
 -1      1031 3.00000E-02 9.00000E-02 5.00000E-03
 -1      1033 3.00000E-02 9.00000E-02-5.00000E-03
 -1      1034 3.72529E-09 1.20000E-01 5.00000E-03
 -1      1035 3.72529E-09 1.20000E-01 3.72529E-09
 -1      1036 3.72529E-09 1.20000E-01-5.00000E-03
 -1      1037 5.00000E-03 1.20000E-01 3.72529E-09
 -1      1038 3.72529E-09 1.20000E-01 3.72529E-09
 -1      1039-5.00000E-03 1.20000E-01 3.72529E-09
 -1      1040 3.72529E-09 9.00000E-02 5.00000E-03
 -1      1042 3.72529E-09 9.00000E-02-5.00000E-03
 -1      1043 5.00000E-03 9.00000E-02 3.72529E-09
 -1      1045-5.00000E-03 9.00000E-02 3.72529E-09
 -1      1046 3.00000E-02 1.20000E-01 5.00000E-03
 -1      1048 3.00000E-02 1.20000E-01-5.00000E-03
 -1      1049 3.00000E-02 1.50000E-01 5.00000E-03
 -1      1051 3.00000E-02 1.50000E-01-5.00000E-03
 -1      1052 3.72529E-09 1.80000E-01 5.00000E-03
 -1      1053 3.72529E-09 1.80000E-01 3.72529E-09
 -1      1054 3.72529E-09 1.80000E-01-5.00000E-03
 -1      1055 5.00000E-03 1.80000E-01 3.72529E-09
 -1      1056 3.72529E-09 1.80000E-01 3.72529E-09
 -1      1057-5.00000E-03 1.80000E-01 3.72529E-09
 -1      1058 3.72529E-09 1.50000E-01 5.00000E-03
 -1      1060 3.72529E-09 1.50000E-01-5.00000E-03
 -1      1061 5.00000E-03 1.50000E-01 3.72529E-09
 -1      1063-5.00000E-03 1.50000E-01 3.72529E-09
 -1      1064 3.00000E-02 1.80000E-01 5.00000E-03
 -1      1066 3.00000E-02 1.80000E-01-5.00000E-03
 -1      1067 3.00000E-02 2.10000E-01 5.00000E-03
 -1      1069 3.00000E-02 2.10000E-01-5.00000E-03
 -1      1070 3.72529E-09 2.40000E-01 5.00000E-03
 -1      1071 3.72529E-09 2.40000E-01 3.72529E-09
 -1      1072 3.72529E-09 2.40000E-01-5.00000E-03
 -1      1073 5.00000E-03 2.40000E-01 3.72529E-09
 -1      1074 3.72529E-09 2.40000E-01 3.72529E-09
 -1      1075-5.00000E-03 2.40000E-01 3.72529E-09
 -1      1076 3.72529E-09 2.10000E-01 5.00000E-03
 -1      1078 3.72529E-09 2.10000E-01-5.00000E-03
 -1      1079 5.00000E-03 2.10000E-01 3.72529E-09
 -1      1081-5.00000E-03 2.10000E-01 3.72529E-09
 -1      1082 3.00000E-02 2.40000E-01 5.00000E-03
 -1      1084 3.00000E-02 2.40000E-01-5.00000E-03
 -1      1085 3.00000E-02 2.70000E-01 5.00000E-03
 -1      1087 3.00000E-02 2.70000E-01-5.00000E-03
 -1      1088 3.72529E-09 3.00000E-01 5.00000E-03
 -1      1089 3.72529E-09 3.00000E-01 3.72529E-09
 -1      1090 3.72529E-09 3.00000E-01-5.00000E-03
 -1      1091 3.72529E-09 2.95000E-01 3.72529E-09
 -1      1092 3.72529E-09 3.00000E-01 3.72529E-09
 -1      1093 3.72529E-09 3.05000E-01 3.72529E-09
 -1      1094 5.00000E-03 3.00000E-01 3.72529E-09
 -1      1095 3.72529E-09 3.00000E-01 3.72529E-09
 -1      1096-5.00000E-03 3.00000E-01 3.72529E-09
 -1      1097 3.72529E-09 2.70000E-01 5.00000E-03
 -1      1099 3.72529E-09 2.70000E-01-5.00000E-03
 -1      1100 5.00000E-03 2.70000E-01 3.72529E-09
 -1      1102-5.00000E-03 2.70000E-01 3.72529E-09
 -1      1103 3.00000E-02 3.00000E-01 5.00000E-03
 -1      1105 3.00000E-02 3.00000E-01-5.00000E-03
 -1      1106 3.00000E-02 2.95000E-01 3.72529E-09
 -1      1108 3.00000E-02 3.05000E-01 3.72529E-09
 -1      1109 3.00000E-01 3.72529E-09 2.95000E-01
 -1      1110 3.00000E-01 3.72529E-09 3.00000E-01
 -1      1111 3.00000E-01 3.72529E-09 3.05000E-01
 -1      1112 3.00000E-01 5.00000E-03 3.00000E-01
 -1      1113 3.00000E-01 3.72529E-09 3.00000E-01
 -1      1114 3.00000E-01-5.00000E-03 3.00000E-01
 -1      1115 2.95000E-01 3.72529E-09 3.00000E-01
 -1      1116 3.00000E-01 3.72529E-09 3.00000E-01
 -1      1117 3.05000E-01 3.72529E-09 3.00000E-01
 -1      1118 2.40000E-01 3.72529E-09 2.95000E-01
 -1      1119 2.40000E-01 3.72529E-09 3.00000E-01
 -1      1120 2.40000E-01 3.72529E-09 3.05000E-01
 -1      1121 2.40000E-01 5.00000E-03 3.00000E-01
 -1      1122 2.40000E-01 3.72529E-09 3.00000E-01
 -1      1123 2.40000E-01-5.00000E-03 3.00000E-01
 -1      1124 3.00000E-01 6.00000E-02 2.95000E-01
 -1      1125 3.00000E-01 6.00000E-02 3.00000E-01
 -1      1126 3.00000E-01 6.00000E-02 3.05000E-01
 -1      1127 2.95000E-01 6.00000E-02 3.00000E-01
 -1      1128 3.00000E-01 6.00000E-02 3.00000E-01
 -1      1129 3.05000E-01 6.00000E-02 3.00000E-01
 -1      1130 2.70000E-01 3.72529E-09 2.95000E-01
 -1      1132 2.70000E-01 3.72529E-09 3.05000E-01
 -1      1133 2.70000E-01 5.00000E-03 3.00000E-01
 -1      1135 2.70000E-01-5.00000E-03 3.00000E-01
 -1      1136 2.70000E-01 3.00000E-02 2.95000E-01
 -1      1138 2.70000E-01 3.00000E-02 3.05000E-01
 -1      1139 3.00000E-01 3.00000E-02 2.95000E-01
 -1      1141 3.00000E-01 3.00000E-02 3.05000E-01
 -1      1142 2.95000E-01 3.00000E-02 3.00000E-01
 -1      1144 3.05000E-01 3.00000E-02 3.00000E-01
 -1      1145 2.40000E-01 6.00000E-02 2.95000E-01
 -1      1146 2.40000E-01 6.00000E-02 3.00000E-01
 -1      1147 2.40000E-01 6.00000E-02 3.05000E-01
 -1      1148 2.40000E-01 3.00000E-02 2.95000E-01
 -1      1150 2.40000E-01 3.00000E-02 3.05000E-01
 -1      1151 2.70000E-01 6.00000E-02 2.95000E-01
 -1      1153 2.70000E-01 6.00000E-02 3.05000E-01
 -1      1154 3.00000E-01 1.20000E-01 2.95000E-01
 -1      1155 3.00000E-01 1.20000E-01 3.00000E-01
 -1      1156 3.00000E-01 1.20000E-01 3.05000E-01
 -1      1157 2.95000E-01 1.20000E-01 3.00000E-01
 -1      1158 3.00000E-01 1.20000E-01 3.00000E-01
 -1      1159 3.05000E-01 1.20000E-01 3.00000E-01
 -1      1160 2.70000E-01 9.00000E-02 2.95000E-01
 -1      1162 2.70000E-01 9.00000E-02 3.05000E-01
 -1      1163 3.00000E-01 9.00000E-02 2.95000E-01
 -1      1165 3.00000E-01 9.00000E-02 3.05000E-01
 -1      1166 2.95000E-01 9.00000E-02 3.00000E-01
 -1      1168 3.05000E-01 9.00000E-02 3.00000E-01
 -1      1169 2.40000E-01 1.20000E-01 2.95000E-01
 -1      1170 2.40000E-01 1.20000E-01 3.00000E-01
 -1      1171 2.40000E-01 1.20000E-01 3.05000E-01
 -1      1172 2.40000E-01 9.00000E-02 2.95000E-01
 -1      1174 2.40000E-01 9.00000E-02 3.05000E-01
 -1      1175 2.70000E-01 1.20000E-01 2.95000E-01
 -1      1177 2.70000E-01 1.20000E-01 3.05000E-01
 -1      1178 3.00000E-01 1.80000E-01 2.95000E-01
 -1      1179 3.00000E-01 1.80000E-01 3.00000E-01
 -1      1180 3.00000E-01 1.80000E-01 3.05000E-01