# vtk DataFile Version 3.0

ASCII
DATASET UNSTRUCTURED_GRID

POINTS 8 double
	 0.00000000E+00	 0.00000000E+00	 0.00000000E+00
	 1.00000000E+00	 0.00000000E+00	 0.00000000E+00
	 1.00000000E+00	 1.00000000E+00	 0.00000000E+00
	 0.00000000E+00	 1.00000000E+00	 0.00000000E+00
	 5.00000000E-01	 0.00000000E+00	 0.00000000E+00
	 1.00000000E+00	 5.00000000E-01	 0.00000000E+00
	 5.00000000E-01	 1.00000000E+00	 0.00000000E+00
	 0.00000000E+00	 5.00000000E-01	 0.00000000E+00

CELLS 1 9
	8        0       1       2       3       4       5       6       7

CELL_TYPES 1
	23

POINT_DATA 8
VECTORS 1_1.0_DISP double
	 0.00000000E+00	 0.00000000E+00	 0.00000000E+00
	-1.85714000E-06	 0.00000000E+00	 0.00000000E+00
	-1.85714000E-06	 4.33333000E-06	 0.00000000E+00
	 8.47033000E-22	 4.33333000E-06	 0.00000000E+00
	-9.28571000E-07	 0.00000000E+00	 0.00000000E+00
	-1.85714000E-06	 2.16667000E-06	 0.00000000E+00
	-9.28571000E-07	 4.33333000E-06	 0.00000000E+00
	 1.05879000E-22	 2.16667000E-06	 0.00000000E+00
VECTORS 1_1.0_FORC double
	 1.65822000E-16	-1.66667000E-01	-3.46945000E-18
	-3.61896000E-17	-1.66667000E-01	 3.12250000E-17
	 1.50379000E-16	 1.66667000E-01	 3.46945000E-18
	 6.79162000E-17	 1.66667000E-01	 3.46945000E-18
	-2.19617000E-16	-6.66667000E-01	 1.38778000E-17
	 3.55592000E-17	-3.97252000E-16	-2.77556000E-17
	-1.80584000E-16	 6.66667000E-01	 0.00000000E+00
	 1.67147000E-17	-7.48099000E-18	 0.00000000E+00
