# vtk DataFile Version 3.0

ASCII
DATASET UNSTRUCTURED_GRID

POINTS 8 double
	 1.00000000E+00	 0.00000000E+00	-5.00000000E-03
	 1.00000000E+00	 0.00000000E+00	 5.00000000E-03
	 0.00000000E+00	 0.00000000E+00	-5.00000000E-03
	 0.00000000E+00	 0.00000000E+00	 5.00000000E-03
	 0.00000000E+00	 1.00000000E+00	-5.00000000E-03
	 0.00000000E+00	 1.00000000E+00	 5.00000000E-03
	 1.00000000E+00	 1.00000000E+00	-5.00000000E-03
	 1.00000000E+00	 1.00000000E+00	 5.00000000E-03

CELLS 1 9
	8        0       6       4       2       1       7       5       3

CELL_TYPES 1
	12

POINT_DATA 8
VECTORS 1_1.0_DISP double
	 0.00000000E+00	 0.00000000E+00	 0.00000000E+00
	 0.00000000E+00	 0.00000000E+00	 0.00000000E+00
	 1.85714000E-04	 0.00000000E+00	 0.00000000E+00
	 1.85714000E-04	 0.00000000E+00	 0.00000000E+00
	 1.85714000E-04	 4.33333000E-04	 0.00000000E+00
	 1.85714000E-04	 4.33333000E-04	 0.00000000E+00
	 1.25727000E-16	 4.33333000E-04	 0.00000000E+00
	 1.25727000E-16	 4.33333000E-04	 0.00000000E+00
VECTORS 1_1.0_FORC double
	-1.33101000E-14	-2.50000000E-01	-7.50000000E+00
	-3.11611000E-14	-2.50000000E-01	 7.50000000E+00
	 3.40729000E-14	-2.50000000E-01	-7.50000000E+00
	 2.65797000E-14	-2.50000000E-01	 7.50000000E+00
	-1.73218000E-14	 2.50000000E-01	-7.50000000E+00
	-3.01236000E-14	 2.50000000E-01	 7.50000000E+00
	 2.06408000E-14	 2.50000000E-01	-7.50000000E+00
	 1.06232000E-14	 2.50000000E-01	 7.50000000E+00
