# vtk DataFile Version 3.0

ASCII
DATASET UNSTRUCTURED_GRID

POINTS 8 double
	 1.00000000E+00	 0.00000000E+00	-5.00000000E-03
	 1.00000000E+00	 0.00000000E+00	 5.00000000E-03
	 0.00000000E+00	 0.00000000E+00	-5.00000000E-03
	 0.00000000E+00	 0.00000000E+00	 5.00000000E-03
	 0.00000000E+00	 1.00000000E+00	-5.00000000E-03
	 0.00000000E+00	 1.00000000E+00	 5.00000000E-03
	 1.00000000E+00	 1.00000000E+00	-5.00000000E-03
	 1.00000000E+00	 1.00000000E+00	 5.00000000E-03

CELLS 1 9
	8        0       6       4       2       1       7       5       3

CELL_TYPES 1
	12

POINT_DATA 8
FIELD DISP 1
	DISP 3 8 double
		 0.00000000E+00  0.00000000E+00  0.00000000E+00 
		 0.00000000E+00  0.00000000E+00  0.00000000E+00 
		 1.85714000E-04  0.00000000E+00  0.00000000E+00 
		 1.85714000E-04  0.00000000E+00  0.00000000E+00 
		 1.85714000E-04  4.33333000E-04  0.00000000E+00 
		 1.85714000E-04  4.33333000E-04  0.00000000E+00 
		 1.25727000E-16  4.33333000E-04  0.00000000E+00 
		 1.25727000E-16  4.33333000E-04  0.00000000E+00 
FIELD STRESS 1
	STRESS 10 8 double
		-3.12260000E-11  9.99960000E+01  2.99988000E+01  1.01538000E-11 -1.65589000E-13 -1.62546000E-13  8.88783889E+01 -3.12212478E-11  9.99960000E+01  2.99988000E+01 
		-3.12321000E-11  9.99960000E+01  2.99988000E+01  1.01523000E-11 -1.65589000E-13 -3.41685000E-14  8.88783889E+01 -3.12354587E-11  9.99960000E+01  2.99988000E+01 
		-1.43057000E-11  9.99960000E+01  2.99988000E+01 -2.10502000E-12 -8.56871000E-14  5.98111000E-14  8.88783889E+01 -1.43103307E-11  9.99960000E+01  2.99988000E+01 
		-1.43040000E-11  9.99960000E+01  2.99988000E+01 -2.10455000E-12 -8.56871000E-14  2.54129000E-14  8.88783889E+01 -1.43103307E-11  9.99960000E+01  2.99988000E+01 
		 2.85855000E-11  9.99960000E+01  2.99988000E+01 -1.33868000E-11  4.10776000E-13 -7.96699000E-14  8.88783889E+01  2.85780288E-11  9.99960000E+01  2.99988000E+01 
		 2.85793000E-11  9.99960000E+01  2.99988000E+01 -1.33899000E-11  4.10776000E-13 -5.63749000E-14  8.88783889E+01  2.85780288E-11  9.99960000E+01  2.99988000E+01 
		 1.16574000E-11  9.99960000E+01  2.99988000E+01 -1.13241000E-12  2.78333000E-13  7.09143000E-14  8.88783889E+01  1.16386900E-11  9.99960000E+01  2.99988000E+01 
		 1.16803000E-11  9.99960000E+01  2.99988000E+01 -1.13193000E-12  2.78333000E-13 -1.60253000E-14  8.88783889E+01  1.16671117E-11  9.99960000E+01  2.99988000E+01 
FIELD FORC 1
	FORC 3 8 double
		-1.33101000E-14 -2.50000000E-01 -7.50000000E+00 
		-3.11611000E-14 -2.50000000E-01  7.50000000E+00 
		 3.40729000E-14 -2.50000000E-01 -7.50000000E+00 
		 2.65797000E-14 -2.50000000E-01  7.50000000E+00 
		-1.73218000E-14  2.50000000E-01 -7.50000000E+00 
		-3.01236000E-14  2.50000000E-01  7.50000000E+00 
		 2.06408000E-14  2.50000000E-01 -7.50000000E+00 
		 1.06232000E-14  2.50000000E-01  7.50000000E+00 
