# vtk DataFile Version 3.0

ASCII
DATASET UNSTRUCTURED_GRID

POINTS 321 double
	 1.00000000E-02	 1.00000000E-02	 0.00000000E+00
	 1.00000000E-02	 5.00000000E-03	 0.00000000E+00
	 1.00000000E-02	 5.00000000E-03	 1.00000000E-02
	 1.00000000E-02	 1.00000000E-02	 1.00000000E-02
	 5.00000000E-03	 1.00000000E-02	 0.00000000E+00
	 5.00000000E-03	 5.00000000E-03	 0.00000000E+00
	 5.00000000E-03	 5.00000000E-03	 1.00000000E-02
	 5.00000000E-03	 1.00000000E-02	 1.00000000E-02
	 1.00000000E-02	 7.50000000E-03	 0.00000000E+00
	 1.00000000E-02	 5.00000000E-03	 5.00000000E-03
	 1.00000000E-02	 7.50000000E-03	 1.00000000E-02
	 1.00000000E-02	 1.00000000E-02	 5.00000000E-03
	 7.50000000E-03	 1.00000000E-02	 0.00000000E+00
	 7.50000000E-03	 5.00000000E-03	 0.00000000E+00
	 7.50000000E-03	 5.00000000E-03	 1.00000000E-02
	 7.50000000E-03	 1.00000000E-02	 1.00000000E-02
	 5.00000000E-03	 7.50000000E-03	 0.00000000E+00
	 5.00000000E-03	 5.00000000E-03	 5.00000000E-03
	 5.00000000E-03	 7.50000000E-03	 1.00000000E-02
	 5.00000000E-03	 1.00000000E-02	 5.00000000E-03
	 1.00000000E-02	 5.00000000E-03	 2.00000000E-02
	 1.00000000E-02	 1.00000000E-02	 2.00000000E-02
	 5.00000000E-03	 5.00000000E-03	 2.00000000E-02
	 5.00000000E-03	 1.00000000E-02	 2.00000000E-02
	 1.00000000E-02	 5.00000000E-03	 1.50000000E-02
	 1.00000000E-02	 7.50000000E-03	 2.00000000E-02
	 1.00000000E-02	 1.00000000E-02	 1.50000000E-02
	 7.50000000E-03	 5.00000000E-03	 2.00000000E-02
	 7.50000000E-03	 1.00000000E-02	 2.00000000E-02
	 5.00000000E-03	 5.00000000E-03	 1.50000000E-02
	 5.00000000E-03	 7.50000000E-03	 2.00000000E-02
	 5.00000000E-03	 1.00000000E-02	 1.50000000E-02
	 1.00000000E-02	 5.00000000E-03	 3.00000000E-02
	 1.00000000E-02	 1.00000000E-02	 3.00000000E-02
	 5.00000000E-03	 5.00000000E-03	 3.00000000E-02
	 5.00000000E-03	 1.00000000E-02	 3.00000000E-02
	 1.00000000E-02	 5.00000000E-03	 2.50000000E-02
	 1.00000000E-02	 7.50000000E-03	 3.00000000E-02
	 1.00000000E-02	 1.00000000E-02	 2.50000000E-02
	 7.50000000E-03	 5.00000000E-03	 3.00000000E-02
	 7.50000000E-03	 1.00000000E-02	 3.00000000E-02
	 5.00000000E-03	 5.00000000E-03	 2.50000000E-02
	 5.00000000E-03	 7.50000000E-03	 3.00000000E-02
	 5.00000000E-03	 1.00000000E-02	 2.50000000E-02
	 1.00000000E-02	 5.00000000E-03	 4.00000000E-02
	 1.00000000E-02	 1.00000000E-02	 4.00000000E-02
	 5.00000000E-03	 5.00000000E-03	 4.00000000E-02
	 5.00000000E-03	 1.00000000E-02	 4.00000000E-02
	 1.00000000E-02	 5.00000000E-03	 3.50000000E-02
	 1.00000000E-02	 7.50000000E-03	 4.00000000E-02
	 1.00000000E-02	 1.00000000E-02	 3.50000000E-02
	 7.50000000E-03	 5.00000000E-03	 4.00000000E-02
	 7.50000000E-03	 1.00000000E-02	 4.00000000E-02
	 5.00000000E-03	 5.00000000E-03	 3.50000000E-02
	 5.00000000E-03	 7.50000000E-03	 4.00000000E-02
	 5.00000000E-03	 1.00000000E-02	 3.50000000E-02
	 1.00000000E-02	 5.00000000E-03	 5.00000000E-02
	 1.00000000E-02	 1.00000000E-02	 5.00000000E-02
	 5.00000000E-03	 5.00000000E-03	 5.00000000E-02
	 5.00000000E-03	 1.00000000E-02	 5.00000000E-02
	 1.00000000E-02	 5.00000000E-03	 4.50000000E-02
	 1.00000000E-02	 7.50000000E-03	 5.00000000E-02
	 1.00000000E-02	 1.00000000E-02	 4.50000000E-02
	 7.50000000E-03	 5.00000000E-03	 5.00000000E-02
	 7.50000000E-03	 1.00000000E-02	 5.00000000E-02
	 5.00000000E-03	 5.00000000E-03	 4.50000000E-02
	 5.00000000E-03	 7.50000000E-03	 5.00000000E-02
	 5.00000000E-03	 1.00000000E-02	 4.50000000E-02
	 1.00000000E-02	 5.00000000E-03	 6.00000000E-02
	 1.00000000E-02	 1.00000000E-02	 6.00000000E-02
	 5.00000000E-03	 5.00000000E-03	 6.00000000E-02
	 5.00000000E-03	 1.00000000E-02	 6.00000000E-02
	 1.00000000E-02	 5.00000000E-03	 5.50000000E-02
	 1.00000000E-02	 7.50000000E-03	 6.00000000E-02
	 1.00000000E-02	 1.00000000E-02	 5.50000000E-02
	 7.50000000E-03	 5.00000000E-03	 6.00000000E-02
	 7.50000000E-03	 1.00000000E-02	 6.00000000E-02
	 5.00000000E-03	 5.00000000E-03	 5.50000000E-02
	 5.00000000E-03	 7.50000000E-03	 6.00000000E-02
	 5.00000000E-03	 1.00000000E-02	 5.50000000E-02
	 1.00000000E-02	 5.00000000E-03	 7.00000000E-02
	 1.00000000E-02	 1.00000000E-02	 7.00000000E-02
	 5.00000000E-03	 5.00000000E-03	 7.00000000E-02
	 5.00000000E-03	 1.00000000E-02	 7.00000000E-02
	 1.00000000E-02	 5.00000000E-03	 6.50000000E-02
	 1.00000000E-02	 7.50000000E-03	 7.00000000E-02
	 1.00000000E-02	 1.00000000E-02	 6.50000000E-02
	 7.50000000E-03	 5.00000000E-03	 7.00000000E-02
	 7.50000000E-03	 1.00000000E-02	 7.00000000E-02
	 5.00000000E-03	 5.00000000E-03	 6.50000000E-02
	 5.00000000E-03	 7.50000000E-03	 7.00000000E-02
	 5.00000000E-03	 1.00000000E-02	 6.50000000E-02
	 1.00000000E-02	 5.00000000E-03	 8.00000000E-02
	 1.00000000E-02	 1.00000000E-02	 8.00000000E-02
	 5.00000000E-03	 5.00000000E-03	 8.00000000E-02
	 5.00000000E-03	 1.00000000E-02	 8.00000000E-02
	 1.00000000E-02	 5.00000000E-03	 7.50000000E-02
	 1.00000000E-02	 7.50000000E-03	 8.00000000E-02
	 1.00000000E-02	 1.00000000E-02	 7.50000000E-02
	 7.50000000E-03	 5.00000000E-03	 8.00000000E-02
	 7.50000000E-03	 1.00000000E-02	 8.00000000E-02
	 5.00000000E-03	 5.00000000E-03	 7.50000000E-02
	 5.00000000E-03	 7.50000000E-03	 8.00000000E-02
	 5.00000000E-03	 1.00000000E-02	 7.50000000E-02
	 1.00000000E-02	 5.00000000E-03	 9.00000000E-02
	 1.00000000E-02	 1.00000000E-02	 9.00000000E-02
	 5.00000000E-03	 5.00000000E-03	 9.00000000E-02
	 5.00000000E-03	 1.00000000E-02	 9.00000000E-02
	 1.00000000E-02	 5.00000000E-03	 8.50000000E-02
	 1.00000000E-02	 7.50000000E-03	 9.00000000E-02
	 1.00000000E-02	 1.00000000E-02	 8.50000000E-02
	 7.50000000E-03	 5.00000000E-03	 9.00000000E-02
	 7.50000000E-03	 1.00000000E-02	 9.00000000E-02
	 5.00000000E-03	 5.00000000E-03	 8.50000000E-02
	 5.00000000E-03	 7.50000000E-03	 9.00000000E-02
	 5.00000000E-03	 1.00000000E-02	 8.50000000E-02
	 1.00000000E-02	 5.00000000E-03	 1.00000000E-01
	 1.00000000E-02	 1.00000000E-02	 1.00000000E-01
	 5.00000000E-03	 5.00000000E-03	 1.00000000E-01
	 5.00000000E-03	 1.00000000E-02	 1.00000000E-01
	 1.00000000E-02	 5.00000000E-03	 9.50000000E-02
	 1.00000000E-02	 7.50000000E-03	 1.00000000E-01
	 1.00000000E-02	 1.00000000E-02	 9.50000000E-02
	 7.50000000E-03	 5.00000000E-03	 1.00000000E-01
	 7.50000000E-03	 1.00000000E-02	 1.00000000E-01
	 5.00000000E-03	 5.00000000E-03	 9.50000000E-02
	 5.00000000E-03	 7.50000000E-03	 1.00000000E-01
	 5.00000000E-03	 1.00000000E-02	 9.50000000E-02
	 0.00000000E+00	 1.00000000E-02	 0.00000000E+00
	 0.00000000E+00	 5.00000000E-03	 0.00000000E+00
	 0.00000000E+00	 5.00000000E-03	 1.00000000E-02
	 0.00000000E+00	 1.00000000E-02	 1.00000000E-02
	 2.50000000E-03	 1.00000000E-02	 0.00000000E+00
	 2.50000000E-03	 5.00000000E-03	 0.00000000E+00
	 2.50000000E-03	 5.00000000E-03	 1.00000000E-02
	 2.50000000E-03	 1.00000000E-02	 1.00000000E-02
	 0.00000000E+00	 7.50000000E-03	 0.00000000E+00
	 0.00000000E+00	 5.00000000E-03	 5.00000000E-03
	 0.00000000E+00	 7.50000000E-03	 1.00000000E-02
	 0.00000000E+00	 1.00000000E-02	 5.00000000E-03
	 0.00000000E+00	 5.00000000E-03	 2.00000000E-02
	 0.00000000E+00	 1.00000000E-02	 2.00000000E-02
	 2.50000000E-03	 5.00000000E-03	 2.00000000E-02
	 2.50000000E-03	 1.00000000E-02	 2.00000000E-02
	 0.00000000E+00	 5.00000000E-03	 1.50000000E-02
	 0.00000000E+00	 7.50000000E-03	 2.00000000E-02
	 0.00000000E+00	 1.00000000E-02	 1.50000000E-02
	 0.00000000E+00	 5.00000000E-03	 3.00000000E-02
	 0.00000000E+00	 1.00000000E-02	 3.00000000E-02
	 2.50000000E-03	 5.00000000E-03	 3.00000000E-02
	 2.50000000E-03	 1.00000000E-02	 3.00000000E-02
	 0.00000000E+00	 5.00000000E-03	 2.50000000E-02
	 0.00000000E+00	 7.50000000E-03	 3.00000000E-02
	 0.00000000E+00	 1.00000000E-02	 2.50000000E-02
	 0.00000000E+00	 5.00000000E-03	 4.00000000E-02
	 0.00000000E+00	 1.00000000E-02	 4.00000000E-02
	 2.50000000E-03	 5.00000000E-03	 4.00000000E-02
	 2.50000000E-03	 1.00000000E-02	 4.00000000E-02
	 0.00000000E+00	 5.00000000E-03	 3.50000000E-02
	 0.00000000E+00	 7.50000000E-03	 4.00000000E-02
	 0.00000000E+00	 1.00000000E-02	 3.50000000E-02
	 0.00000000E+00	 5.00000000E-03	 5.00000000E-02
	 0.00000000E+00	 1.00000000E-02	 5.00000000E-02
	 2.50000000E-03	 5.00000000E-03	 5.00000000E-02
	 2.50000000E-03	 1.00000000E-02	 5.00000000E-02
	 0.00000000E+00	 5.00000000E-03	 4.50000000E-02
	 0.00000000E+00	 7.50000000E-03	 5.00000000E-02
	 0.00000000E+00	 1.00000000E-02	 4.50000000E-02
	 0.00000000E+00	 5.00000000E-03	 6.00000000E-02
	 0.00000000E+00	 1.00000000E-02	 6.00000000E-02
	 2.50000000E-03	 5.00000000E-03	 6.00000000E-02
	 2.50000000E-03	 1.00000000E-02	 6.00000000E-02
	 0.00000000E+00	 5.00000000E-03	 5.50000000E-02
	 0.00000000E+00	 7.50000000E-03	 6.00000000E-02
	 0.00000000E+00	 1.00000000E-02	 5.50000000E-02
	 0.00000000E+00	 5.00000000E-03	 7.00000000E-02
	 0.00000000E+00	 1.00000000E-02	 7.00000000E-02
	 2.50000000E-03	 5.00000000E-03	 7.00000000E-02
	 2.50000000E-03	 1.00000000E-02	 7.00000000E-02
	 0.00000000E+00	 5.00000000E-03	 6.50000000E-02
	 0.00000000E+00	 7.50000000E-03	 7.00000000E-02
	 0.00000000E+00	 1.00000000E-02	 6.50000000E-02
	 0.00000000E+00	 5.00000000E-03	 8.00000000E-02
	 0.00000000E+00	 1.00000000E-02	 8.00000000E-02
	 2.50000000E-03	 5.00000000E-03	 8.00000000E-02
	 2.50000000E-03	 1.00000000E-02	 8.00000000E-02
	 0.00000000E+00	 5.00000000E-03	 7.50000000E-02
	 0.00000000E+00	 7.50000000E-03	 8.00000000E-02
	 0.00000000E+00	 1.00000000E-02	 7.50000000E-02
	 0.00000000E+00	 5.00000000E-03	 9.00000000E-02
	 0.00000000E+00	 1.00000000E-02	 9.00000000E-02
	 2.50000000E-03	 5.00000000E-03	 9.00000000E-02
	 2.50000000E-03	 1.00000000E-02	 9.00000000E-02
	 0.00000000E+00	 5.00000000E-03	 8.50000000E-02
	 0.00000000E+00	 7.50000000E-03	 9.00000000E-02
	 0.00000000E+00	 1.00000000E-02	 8.50000000E-02
	 0.00000000E+00	 5.00000000E-03	 1.00000000E-01
	 0.00000000E+00	 1.00000000E-02	 1.00000000E-01
	 2.50000000E-03	 5.00000000E-03	 1.00000000E-01
	 2.50000000E-03	 1.00000000E-02	 1.00000000E-01
	 0.00000000E+00	 5.00000000E-03	 9.50000000E-02
	 0.00000000E+00	 7.50000000E-03	 1.00000000E-01
	 0.00000000E+00	 1.00000000E-02	 9.50000000E-02
	 1.00000000E-02	 0.00000000E+00	 0.00000000E+00
	 1.00000000E-02	 0.00000000E+00	 1.00000000E-02
	 5.00000000E-03	 0.00000000E+00	 0.00000000E+00
	 5.00000000E-03	 0.00000000E+00	 1.00000000E-02
	 1.00000000E-02	 2.50000000E-03	 0.00000000E+00
	 1.00000000E-02	 0.00000000E+00	 5.00000000E-03
	 1.00000000E-02	 2.50000000E-03	 1.00000000E-02
	 7.50000000E-03	 0.00000000E+00	 0.00000000E+00
	 7.50000000E-03	 0.00000000E+00	 1.00000000E-02
	 5.00000000E-03	 2.50000000E-03	 0.00000000E+00
	 5.00000000E-03	 0.00000000E+00	 5.00000000E-03
	 5.00000000E-03	 2.50000000E-03	 1.00000000E-02
	 1.00000000E-02	 0.00000000E+00	 2.00000000E-02
	 5.00000000E-03	 0.00000000E+00	 2.00000000E-02
	 1.00000000E-02	 0.00000000E+00	 1.50000000E-02
	 1.00000000E-02	 2.50000000E-03	 2.00000000E-02
	 7.50000000E-03	 0.00000000E+00	 2.00000000E-02
	 5.00000000E-03	 0.00000000E+00	 1.50000000E-02
	 5.00000000E-03	 2.50000000E-03	 2.00000000E-02
	 1.00000000E-02	 0.00000000E+00	 3.00000000E-02
	 5.00000000E-03	 0.00000000E+00	 3.00000000E-02
	 1.00000000E-02	 0.00000000E+00	 2.50000000E-02
	 1.00000000E-02	 2.50000000E-03	 3.00000000E-02
	 7.50000000E-03	 0.00000000E+00	 3.00000000E-02
	 5.00000000E-03	 0.00000000E+00	 2.50000000E-02
	 5.00000000E-03	 2.50000000E-03	 3.00000000E-02
	 1.00000000E-02	 0.00000000E+00	 4.00000000E-02
	 5.00000000E-03	 0.00000000E+00	 4.00000000E-02
	 1.00000000E-02	 0.00000000E+00	 3.50000000E-02
	 1.00000000E-02	 2.50000000E-03	 4.00000000E-02
	 7.50000000E-03	 0.00000000E+00	 4.00000000E-02
	 5.00000000E-03	 0.00000000E+00	 3.50000000E-02
	 5.00000000E-03	 2.50000000E-03	 4.00000000E-02
	 1.00000000E-02	 0.00000000E+00	 5.00000000E-02
	 5.00000000E-03	 0.00000000E+00	 5.00000000E-02
	 1.00000000E-02	 0.00000000E+00	 4.50000000E-02
	 1.00000000E-02	 2.50000000E-03	 5.00000000E-02
	 7.50000000E-03	 0.00000000E+00	 5.00000000E-02
	 5.00000000E-03	 0.00000000E+00	 4.50000000E-02
	 5.00000000E-03	 2.50000000E-03	 5.00000000E-02
	 1.00000000E-02	 0.00000000E+00	 6.00000000E-02
	 5.00000000E-03	 0.00000000E+00	 6.00000000E-02
	 1.00000000E-02	 0.00000000E+00	 5.50000000E-02
	 1.00000000E-02	 2.50000000E-03	 6.00000000E-02
	 7.50000000E-03	 0.00000000E+00	 6.00000000E-02
	 5.00000000E-03	 0.00000000E+00	 5.50000000E-02
	 5.00000000E-03	 2.50000000E-03	 6.00000000E-02
	 1.00000000E-02	 0.00000000E+00	 7.00000000E-02
	 5.00000000E-03	 0.00000000E+00	 7.00000000E-02
	 1.00000000E-02	 0.00000000E+00	 6.50000000E-02
	 1.00000000E-02	 2.50000000E-03	 7.00000000E-02
	 7.50000000E-03	 0.00000000E+00	 7.00000000E-02
	 5.00000000E-03	 0.00000000E+00	 6.50000000E-02
	 5.00000000E-03	 2.50000000E-03	 7.00000000E-02
	 1.00000000E-02	 0.00000000E+00	 8.00000000E-02
	 5.00000000E-03	 0.00000000E+00	 8.00000000E-02
	 1.00000000E-02	 0.00000000E+00	 7.50000000E-02
	 1.00000000E-02	 2.50000000E-03	 8.00000000E-02
	 7.50000000E-03	 0.00000000E+00	 8.00000000E-02
	 5.00000000E-03	 0.00000000E+00	 7.50000000E-02
	 5.00000000E-03	 2.50000000E-03	 8.00000000E-02
	 1.00000000E-02	 0.00000000E+00	 9.00000000E-02
	 5.00000000E-03	 0.00000000E+00	 9.00000000E-02
	 1.00000000E-02	 0.00000000E+00	 8.50000000E-02
	 1.00000000E-02	 2.50000000E-03	 9.00000000E-02
	 7.50000000E-03	 0.00000000E+00	 9.00000000E-02
	 5.00000000E-03	 0.00000000E+00	 8.50000000E-02
	 5.00000000E-03	 2.50000000E-03	 9.00000000E-02
	 1.00000000E-02	 0.00000000E+00	 1.00000000E-01
	 5.00000000E-03	 0.00000000E+00	 1.00000000E-01
	 1.00000000E-02	 0.00000000E+00	 9.50000000E-02
	 1.00000000E-02	 2.50000000E-03	 1.00000000E-01
	 7.50000000E-03	 0.00000000E+00	 1.00000000E-01
	 5.00000000E-03	 0.00000000E+00	 9.50000000E-02
	 5.00000000E-03	 2.50000000E-03	 1.00000000E-01
	 0.00000000E+00	 0.00000000E+00	 0.00000000E+00
	 0.00000000E+00	 0.00000000E+00	 1.00000000E-02
	 2.50000000E-03	 0.00000000E+00	 0.00000000E+00
	 2.50000000E-03	 0.00000000E+00	 1.00000000E-02
	 0.00000000E+00	 2.50000000E-03	 0.00000000E+00
	 0.00000000E+00	 0.00000000E+00	 5.00000000E-03
	 0.00000000E+00	 2.50000000E-03	 1.00000000E-02
	 0.00000000E+00	 0.00000000E+00	 2.00000000E-02
	 2.50000000E-03	 0.00000000E+00	 2.00000000E-02
	 0.00000000E+00	 0.00000000E+00	 1.50000000E-02
	 0.00000000E+00	 2.50000000E-03	 2.00000000E-02
	 0.00000000E+00	 0.00000000E+00	 3.00000000E-02
	 2.50000000E-03	 0.00000000E+00	 3.00000000E-02
	 0.00000000E+00	 0.00000000E+00	 2.50000000E-02
	 0.00000000E+00	 2.50000000E-03	 3.00000000E-02
	 0.00000000E+00	 0.00000000E+00	 4.00000000E-02
	 2.50000000E-03	 0.00000000E+00	 4.00000000E-02
	 0.00000000E+00	 0.00000000E+00	 3.50000000E-02
	 0.00000000E+00	 2.50000000E-03	 4.00000000E-02
	 0.00000000E+00	 0.00000000E+00	 5.00000000E-02
	 2.50000000E-03	 0.00000000E+00	 5.00000000E-02
	 0.00000000E+00	 0.00000000E+00	 4.50000000E-02
	 0.00000000E+00	 2.50000000E-03	 5.00000000E-02
	 0.00000000E+00	 0.00000000E+00	 6.00000000E-02
	 2.50000000E-03	 0.00000000E+00	 6.00000000E-02
	 0.00000000E+00	 0.00000000E+00	 5.50000000E-02
	 0.00000000E+00	 2.50000000E-03	 6.00000000E-02
	 0.00000000E+00	 0.00000000E+00	 7.00000000E-02
	 2.50000000E-03	 0.00000000E+00	 7.00000000E-02
	 0.00000000E+00	 0.00000000E+00	 6.50000000E-02
	 0.00000000E+00	 2.50000000E-03	 7.00000000E-02
	 0.00000000E+00	 0.00000000E+00	 8.00000000E-02
	 2.50000000E-03	 0.00000000E+00	 8.00000000E-02
	 0.00000000E+00	 0.00000000E+00	 7.50000000E-02
	 0.00000000E+00	 2.50000000E-03	 8.00000000E-02
	 0.00000000E+00	 0.00000000E+00	 9.00000000E-02
	 2.50000000E-03	 0.00000000E+00	 9.00000000E-02
	 0.00000000E+00	 0.00000000E+00	 8.50000000E-02
	 0.00000000E+00	 2.50000000E-03	 9.00000000E-02
	 0.00000000E+00	 0.00000000E+00	 1.00000000E-01
	 2.50000000E-03	 0.00000000E+00	 1.00000000E-01
	 0.00000000E+00	 0.00000000E+00	 9.50000000E-02
	 0.00000000E+00	 2.50000000E-03	 1.00000000E-01

CELLS 40 840
	20 0 1 2 3 4 5 6 7 8 9 10 11 16 17 18 19 12 13 14 15 
	20 3 2 20 21 7 6 22 23 10 24 25 26 18 29 30 31 15 14 27 28 
	20 21 20 32 33 23 22 34 35 25 36 37 38 30 41 42 43 28 27 39 40 
	20 33 32 44 45 35 34 46 47 37 48 49 50 42 53 54 55 40 39 51 52 
	20 45 44 56 57 47 46 58 59 49 60 61 62 54 65 66 67 52 51 63 64 
	20 57 56 68 69 59 58 70 71 61 72 73 74 66 77 78 79 64 63 75 76 
	20 69 68 80 81 71 70 82 83 73 84 85 86 78 89 90 91 76 75 87 88 
	20 81 80 92 93 83 82 94 95 85 96 97 98 90 101 102 103 88 87 99 100 
	20 93 92 104 105 95 94 106 107 97 108 109 110 102 113 114 115 100 99 111 112 
	20 105 104 116 117 107 106 118 119 109 120 121 122 114 125 126 127 112 111 123 124 
	20 4 5 6 7 128 129 130 131 16 17 18 19 136 137 138 139 132 133 134 135 
	20 7 6 22 23 131 130 140 141 18 29 30 31 138 144 145 146 135 134 142 143 
	20 23 22 34 35 141 140 147 148 30 41 42 43 145 151 152 153 143 142 149 150 
	20 35 34 46 47 148 147 154 155 42 53 54 55 152 158 159 160 150 149 156 157 
	20 47 46 58 59 155 154 161 162 54 65 66 67 159 165 166 167 157 156 163 164 
	20 59 58 70 71 162 161 168 169 66 77 78 79 166 172 173 174 164 163 170 171 
	20 71 70 82 83 169 168 175 176 78 89 90 91 173 179 180 181 171 170 177 178 
	20 83 82 94 95 176 175 182 183 90 101 102 103 180 186 187 188 178 177 184 185 
	20 95 94 106 107 183 182 189 190 102 113 114 115 187 193 194 195 185 184 191 192 
	20 107 106 118 119 190 189 196 197 114 125 126 127 194 200 201 202 192 191 198 199 
	20 1 203 204 2 5 205 206 6 207 208 209 9 212 213 214 17 13 210 211 14 
	20 2 204 215 20 6 206 216 22 209 217 218 24 214 220 221 29 14 211 219 27 
	20 20 215 222 32 22 216 223 34 218 224 225 36 221 227 228 41 27 219 226 39 
	20 32 222 229 44 34 223 230 46 225 231 232 48 228 234 235 53 39 226 233 51 
	20 44 229 236 56 46 230 237 58 232 238 239 60 235 241 242 65 51 233 240 63 
	20 56 236 243 68 58 237 244 70 239 245 246 72 242 248 249 77 63 240 247 75 
	20 68 243 250 80 70 244 251 82 246 252 253 84 249 255 256 89 75 247 254 87 
	20 80 250 257 92 82 251 258 94 253 259 260 96 256 262 263 101 87 254 261 99 
	20 92 257 264 104 94 258 265 106 260 266 267 108 263 269 270 113 99 261 268 111 
	20 104 264 271 116 106 265 272 118 267 273 274 120 270 276 277 125 111 268 275 123 
	20 5 205 206 6 129 278 279 130 212 213 214 17 282 283 284 137 133 280 281 134 
	20 6 206 216 22 130 279 285 140 214 220 221 29 284 287 288 144 134 281 286 142 
	20 22 216 223 34 140 285 289 147 221 227 228 41 288 291 292 151 142 286 290 149 
	20 34 223 230 46 147 289 293 154 228 234 235 53 292 295 296 158 149 290 294 156 
	20 46 230 237 58 154 293 297 161 235 241 242 65 296 299 300 165 156 294 298 163 
	20 58 237 244 70 161 297 301 168 242 248 249 77 300 303 304 172 163 298 302 170 
	20 70 244 251 82 168 301 305 175 249 255 256 89 304 307 308 179 170 302 306 177 
	20 82 251 258 94 175 305 309 182 256 262 263 101 308 311 312 186 177 306 310 184 
	20 94 258 265 106 182 309 313 189 263 269 270 113 312 315 316 193 184 310 314 191 
	20 106 265 272 118 189 313 317 196 270 276 277 125 316 319 320 200 191 314 318 198 

CELL_TYPES 40
	25
	25
	25
	25
	25
	25
	25
	25
	25
	25
	25
	25
	25
	25
	25
	25
	25
	25
	25
	25
	25
	25
	25
	25
	25
	25
	25
	25
	25
	25
	25
	25
	25
	25
	25
	25
	25
	25
	25
	25

POINT_DATA 321
FIELD U 1
	U 3 321 double
		 0.00000000E+00	 0.00000000E+00	 0.00000000E+00
		 0.00000000E+00	 0.00000000E+00	 0.00000000E+00
		 1.80065000E+00	 4.57120000E-01	-1.04678000E+00
		 1.78267000E+00	 5.09723000E-01	-1.28045000E+00
		 0.00000000E+00	 0.00000000E+00	 0.00000000E+00
		 0.00000000E+00	 0.00000000E+00	 0.00000000E+00
		 1.78407000E+00	 4.63607000E-01	 0.00000000E+00
		 1.75911000E+00	 4.67914000E-01	-2.72014000E-01
		 0.00000000E+00	 0.00000000E+00	 0.00000000E+00
		 7.09948000E-01	 1.46380000E-01	-6.24022000E-01
		 1.80640000E+00	 4.78334000E-01	-1.15830000E+00
		 6.82246000E-01	 3.23418000E-01	-7.92154000E-01
		 0.00000000E+00	 0.00000000E+00	 0.00000000E+00
		 0.00000000E+00	 0.00000000E+00	 0.00000000E+00
		 1.77515000E+00	 4.64054000E-01	-4.69690000E-01
		 1.75464000E+00	 4.91973000E-01	-7.17763000E-01
		 0.00000000E+00	 0.00000000E+00	 0.00000000E+00
		 6.26492000E-01	 1.62799000E-01	 0.00000000E+00
		 1.78579000E+00	 4.61288000E-01	-1.22053000E-01
		 5.63306000E-01	 1.84486000E-01	-1.62157000E-01
		 4.21863000E+00	 1.12386000E+00	-8.19029000E-01
		 4.24434000E+00	 1.00062000E+00	-1.01543000E+00
		 4.27289000E+00	 1.11035000E+00	 0.00000000E+00
		 4.32489000E+00	 1.09625000E+00	-2.12832000E-01
		 3.09428000E+00	 8.10263000E-01	-1.06152000E+00
		 4.21484000E+00	 1.06700000E+00	-9.16069000E-01
		 3.10270000E+00	 7.74567000E-01	-1.31368000E+00
		 4.26367000E+00	 1.11301000E+00	-3.84421000E-01
		 4.30187000E+00	 1.04567000E+00	-5.84706000E-01
		 3.10323000E+00	 8.06402000E-01	 0.00000000E+00
		 4.28312000E+00	 1.10795000E+00	-9.98952000E-02
		 3.11809000E+00	 8.04075000E-01	-2.75845000E-01
		 5.05708000E+00	 1.35838000E+00	 2.03784000E-01
		 5.09853000E+00	 1.16082000E+00	 2.57731000E-01
		 5.14329000E+00	 1.33653000E+00	 0.00000000E+00
		 5.22736000E+00	 1.31413000E+00	 5.29552000E-02
		 4.93057000E+00	 1.31925000E+00	-3.59433000E-01
		 5.05533000E+00	 1.26555000E+00	 2.30799000E-01
		 4.96826000E+00	 1.14793000E+00	-4.43329000E-01
		 5.12301000E+00	 1.34177000E+00	 1.03305000E-01
		 5.18548000E+00	 1.23259000E+00	 1.56880000E-01
		 5.00300000E+00	 1.30007000E+00	 0.00000000E+00
		 5.16348000E+00	 1.33126000E+00	 2.68447000E-02
		 5.07682000E+00	 1.28125000E+00	-9.34017000E-02
		 3.41706000E+00	 9.18758000E-01	 1.26455000E+00
		 3.44611000E+00	 7.81290000E-01	 1.57932000E+00
		 3.47710000E+00	 9.03554000E-01	 0.00000000E+00
		 3.53561000E+00	 8.87952000E-01	 3.28605000E-01
		 4.53631000E+00	 1.21836000E+00	 7.76063000E-01
		 3.41542000E+00	 8.54371000E-01	 1.42105000E+00
		 4.57503000E+00	 1.04018000E+00	 9.70180000E-01
		 3.46369000E+00	 9.07091000E-01	 6.10125000E-01
		 3.50719000E+00	 8.31251000E-01	 9.28408000E-01
		 4.61136000E+00	 1.19830000E+00	 0.00000000E+00
		 3.49071000E+00	 9.00069000E-01	 1.58546000E-01
		 4.68853000E+00	 1.17880000E+00	 2.01667000E-01
		 5.71098000E-02	 1.15016000E-02	 1.65718000E+00
		 5.40133000E-02	 2.59353000E-02	 2.06799000E+00
		 5.06936000E-02	 1.31732000E-02	 0.00000000E+00
		 4.42608000E-02	 1.48405000E-02	 4.30633000E-01
		 1.84908000E+00	 4.95072000E-01	 1.56704000E+00
		 5.71927000E-02	 1.82968000E-02	 1.86120000E+00
		 1.86345000E+00	 4.29254000E-01	 1.95521000E+00
		 5.22641000E-02	 1.27602000E-02	 7.96884000E-01
		 4.75022000E-02	 2.08080000E-02	 1.21275000E+00
		 1.87674000E+00	 4.87686000E-01	 0.00000000E+00
		 4.91044000E-02	 1.35813000E-02	 2.07077000E-01
		 1.90516000E+00	 4.80500000E-01	 4.07210000E-01
		-3.13576000E+00	-8.52653000E-01	 1.09263000E+00
		-3.17124000E+00	-6.85103000E-01	 1.36220000E+00
		-3.20918000E+00	-8.33933000E-01	 0.00000000E+00
		-3.28122000E+00	-8.14856000E-01	 2.83929000E-01
		-1.69319000E+00	-4.61332000E-01	 1.48189000E+00
		-3.13421000E+00	-7.73996000E-01	 1.22641000E+00
		-1.71375000E+00	-3.66228000E-01	 1.84775000E+00
		-3.19211000E+00	-8.38400000E-01	 5.23452000E-01
		-3.24562000E+00	-7.45690000E-01	 7.96703000E-01
		-1.73385000E+00	-4.50557000E-01	 0.00000000E+00
		-3.22637000E+00	-8.29497000E-01	 1.36024000E-01
		-1.77532000E+00	-4.39990000E-01	 3.85082000E-01
		-4.26474000E+00	-1.16147000E+00	-1.63146000E-01
		-4.31469000E+00	-9.25608000E-01	-2.06830000E-01
		-4.36811000E+00	-1.13509000E+00	 0.00000000E+00
		-4.46962000E+00	-1.10823000E+00	-4.23949000E-02
		-4.04456000E+00	-1.09839000E+00	 5.12453000E-01
		-4.26258000E+00	-1.05073000E+00	-1.85117000E-01
		-4.09033000E+00	-8.86929000E-01	 6.37049000E-01
		-4.34403000E+00	-1.14139000E+00	-8.34607000E-02
		-4.41944000E+00	-1.01086000E+00	-1.26770000E-01
		-4.13477000E+00	-1.07446000E+00	 0.00000000E+00
		-4.39236000E+00	-1.12883000E+00	-2.16880000E-02
		-4.22686000E+00	-1.05101000E+00	 1.33165000E-01
		-2.49313000E+00	-6.90700000E-01	-1.47673000E+00
		-2.53318000E+00	-5.02049000E-01	-1.84978000E+00
		-2.57611000E+00	-6.69426000E-01	 0.00000000E+00
		-2.65798000E+00	-6.47861000E-01	-3.83742000E-01
		-3.73546000E+00	-1.02043000E+00	-8.52950000E-01
		-2.49164000E+00	-6.02036000E-01	-1.66265000E+00
		-3.78330000E+00	-7.99025000E-01	-1.06870000E+00
		-2.55644000E+00	-6.74570000E-01	-7.20632000E-01
		-2.61718000E+00	-5.69975000E-01	-1.09624000E+00
		-3.83024000E+00	-9.95322000E-01	 0.00000000E+00
		-2.59591000E+00	-6.64312000E-01	-1.87263000E-01
		-3.92686000E+00	-9.70691000E-01	-2.21647000E-01
		 1.56840000E+00	 3.90228000E-01	-2.26100000E+00
		 1.55258000E+00	 4.63321000E-01	-2.83555000E+00
		 1.53563000E+00	 3.99048000E-01	 0.00000000E+00
		 1.50169000E+00	 4.07563000E-01	-5.87541000E-01
		-6.63517000E-01	-2.02774000E-01	-1.94973000E+00
		 1.56821000E+00	 4.24885000E-01	-2.54747000E+00
		-6.91844000E-01	-6.99088000E-02	-2.44178000E+00
		 1.54460000E+00	 3.96709000E-01	-1.10966000E+00
		 1.51955000E+00	 4.37932000E-01	-1.68749000E+00
		-7.21719000E-01	-1.87545000E-01	 0.00000000E+00
		 1.52663000E+00	 4.01379000E-01	-2.88355000E-01
		-7.80325000E-01	-1.72421000E-01	-5.06654000E-01
		 6.44163000E+00	 1.67169000E+00	-2.41524000E+00
		 6.43865000E+00	 1.67087000E+00	-3.03353000E+00
		 6.43772000E+00	 1.67290000E+00	 0.00000000E+00
		 6.43306000E+00	 1.67391000E+00	-6.27621000E-01
		 3.99538000E+00	 1.03105000E+00	-2.38878000E+00
		 6.43915000E+00	 1.67225000E+00	-2.72509000E+00
		 3.98974000E+00	 1.05885000E+00	-2.99958000E+00
		 6.44130000E+00	 1.67211000E+00	-1.20411000E+00
		 6.43741000E+00	 1.67240000E+00	-1.82604000E+00
		 3.98115000E+00	 1.03454000E+00	 0.00000000E+00
		 6.43471000E+00	 1.67383000E+00	-3.12899000E-01
		 3.96775000E+00	 1.03824000E+00	-6.20744000E-01
		 0.00000000E+00	 0.00000000E+00	 0.00000000E+00
		 0.00000000E+00	 0.00000000E+00	 0.00000000E+00
		 1.80065000E+00	 4.57120000E-01	 1.04678000E+00
		 1.75677000E+00	 4.10031000E-01	 7.52236000E-01
		 0.00000000E+00	 0.00000000E+00	 0.00000000E+00
		 0.00000000E+00	 0.00000000E+00	 0.00000000E+00
		 1.77515000E+00	 4.64054000E-01	 4.69690000E-01
		 1.74217000E+00	 4.43578000E-01	 1.76135000E-01
		 0.00000000E+00	 0.00000000E+00	 0.00000000E+00
		 7.09948000E-01	 1.46380000E-01	 6.24022000E-01
		 1.79383000E+00	 4.30341000E-01	 9.26017000E-01
		 6.00800000E-01	 9.99237000E-03	 4.65374000E-01
		 4.21863000E+00	 1.12386000E+00	 8.19029000E-01
		 4.30136000E+00	 1.22006000E+00	 5.96547000E-01
		 4.26367000E+00	 1.11301000E+00	 3.84421000E-01
		 4.33023000E+00	 1.15204000E+00	 1.58817000E-01
		 3.09428000E+00	 8.10263000E-01	 1.06152000E+00
		 4.24248000E+00	 1.17613000E+00	 7.22858000E-01
		 3.12037000E+00	 8.42550000E-01	 7.71761000E-01
		 5.05708000E+00	 1.35838000E+00	-2.03784000E-01
		 5.18998000E+00	 1.51274000E+00	-1.51412000E-01
		 5.12301000E+00	 1.34177000E+00	-1.03305000E-01
		 5.23115000E+00	 1.40650000E+00	-5.09648000E-02
		 4.93057000E+00	 1.31925000E+00	 3.59433000E-01
		 5.10052000E+00	 1.44130000E+00	-1.76789000E-01
		 5.04803000E+00	 1.45489000E+00	 2.60447000E-01
		 3.41706000E+00	 9.18758000E-01	-1.26455000E+00
		 3.50977000E+00	 1.02626000E+00	-9.27817000E-01
		 3.46369000E+00	 9.07091000E-01	-6.10125000E-01
		 3.53896000E+00	 9.51955000E-01	-2.70847000E-01
		 4.53631000E+00	 1.21836000E+00	-7.76063000E-01
		 3.44679000E+00	 9.76632000E-01	-1.10941000E+00
		 4.65790000E+00	 1.35908000E+00	-5.69961000E-01
		 5.71098000E-02	 1.15016000E-02	-1.65718000E+00
		 4.73812000E-02	 4.12978000E-04	-1.21490000E+00
		 5.22641000E-02	 1.27602000E-02	-7.96884000E-01
		 4.41843000E-02	 8.05492000E-03	-3.51043000E-01
		 1.84908000E+00	 4.95072000E-01	-1.56704000E+00
		 5.38787000E-02	 5.52870000E-03	-1.45484000E+00
		 1.89410000E+00	 5.47178000E-01	-1.14864000E+00
		-3.13576000E+00	-8.52653000E-01	-1.09263000E+00
		-3.24869000E+00	-9.83172000E-01	-8.00264000E-01
		-3.19211000E+00	-8.38400000E-01	-5.23452000E-01
		-3.28431000E+00	-8.93175000E-01	-2.28549000E-01
		-1.69319000E+00	-4.61332000E-01	-1.48189000E+00
		-3.17254000E+00	-9.22863000E-01	-9.59987000E-01
		-1.75784000E+00	-5.35897000E-01	-1.08552000E+00
		-4.26474000E+00	-1.16147000E+00	 1.63146000E-01
		-4.42371000E+00	-1.34514000E+00	 1.21509000E-01
		-4.34403000E+00	-1.14139000E+00	 8.34607000E-02
		-4.47389000E+00	-1.21850000E+00	 4.19549000E-02
		-4.04456000E+00	-1.09839000E+00	-5.12453000E-01
		-4.31654000E+00	-1.26027000E+00	 1.41272000E-01
		-4.18841000E+00	-1.26437000E+00	-3.74253000E-01
		-2.49313000E+00	-6.90700000E-01	 1.47673000E+00
		-2.62025000E+00	-8.37113000E-01	 1.08671000E+00
		-2.55644000E+00	-6.74570000E-01	 7.20632000E-01
		-2.66069000E+00	-7.36200000E-01	 3.28332000E-01
		-3.73546000E+00	-1.02043000E+00	 8.52950000E-01
		-2.53484000E+00	-7.69464000E-01	 1.29246000E+00
		-3.88591000E+00	-1.19389000E+00	 6.27839000E-01
		 1.56840000E+00	 3.90228000E-01	 2.26100000E+00
		 1.51921000E+00	 3.34909000E-01	 1.66583000E+00
		 1.54460000E+00	 3.96709000E-01	 1.10966000E+00
		 1.50282000E+00	 3.72687000E-01	 5.12050000E-01
		-6.63517000E-01	-2.02774000E-01	 1.94973000E+00
		 1.55125000E+00	 3.60505000E-01	 1.97590000E+00
		-7.53082000E-01	-3.05568000E-01	 1.43449000E+00
		 6.44163000E+00	 1.67169000E+00	 2.41524000E+00
		 6.43991000E+00	 1.67573000E+00	 1.78214000E+00
		 6.44130000E+00	 1.67211000E+00	 1.20411000E+00
		 6.43772000E+00	 1.67427000E+00	 5.71674000E-01
		 3.99538000E+00	 1.03105000E+00	 2.38878000E+00
		 6.43964000E+00	 1.67347000E+00	 2.10203000E+00
		 3.97743000E+00	 1.01148000E+00	 1.76219000E+00
		 0.00000000E+00	 0.00000000E+00	 0.00000000E+00
		 1.75677000E+00	 4.10031000E-01	-7.52236000E-01
		 0.00000000E+00	 0.00000000E+00	 0.00000000E+00
		 1.75911000E+00	 4.67914000E-01	 2.72014000E-01
		 0.00000000E+00	 0.00000000E+00	 0.00000000E+00
		 6.00800000E-01	 9.99237000E-03	-4.65374000E-01
		 1.79383000E+00	 4.30341000E-01	-9.26017000E-01
		 0.00000000E+00	 0.00000000E+00	 0.00000000E+00
		 1.74217000E+00	 4.43578000E-01	-1.76135000E-01
		 0.00000000E+00	 0.00000000E+00	 0.00000000E+00
		 5.63306000E-01	 1.84486000E-01	 1.62157000E-01
		 1.78579000E+00	 4.61288000E-01	 1.22053000E-01
		 4.30136000E+00	 1.22006000E+00	-5.96547000E-01
		 4.32489000E+00	 1.09625000E+00	 2.12832000E-01
		 3.12037000E+00	 8.42550000E-01	-7.71761000E-01