# vtk DataFile Version 3.0

ASCII
DATASET UNSTRUCTURED_GRID

POINTS 321 double
	 1.00000000E-02	 1.00000000E-02	 0.00000000E+00
	 1.00000000E-02	 5.00000000E-03	 0.00000000E+00
	 1.00000000E-02	 5.00000000E-03	 1.00000000E-02
	 1.00000000E-02	 1.00000000E-02	 1.00000000E-02
	 5.00000000E-03	 1.00000000E-02	 0.00000000E+00
	 5.00000000E-03	 5.00000000E-03	 0.00000000E+00
	 5.00000000E-03	 5.00000000E-03	 1.00000000E-02
	 5.00000000E-03	 1.00000000E-02	 1.00000000E-02
	 1.00000000E-02	 7.50000000E-03	 0.00000000E+00
	 1.00000000E-02	 5.00000000E-03	 5.00000000E-03
	 1.00000000E-02	 7.50000000E-03	 1.00000000E-02
	 1.00000000E-02	 1.00000000E-02	 5.00000000E-03
	 7.50000000E-03	 1.00000000E-02	 0.00000000E+00
	 7.50000000E-03	 5.00000000E-03	 0.00000000E+00
	 7.50000000E-03	 5.00000000E-03	 1.00000000E-02
	 7.50000000E-03	 1.00000000E-02	 1.00000000E-02
	 5.00000000E-03	 7.50000000E-03	 0.00000000E+00
	 5.00000000E-03	 5.00000000E-03	 5.00000000E-03
	 5.00000000E-03	 7.50000000E-03	 1.00000000E-02
	 5.00000000E-03	 1.00000000E-02	 5.00000000E-03
	 1.00000000E-02	 5.00000000E-03	 2.00000000E-02
	 1.00000000E-02	 1.00000000E-02	 2.00000000E-02
	 5.00000000E-03	 5.00000000E-03	 2.00000000E-02
	 5.00000000E-03	 1.00000000E-02	 2.00000000E-02
	 1.00000000E-02	 5.00000000E-03	 1.50000000E-02
	 1.00000000E-02	 7.50000000E-03	 2.00000000E-02
	 1.00000000E-02	 1.00000000E-02	 1.50000000E-02
	 7.50000000E-03	 5.00000000E-03	 2.00000000E-02
	 7.50000000E-03	 1.00000000E-02	 2.00000000E-02
	 5.00000000E-03	 5.00000000E-03	 1.50000000E-02
	 5.00000000E-03	 7.50000000E-03	 2.00000000E-02
	 5.00000000E-03	 1.00000000E-02	 1.50000000E-02
	 1.00000000E-02	 5.00000000E-03	 3.00000000E-02
	 1.00000000E-02	 1.00000000E-02	 3.00000000E-02
	 5.00000000E-03	 5.00000000E-03	 3.00000000E-02
	 5.00000000E-03	 1.00000000E-02	 3.00000000E-02
	 1.00000000E-02	 5.00000000E-03	 2.50000000E-02
	 1.00000000E-02	 7.50000000E-03	 3.00000000E-02
	 1.00000000E-02	 1.00000000E-02	 2.50000000E-02
	 7.50000000E-03	 5.00000000E-03	 3.00000000E-02
	 7.50000000E-03	 1.00000000E-02	 3.00000000E-02
	 5.00000000E-03	 5.00000000E-03	 2.50000000E-02
	 5.00000000E-03	 7.50000000E-03	 3.00000000E-02
	 5.00000000E-03	 1.00000000E-02	 2.50000000E-02
	 1.00000000E-02	 5.00000000E-03	 4.00000000E-02
	 1.00000000E-02	 1.00000000E-02	 4.00000000E-02
	 5.00000000E-03	 5.00000000E-03	 4.00000000E-02
	 5.00000000E-03	 1.00000000E-02	 4.00000000E-02
	 1.00000000E-02	 5.00000000E-03	 3.50000000E-02
	 1.00000000E-02	 7.50000000E-03	 4.00000000E-02
	 1.00000000E-02	 1.00000000E-02	 3.50000000E-02
	 7.50000000E-03	 5.00000000E-03	 4.00000000E-02
	 7.50000000E-03	 1.00000000E-02	 4.00000000E-02
	 5.00000000E-03	 5.00000000E-03	 3.50000000E-02
	 5.00000000E-03	 7.50000000E-03	 4.00000000E-02
	 5.00000000E-03	 1.00000000E-02	 3.50000000E-02
	 1.00000000E-02	 5.00000000E-03	 5.00000000E-02
	 1.00000000E-02	 1.00000000E-02	 5.00000000E-02
	 5.00000000E-03	 5.00000000E-03	 5.00000000E-02
	 5.00000000E-03	 1.00000000E-02	 5.00000000E-02
	 1.00000000E-02	 5.00000000E-03	 4.50000000E-02
	 1.00000000E-02	 7.50000000E-03	 5.00000000E-02
	 1.00000000E-02	 1.00000000E-02	 4.50000000E-02
	 7.50000000E-03	 5.00000000E-03	 5.00000000E-02
	 7.50000000E-03	 1.00000000E-02	 5.00000000E-02
	 5.00000000E-03	 5.00000000E-03	 4.50000000E-02
	 5.00000000E-03	 7.50000000E-03	 5.00000000E-02
	 5.00000000E-03	 1.00000000E-02	 4.50000000E-02
	 1.00000000E-02	 5.00000000E-03	 6.00000000E-02
	 1.00000000E-02	 1.00000000E-02	 6.00000000E-02
	 5.00000000E-03	 5.00000000E-03	 6.00000000E-02
	 5.00000000E-03	 1.00000000E-02	 6.00000000E-02
	 1.00000000E-02	 5.00000000E-03	 5.50000000E-02
	 1.00000000E-02	 7.50000000E-03	 6.00000000E-02
	 1.00000000E-02	 1.00000000E-02	 5.50000000E-02
	 7.50000000E-03	 5.00000000E-03	 6.00000000E-02
	 7.50000000E-03	 1.00000000E-02	 6.00000000E-02
	 5.00000000E-03	 5.00000000E-03	 5.50000000E-02
	 5.00000000E-03	 7.50000000E-03	 6.00000000E-02
	 5.00000000E-03	 1.00000000E-02	 5.50000000E-02
	 1.00000000E-02	 5.00000000E-03	 7.00000000E-02
	 1.00000000E-02	 1.00000000E-02	 7.00000000E-02
	 5.00000000E-03	 5.00000000E-03	 7.00000000E-02
	 5.00000000E-03	 1.00000000E-02	 7.00000000E-02
	 1.00000000E-02	 5.00000000E-03	 6.50000000E-02
	 1.00000000E-02	 7.50000000E-03	 7.00000000E-02
	 1.00000000E-02	 1.00000000E-02	 6.50000000E-02
	 7.50000000E-03	 5.00000000E-03	 7.00000000E-02
	 7.50000000E-03	 1.00000000E-02	 7.00000000E-02
	 5.00000000E-03	 5.00000000E-03	 6.50000000E-02
	 5.00000000E-03	 7.50000000E-03	 7.00000000E-02
	 5.00000000E-03	 1.00000000E-02	 6.50000000E-02
	 1.00000000E-02	 5.00000000E-03	 8.00000000E-02
	 1.00000000E-02	 1.00000000E-02	 8.00000000E-02
	 5.00000000E-03	 5.00000000E-03	 8.00000000E-02
	 5.00000000E-03	 1.00000000E-02	 8.00000000E-02
	 1.00000000E-02	 5.00000000E-03	 7.50000000E-02
	 1.00000000E-02	 7.50000000E-03	 8.00000000E-02
	 1.00000000E-02	 1.00000000E-02	 7.50000000E-02
	 7.50000000E-03	 5.00000000E-03	 8.00000000E-02
	 7.50000000E-03	 1.00000000E-02	 8.00000000E-02
	 5.00000000E-03	 5.00000000E-03	 7.50000000E-02
	 5.00000000E-03	 7.50000000E-03	 8.00000000E-02
	 5.00000000E-03	 1.00000000E-02	 7.50000000E-02
	 1.00000000E-02	 5.00000000E-03	 9.00000000E-02
	 1.00000000E-02	 1.00000000E-02	 9.00000000E-02
	 5.00000000E-03	 5.00000000E-03	 9.00000000E-02
	 5.00000000E-03	 1.00000000E-02	 9.00000000E-02
	 1.00000000E-02	 5.00000000E-03	 8.50000000E-02
	 1.00000000E-02	 7.50000000E-03	 9.00000000E-02
	 1.00000000E-02	 1.00000000E-02	 8.50000000E-02
	 7.50000000E-03	 5.00000000E-03	 9.00000000E-02
	 7.50000000E-03	 1.00000000E-02	 9.00000000E-02
	 5.00000000E-03	 5.00000000E-03	 8.50000000E-02
	 5.00000000E-03	 7.50000000E-03	 9.00000000E-02
	 5.00000000E-03	 1.00000000E-02	 8.50000000E-02
	 1.00000000E-02	 5.00000000E-03	 1.00000000E-01
	 1.00000000E-02	 1.00000000E-02	 1.00000000E-01
	 5.00000000E-03	 5.00000000E-03	 1.00000000E-01
	 5.00000000E-03	 1.00000000E-02	 1.00000000E-01
	 1.00000000E-02	 5.00000000E-03	 9.50000000E-02
	 1.00000000E-02	 7.50000000E-03	 1.00000000E-01
	 1.00000000E-02	 1.00000000E-02	 9.50000000E-02
	 7.50000000E-03	 5.00000000E-03	 1.00000000E-01
	 7.50000000E-03	 1.00000000E-02	 1.00000000E-01
	 5.00000000E-03	 5.00000000E-03	 9.50000000E-02
	 5.00000000E-03	 7.50000000E-03	 1.00000000E-01
	 5.00000000E-03	 1.00000000E-02	 9.50000000E-02
	 0.00000000E+00	 1.00000000E-02	 0.00000000E+00
	 0.00000000E+00	 5.00000000E-03	 0.00000000E+00
	 0.00000000E+00	 5.00000000E-03	 1.00000000E-02
	 0.00000000E+00	 1.00000000E-02	 1.00000000E-02
	 2.50000000E-03	 1.00000000E-02	 0.00000000E+00
	 2.50000000E-03	 5.00000000E-03	 0.00000000E+00
	 2.50000000E-03	 5.00000000E-03	 1.00000000E-02
	 2.50000000E-03	 1.00000000E-02	 1.00000000E-02
	 0.00000000E+00	 7.50000000E-03	 0.00000000E+00
	 0.00000000E+00	 5.00000000E-03	 5.00000000E-03
	 0.00000000E+00	 7.50000000E-03	 1.00000000E-02
	 0.00000000E+00	 1.00000000E-02	 5.00000000E-03
	 0.00000000E+00	 5.00000000E-03	 2.00000000E-02
	 0.00000000E+00	 1.00000000E-02	 2.00000000E-02
	 2.50000000E-03	 5.00000000E-03	 2.00000000E-02
	 2.50000000E-03	 1.00000000E-02	 2.00000000E-02
	 0.00000000E+00	 5.00000000E-03	 1.50000000E-02
	 0.00000000E+00	 7.50000000E-03	 2.00000000E-02
	 0.00000000E+00	 1.00000000E-02	 1.50000000E-02
	 0.00000000E+00	 5.00000000E-03	 3.00000000E-02
	 0.00000000E+00	 1.00000000E-02	 3.00000000E-02
	 2.50000000E-03	 5.00000000E-03	 3.00000000E-02
	 2.50000000E-03	 1.00000000E-02	 3.00000000E-02
	 0.00000000E+00	 5.00000000E-03	 2.50000000E-02
	 0.00000000E+00	 7.50000000E-03	 3.00000000E-02
	 0.00000000E+00	 1.00000000E-02	 2.50000000E-02
	 0.00000000E+00	 5.00000000E-03	 4.00000000E-02
	 0.00000000E+00	 1.00000000E-02	 4.00000000E-02
	 2.50000000E-03	 5.00000000E-03	 4.00000000E-02
	 2.50000000E-03	 1.00000000E-02	 4.00000000E-02
	 0.00000000E+00	 5.00000000E-03	 3.50000000E-02
	 0.00000000E+00	 7.50000000E-03	 4.00000000E-02
	 0.00000000E+00	 1.00000000E-02	 3.50000000E-02
	 0.00000000E+00	 5.00000000E-03	 5.00000000E-02
	 0.00000000E+00	 1.00000000E-02	 5.00000000E-02
	 2.50000000E-03	 5.00000000E-03	 5.00000000E-02
	 2.50000000E-03	 1.00000000E-02	 5.00000000E-02
	 0.00000000E+00	 5.00000000E-03	 4.50000000E-02
	 0.00000000E+00	 7.50000000E-03	 5.00000000E-02
	 0.00000000E+00	 1.00000000E-02	 4.50000000E-02
	 0.00000000E+00	 5.00000000E-03	 6.00000000E-02
	 0.00000000E+00	 1.00000000E-02	 6.00000000E-02
	 2.50000000E-03	 5.00000000E-03	 6.00000000E-02
	 2.50000000E-03	 1.00000000E-02	 6.00000000E-02
	 0.00000000E+00	 5.00000000E-03	 5.50000000E-02
	 0.00000000E+00	 7.50000000E-03	 6.00000000E-02
	 0.00000000E+00	 1.00000000E-02	 5.50000000E-02
	 0.00000000E+00	 5.00000000E-03	 7.00000000E-02
	 0.00000000E+00	 1.00000000E-02	 7.00000000E-02
	 2.50000000E-03	 5.00000000E-03	 7.00000000E-02
	 2.50000000E-03	 1.00000000E-02	 7.00000000E-02
	 0.00000000E+00	 5.00000000E-03	 6.50000000E-02
	 0.00000000E+00	 7.50000000E-03	 7.00000000E-02
	 0.00000000E+00	 1.00000000E-02	 6.50000000E-02
	 0.00000000E+00	 5.00000000E-03	 8.00000000E-02
	 0.00000000E+00	 1.00000000E-02	 8.00000000E-02
	 2.50000000E-03	 5.00000000E-03	 8.00000000E-02
	 2.50000000E-03	 1.00000000E-02	 8.00000000E-02
	 0.00000000E+00	 5.00000000E-03	 7.50000000E-02
	 0.00000000E+00	 7.50000000E-03	 8.00000000E-02
	 0.00000000E+00	 1.00000000E-02	 7.50000000E-02
	 0.00000000E+00	 5.00000000E-03	 9.00000000E-02
	 0.00000000E+00	 1.00000000E-02	 9.00000000E-02
	 2.50000000E-03	 5.00000000E-03	 9.00000000E-02
	 2.50000000E-03	 1.00000000E-02	 9.00000000E-02
	 0.00000000E+00	 5.00000000E-03	 8.50000000E-02
	 0.00000000E+00	 7.50000000E-03	 9.00000000E-02
	 0.00000000E+00	 1.00000000E-02	 8.50000000E-02
	 0.00000000E+00	 5.00000000E-03	 1.00000000E-01
	 0.00000000E+00	 1.00000000E-02	 1.00000000E-01
	 2.50000000E-03	 5.00000000E-03	 1.00000000E-01
	 2.50000000E-03	 1.00000000E-02	 1.00000000E-01
	 0.00000000E+00	 5.00000000E-03	 9.50000000E-02
	 0.00000000E+00	 7.50000000E-03	 1.00000000E-01
	 0.00000000E+00	 1.00000000E-02	 9.50000000E-02
	 1.00000000E-02	 0.00000000E+00	 0.00000000E+00
	 1.00000000E-02	 0.00000000E+00	 1.00000000E-02
	 5.00000000E-03	 0.00000000E+00	 0.00000000E+00
	 5.00000000E-03	 0.00000000E+00	 1.00000000E-02
	 1.00000000E-02	 2.50000000E-03	 0.00000000E+00
	 1.00000000E-02	 0.00000000E+00	 5.00000000E-03
	 1.00000000E-02	 2.50000000E-03	 1.00000000E-02
	 7.50000000E-03	 0.00000000E+00	 0.00000000E+00
	 7.50000000E-03	 0.00000000E+00	 1.00000000E-02
	 5.00000000E-03	 2.50000000E-03	 0.00000000E+00
	 5.00000000E-03	 0.00000000E+00	 5.00000000E-03
	 5.00000000E-03	 2.50000000E-03	 1.00000000E-02
	 1.00000000E-02	 0.00000000E+00	 2.00000000E-02
	 5.00000000E-03	 0.00000000E+00	 2.00000000E-02
	 1.00000000E-02	 0.00000000E+00	 1.50000000E-02
	 1.00000000E-02	 2.50000000E-03	 2.00000000E-02
	 7.50000000E-03	 0.00000000E+00	 2.00000000E-02
	 5.00000000E-03	 0.00000000E+00	 1.50000000E-02
	 5.00000000E-03	 2.50000000E-03	 2.00000000E-02
	 1.00000000E-02	 0.00000000E+00	 3.00000000E-02
	 5.00000000E-03	 0.00000000E+00	 3.00000000E-02
	 1.00000000E-02	 0.00000000E+00	 2.50000000E-02
	 1.00000000E-02	 2.50000000E-03	 3.00000000E-02
	 7.50000000E-03	 0.00000000E+00	 3.00000000E-02
	 5.00000000E-03	 0.00000000E+00	 2.50000000E-02
	 5.00000000E-03	 2.50000000E-03	 3.00000000E-02
	 1.00000000E-02	 0.00000000E+00	 4.00000000E-02
	 5.00000000E-03	 0.00000000E+00	 4.00000000E-02
	 1.00000000E-02	 0.00000000E+00	 3.50000000E-02
	 1.00000000E-02	 2.50000000E-03	 4.00000000E-02
	 7.50000000E-03	 0.00000000E+00	 4.00000000E-02
	 5.00000000E-03	 0.00000000E+00	 3.50000000E-02
	 5.00000000E-03	 2.50000000E-03	 4.00000000E-02
	 1.00000000E-02	 0.00000000E+00	 5.00000000E-02
	 5.00000000E-03	 0.00000000E+00	 5.00000000E-02
	 1.00000000E-02	 0.00000000E+00	 4.50000000E-02
	 1.00000000E-02	 2.50000000E-03	 5.00000000E-02
	 7.50000000E-03	 0.00000000E+00	 5.00000000E-02
	 5.00000000E-03	 0.00000000E+00	 4.50000000E-02
	 5.00000000E-03	 2.50000000E-03	 5.00000000E-02
	 1.00000000E-02	 0.00000000E+00	 6.00000000E-02
	 5.00000000E-03	 0.00000000E+00	 6.00000000E-02
	 1.00000000E-02	 0.00000000E+00	 5.50000000E-02
	 1.00000000E-02	 2.50000000E-03	 6.00000000E-02
	 7.50000000E-03	 0.00000000E+00	 6.00000000E-02
	 5.00000000E-03	 0.00000000E+00	 5.50000000E-02
	 5.00000000E-03	 2.50000000E-03	 6.00000000E-02
	 1.00000000E-02	 0.00000000E+00	 7.00000000E-02
	 5.00000000E-03	 0.00000000E+00	 7.00000000E-02
	 1.00000000E-02	 0.00000000E+00	 6.50000000E-02
	 1.00000000E-02	 2.50000000E-03	 7.00000000E-02
	 7.50000000E-03	 0.00000000E+00	 7.00000000E-02
	 5.00000000E-03	 0.00000000E+00	 6.50000000E-02
	 5.00000000E-03	 2.50000000E-03	 7.00000000E-02
	 1.00000000E-02	 0.00000000E+00	 8.00000000E-02
	 5.00000000E-03	 0.00000000E+00	 8.00000000E-02
	 1.00000000E-02	 0.00000000E+00	 7.50000000E-02
	 1.00000000E-02	 2.50000000E-03	 8.00000000E-02
	 7.50000000E-03	 0.00000000E+00	 8.00000000E-02
	 5.00000000E-03	 0.00000000E+00	 7.50000000E-02
	 5.00000000E-03	 2.50000000E-03	 8.00000000E-02
	 1.00000000E-02	 0.00000000E+00	 9.00000000E-02
	 5.00000000E-03	 0.00000000E+00	 9.00000000E-02
	 1.00000000E-02	 0.00000000E+00	 8.50000000E-02
	 1.00000000E-02	 2.50000000E-03	 9.00000000E-02
	 7.50000000E-03	 0.00000000E+00	 9.00000000E-02
	 5.00000000E-03	 0.00000000E+00	 8.50000000E-02
	 5.00000000E-03	 2.50000000E-03	 9.00000000E-02
	 1.00000000E-02	 0.00000000E+00	 1.00000000E-01
	 5.00000000E-03	 0.00000000E+00	 1.00000000E-01
	 1.00000000E-02	 0.00000000E+00	 9.50000000E-02
	 1.00000000E-02	 2.50000000E-03	 1.00000000E-01
	 7.50000000E-03	 0.00000000E+00	 1.00000000E-01
	 5.00000000E-03	 0.00000000E+00	 9.50000000E-02
	 5.00000000E-03	 2.50000000E-03	 1.00000000E-01
	 0.00000000E+00	 0.00000000E+00	 0.00000000E+00
	 0.00000000E+00	 0.00000000E+00	 1.00000000E-02
	 2.50000000E-03	 0.00000000E+00	 0.00000000E+00
	 2.50000000E-03	 0.00000000E+00	 1.00000000E-02
	 0.00000000E+00	 2.50000000E-03	 0.00000000E+00
	 0.00000000E+00	 0.00000000E+00	 5.00000000E-03
	 0.00000000E+00	 2.50000000E-03	 1.00000000E-02
	 0.00000000E+00	 0.00000000E+00	 2.00000000E-02
	 2.50000000E-03	 0.00000000E+00	 2.00000000E-02
	 0.00000000E+00	 0.00000000E+00	 1.50000000E-02
	 0.00000000E+00	 2.50000000E-03	 2.00000000E-02
	 0.00000000E+00	 0.00000000E+00	 3.00000000E-02
	 2.50000000E-03	 0.00000000E+00	 3.00000000E-02
	 0.00000000E+00	 0.00000000E+00	 2.50000000E-02
	 0.00000000E+00	 2.50000000E-03	 3.00000000E-02
	 0.00000000E+00	 0.00000000E+00	 4.00000000E-02
	 2.50000000E-03	 0.00000000E+00	 4.00000000E-02
	 0.00000000E+00	 0.00000000E+00	 3.50000000E-02
	 0.00000000E+00	 2.50000000E-03	 4.00000000E-02
	 0.00000000E+00	 0.00000000E+00	 5.00000000E-02
	 2.50000000E-03	 0.00000000E+00	 5.00000000E-02
	 0.00000000E+00	 0.00000000E+00	 4.50000000E-02
	 0.00000000E+00	 2.50000000E-03	 5.00000000E-02
	 0.00000000E+00	 0.00000000E+00	 6.00000000E-02
	 2.50000000E-03	 0.00000000E+00	 6.00000000E-02
	 0.00000000E+00	 0.00000000E+00	 5.50000000E-02
	 0.00000000E+00	 2.50000000E-03	 6.00000000E-02
	 0.00000000E+00	 0.00000000E+00	 7.00000000E-02
	 2.50000000E-03	 0.00000000E+00	 7.00000000E-02
	 0.00000000E+00	 0.00000000E+00	 6.50000000E-02
	 0.00000000E+00	 2.50000000E-03	 7.00000000E-02
	 0.00000000E+00	 0.00000000E+00	 8.00000000E-02
	 2.50000000E-03	 0.00000000E+00	 8.00000000E-02
	 0.00000000E+00	 0.00000000E+00	 7.50000000E-02
	 0.00000000E+00	 2.50000000E-03	 8.00000000E-02
	 0.00000000E+00	 0.00000000E+00	 9.00000000E-02
	 2.50000000E-03	 0.00000000E+00	 9.00000000E-02
	 0.00000000E+00	 0.00000000E+00	 8.50000000E-02
	 0.00000000E+00	 2.50000000E-03	 9.00000000E-02
	 0.00000000E+00	 0.00000000E+00	 1.00000000E-01
	 2.50000000E-03	 0.00000000E+00	 1.00000000E-01
	 0.00000000E+00	 0.00000000E+00	 9.50000000E-02
	 0.00000000E+00	 2.50000000E-03	 1.00000000E-01

CELLS 40 840
	20 0 1 2 3 4 5 6 7 8 9 10 11 16 17 18 19 12 13 14 15 
	20 3 2 20 21 7 6 22 23 10 24 25 26 18 29 30 31 15 14 27 28 
	20 21 20 32 33 23 22 34 35 25 36 37 38 30 41 42 43 28 27 39 40 
	20 33 32 44 45 35 34 46 47 37 48 49 50 42 53 54 55 40 39 51 52 
	20 45 44 56 57 47 46 58 59 49 60 61 62 54 65 66 67 52 51 63 64 
	20 57 56 68 69 59 58 70 71 61 72 73 74 66 77 78 79 64 63 75 76 
	20 69 68 80 81 71 70 82 83 73 84 85 86 78 89 90 91 76 75 87 88 
	20 81 80 92 93 83 82 94 95 85 96 97 98 90 101 102 103 88 87 99 100 
	20 93 92 104 105 95 94 106 107 97 108 109 110 102 113 114 115 100 99 111 112 
	20 105 104 116 117 107 106 118 119 109 120 121 122 114 125 126 127 112 111 123 124 
	20 4 5 6 7 128 129 130 131 16 17 18 19 136 137 138 139 132 133 134 135 
	20 7 6 22 23 131 130 140 141 18 29 30 31 138 144 145 146 135 134 142 143 
	20 23 22 34 35 141 140 147 148 30 41 42 43 145 151 152 153 143 142 149 150 
	20 35 34 46 47 148 147 154 155 42 53 54 55 152 158 159 160 150 149 156 157 
	20 47 46 58 59 155 154 161 162 54 65 66 67 159 165 166 167 157 156 163 164 
	20 59 58 70 71 162 161 168 169 66 77 78 79 166 172 173 174 164 163 170 171 
	20 71 70 82 83 169 168 175 176 78 89 90 91 173 179 180 181 171 170 177 178 
	20 83 82 94 95 176 175 182 183 90 101 102 103 180 186 187 188 178 177 184 185 
	20 95 94 106 107 183 182 189 190 102 113 114 115 187 193 194 195 185 184 191 192 
	20 107 106 118 119 190 189 196 197 114 125 126 127 194 200 201 202 192 191 198 199 
	20 1 203 204 2 5 205 206 6 207 208 209 9 212 213 214 17 13 210 211 14 
	20 2 204 215 20 6 206 216 22 209 217 218 24 214 220 221 29 14 211 219 27 
	20 20 215 222 32 22 216 223 34 218 224 225 36 221 227 228 41 27 219 226 39 
	20 32 222 229 44 34 223 230 46 225 231 232 48 228 234 235 53 39 226 233 51 
	20 44 229 236 56 46 230 237 58 232 238 239 60 235 241 242 65 51 233 240 63 
	20 56 236 243 68 58 237 244 70 239 245 246 72 242 248 249 77 63 240 247 75 
	20 68 243 250 80 70 244 251 82 246 252 253 84 249 255 256 89 75 247 254 87 
	20 80 250 257 92 82 251 258 94 253 259 260 96 256 262 263 101 87 254 261 99 
	20 92 257 264 104 94 258 265 106 260 266 267 108 263 269 270 113 99 261 268 111 
	20 104 264 271 116 106 265 272 118 267 273 274 120 270 276 277 125 111 268 275 123 
	20 5 205 206 6 129 278 279 130 212 213 214 17 282 283 284 137 133 280 281 134 
	20 6 206 216 22 130 279 285 140 214 220 221 29 284 287 288 144 134 281 286 142 
	20 22 216 223 34 140 285 289 147 221 227 228 41 288 291 292 151 142 286 290 149 
	20 34 223 230 46 147 289 293 154 228 234 235 53 292 295 296 158 149 290 294 156 
	20 46 230 237 58 154 293 297 161 235 241 242 65 296 299 300 165 156 294 298 163 
	20 58 237 244 70 161 297 301 168 242 248 249 77 300 303 304 172 163 298 302 170 
	20 70 244 251 82 168 301 305 175 249 255 256 89 304 307 308 179 170 302 306 177 
	20 82 251 258 94 175 305 309 182 256 262 263 101 308 311 312 186 177 306 310 184 
	20 94 258 265 106 182 309 313 189 263 269 270 113 312 315 316 193 184 310 314 191 
	20 106 265 272 118 189 313 317 196 270 276 277 125 316 319 320 200 191 314 318 198 

CELL_TYPES 40
	25
	25
	25
	25
	25
	25
	25
	25
	25
	25
	25
	25
	25
	25
	25
	25
	25
	25
	25
	25
	25
	25
	25
	25
	25
	25
	25
	25
	25
	25
	25
	25
	25
	25
	25
	25
	25
	25
	25
	25

POINT_DATA 321
FIELD U 1
	U 3 321 double
		 0.00000000E+00	 0.00000000E+00	 0.00000000E+00
		 0.00000000E+00	 0.00000000E+00	 0.00000000E+00
		 0.00000000E+00	 2.67599000E+00	 0.00000000E+00
		-2.66413000E+00	 2.66413000E+00	 0.00000000E+00
		 0.00000000E+00	 0.00000000E+00	 0.00000000E+00
		 0.00000000E+00	 0.00000000E+00	 0.00000000E+00
		 0.00000000E+00	 0.00000000E+00	 0.00000000E+00
		-2.67599000E+00	 0.00000000E+00	 0.00000000E+00
		 0.00000000E+00	 0.00000000E+00	 0.00000000E+00
		 0.00000000E+00	 1.33176000E+00	 0.00000000E+00
		-1.33660000E+00	 2.66867000E+00	 2.40878000E-01
		-1.28081000E+00	 1.28081000E+00	 0.00000000E+00
		 0.00000000E+00	 0.00000000E+00	 0.00000000E+00
		 0.00000000E+00	 0.00000000E+00	 0.00000000E+00
		 0.00000000E+00	 1.33542000E+00	 0.00000000E+00
		-2.66867000E+00	 1.33660000E+00	-2.40878000E-01
		 0.00000000E+00	 0.00000000E+00	 0.00000000E+00
		 0.00000000E+00	 0.00000000E+00	 0.00000000E+00
		-1.33542000E+00	 0.00000000E+00	 0.00000000E+00
		-1.33176000E+00	 0.00000000E+00	 0.00000000E+00
		 0.00000000E+00	 4.94303000E+00	 0.00000000E+00
		-4.96471000E+00	 4.96471000E+00	 0.00000000E+00
		 0.00000000E+00	 0.00000000E+00	 0.00000000E+00
		-4.94303000E+00	 0.00000000E+00	 0.00000000E+00
		 0.00000000E+00	 3.92376000E+00	 0.00000000E+00
		-2.47653000E+00	 4.95561000E+00	 1.19691000E-01
		-3.94841000E+00	 3.94841000E+00	 0.00000000E+00
		 0.00000000E+00	 2.47477000E+00	 0.00000000E+00
		-4.95561000E+00	 2.47653000E+00	-1.19691000E-01
		 0.00000000E+00	 0.00000000E+00	 0.00000000E+00
		-2.47477000E+00	 0.00000000E+00	 0.00000000E+00
		-3.92376000E+00	 0.00000000E+00	 0.00000000E+00
		 0.00000000E+00	 6.09392000E+00	 0.00000000E+00
		-6.11303000E+00	 6.11303000E+00	 0.00000000E+00
		 0.00000000E+00	 0.00000000E+00	 0.00000000E+00
		-6.09392000E+00	 0.00000000E+00	 0.00000000E+00
		 0.00000000E+00	 5.67495000E+00	 0.00000000E+00
		-3.05380000E+00	 6.10416000E+00	 3.90821000E-02
		-5.69392000E+00	 5.69392000E+00	 0.00000000E+00
		 0.00000000E+00	 3.04836000E+00	 0.00000000E+00
		-6.10416000E+00	 3.05380000E+00	-3.90821000E-02
		 0.00000000E+00	 0.00000000E+00	 0.00000000E+00
		-3.04836000E+00	 0.00000000E+00	 0.00000000E+00
		-5.67495000E+00	 0.00000000E+00	 0.00000000E+00
		 0.00000000E+00	 5.90912000E+00	 0.00000000E+00
		-5.92968000E+00	 5.92968000E+00	 0.00000000E+00
		 0.00000000E+00	 0.00000000E+00	 0.00000000E+00
		-5.90912000E+00	 0.00000000E+00	 0.00000000E+00
		 0.00000000E+00	 6.17362000E+00	 0.00000000E+00
		-2.96097000E+00	 5.92050000E+00	-6.41665000E-02
		-6.19594000E+00	 6.19594000E+00	 0.00000000E+00
		 0.00000000E+00	 2.95666000E+00	 0.00000000E+00
		-5.92050000E+00	 2.96097000E+00	 6.41665000E-02
		 0.00000000E+00	 0.00000000E+00	 0.00000000E+00
		-2.95666000E+00	 0.00000000E+00	 0.00000000E+00
		-6.17362000E+00	 0.00000000E+00	 0.00000000E+00
		 0.00000000E+00	 4.42353000E+00	 0.00000000E+00
		-4.43849000E+00	 4.43849000E+00	 0.00000000E+00
		 0.00000000E+00	 0.00000000E+00	 0.00000000E+00
		-4.42353000E+00	 0.00000000E+00	 0.00000000E+00
		 0.00000000E+00	 5.31421000E+00	 0.00000000E+00
		-2.21665000E+00	 4.43172000E+00	-1.50413000E-01
		-5.33332000E+00	 5.33332000E+00	 0.00000000E+00
		 0.00000000E+00	 2.21315000E+00	 0.00000000E+00
		-4.43172000E+00	 2.21665000E+00	 1.50413000E-01
		 0.00000000E+00	 0.00000000E+00	 0.00000000E+00
		-2.21315000E+00	 0.00000000E+00	 0.00000000E+00
		-5.31421000E+00	 0.00000000E+00	 0.00000000E+00
		 0.00000000E+00	 1.96466000E+00	 0.00000000E+00
		-1.97137000E+00	 1.97137000E+00	 0.00000000E+00
		 0.00000000E+00	 0.00000000E+00	 0.00000000E+00
		-1.96466000E+00	 0.00000000E+00	 0.00000000E+00
		 0.00000000E+00	 3.28557000E+00	 0.00000000E+00
		-9.84482000E-01	 1.96835000E+00	-2.04157000E-01
		-3.29736000E+00	 3.29736000E+00	 0.00000000E+00
		 0.00000000E+00	 9.82978000E-01	 0.00000000E+00
		-1.96835000E+00	 9.84482000E-01	 2.04157000E-01
		 0.00000000E+00	 0.00000000E+00	 0.00000000E+00
		-9.82978000E-01	 0.00000000E+00	 0.00000000E+00
		-3.28557000E+00	 0.00000000E+00	 0.00000000E+00
		 0.00000000E+00	-9.26415000E-01	 0.00000000E+00
		 9.29541000E-01	-9.29541000E-01	 0.00000000E+00
		 0.00000000E+00	 0.00000000E+00	 0.00000000E+00
		 9.26415000E-01	 0.00000000E+00	 0.00000000E+00
		 0.00000000E+00	 5.33974000E-01	 0.00000000E+00
		 4.64225000E-01	-9.28130000E-01	-2.12751000E-01
		-5.35884000E-01	 5.35884000E-01	 0.00000000E+00
		 0.00000000E+00	-4.63498000E-01	 0.00000000E+00
		 9.28130000E-01	-4.64225000E-01	 2.12751000E-01
		 0.00000000E+00	 0.00000000E+00	 0.00000000E+00
		 4.63498000E-01	 0.00000000E+00	 0.00000000E+00
		-5.33974000E-01	 0.00000000E+00	 0.00000000E+00
		 0.00000000E+00	-3.61392000E+00	 0.00000000E+00
		 3.62642000E+00	-3.62642000E+00	 0.00000000E+00
		 0.00000000E+00	 0.00000000E+00	 0.00000000E+00
		 3.61392000E+00	 0.00000000E+00	 0.00000000E+00
		 0.00000000E+00	-2.33513000E+00	 0.00000000E+00
		 1.81098000E+00	-3.62078000E+00	-1.75141000E-01
		 2.34342000E+00	-2.34342000E+00	 0.00000000E+00
		 0.00000000E+00	-1.80816000E+00	 0.00000000E+00
		 3.62078000E+00	-1.81098000E+00	 1.75141000E-01
		 0.00000000E+00	 0.00000000E+00	 0.00000000E+00
		 1.80816000E+00	 0.00000000E+00	 0.00000000E+00
		 2.33513000E+00	 0.00000000E+00	 0.00000000E+00
		 0.00000000E+00	-5.50459000E+00	 0.00000000E+00
		 5.52357000E+00	-5.52357000E+00	 0.00000000E+00
		 0.00000000E+00	 0.00000000E+00	 0.00000000E+00
		 5.50459000E+00	 0.00000000E+00	 0.00000000E+00
		 0.00000000E+00	-4.69026000E+00	 0.00000000E+00
		 2.75839000E+00	-5.51503000E+00	-9.62874000E-02
		 4.70759000E+00	-4.70759000E+00	 0.00000000E+00
		 0.00000000E+00	-2.75408000E+00	 0.00000000E+00
		 5.51503000E+00	-2.75839000E+00	 9.62874000E-02
		 0.00000000E+00	 0.00000000E+00	 0.00000000E+00
		 2.75408000E+00	 0.00000000E+00	 0.00000000E+00
		 4.69026000E+00	 0.00000000E+00	 0.00000000E+00
		 0.00000000E+00	-6.18995000E+00	 0.00000000E+00
		 6.21567000E+00	-6.21567000E+00	 0.00000000E+00
		 0.00000000E+00	 0.00000000E+00	 0.00000000E+00
		 6.18995000E+00	 0.00000000E+00	 0.00000000E+00
		 0.00000000E+00	-6.01491000E+00	 0.00000000E+00
		 3.10535000E+00	-6.20346000E+00	-8.74621000E-03
		 6.03317000E+00	-6.03317000E+00	 0.00000000E+00
		 0.00000000E+00	-3.09637000E+00	 0.00000000E+00
		 6.20346000E+00	-3.10535000E+00	 8.74621000E-03
		 0.00000000E+00	 0.00000000E+00	 0.00000000E+00
		 3.09637000E+00	 0.00000000E+00	 0.00000000E+00
		 6.01491000E+00	 0.00000000E+00	 0.00000000E+00
		 0.00000000E+00	 0.00000000E+00	 0.00000000E+00
		 0.00000000E+00	 0.00000000E+00	 0.00000000E+00
		 0.00000000E+00	-2.67599000E+00	 0.00000000E+00
		-2.66413000E+00	-2.66413000E+00	 0.00000000E+00
		 0.00000000E+00	 0.00000000E+00	 0.00000000E+00
		 0.00000000E+00	 0.00000000E+00	 0.00000000E+00
		 0.00000000E+00	-1.33542000E+00	 0.00000000E+00
		-2.66867000E+00	-1.33660000E+00	 2.40878000E-01
		 0.00000000E+00	 0.00000000E+00	 0.00000000E+00
		 0.00000000E+00	-1.33176000E+00	 0.00000000E+00
		-1.33660000E+00	-2.66867000E+00	-2.40878000E-01
		-1.28081000E+00	-1.28081000E+00	 0.00000000E+00
		 0.00000000E+00	-4.94303000E+00	 0.00000000E+00
		-4.96471000E+00	-4.96471000E+00	 0.00000000E+00
		 0.00000000E+00	-2.47477000E+00	 0.00000000E+00
		-4.95561000E+00	-2.47653000E+00	 1.19691000E-01
		 0.00000000E+00	-3.92376000E+00	 0.00000000E+00
		-2.47653000E+00	-4.95561000E+00	-1.19691000E-01
		-3.94841000E+00	-3.94841000E+00	 0.00000000E+00
		 0.00000000E+00	-6.09392000E+00	 0.00000000E+00
		-6.11303000E+00	-6.11303000E+00	 0.00000000E+00
		 0.00000000E+00	-3.04836000E+00	 0.00000000E+00
		-6.10416000E+00	-3.05380000E+00	 3.90821000E-02
		 0.00000000E+00	-5.67495000E+00	 0.00000000E+00
		-3.05380000E+00	-6.10416000E+00	-3.90821000E-02
		-5.69392000E+00	-5.69392000E+00	 0.00000000E+00
		 0.00000000E+00	-5.90912000E+00	 0.00000000E+00
		-5.92968000E+00	-5.92968000E+00	 0.00000000E+00
		 0.00000000E+00	-2.95666000E+00	 0.00000000E+00
		-5.92050000E+00	-2.96097000E+00	-6.41665000E-02
		 0.00000000E+00	-6.17362000E+00	 0.00000000E+00
		-2.96097000E+00	-5.92050000E+00	 6.41665000E-02
		-6.19594000E+00	-6.19594000E+00	 0.00000000E+00
		 0.00000000E+00	-4.42353000E+00	 0.00000000E+00
		-4.43849000E+00	-4.43849000E+00	 0.00000000E+00
		 0.00000000E+00	-2.21315000E+00	 0.00000000E+00
		-4.43172000E+00	-2.21665000E+00	-1.50413000E-01
		 0.00000000E+00	-5.31421000E+00	 0.00000000E+00
		-2.21665000E+00	-4.43172000E+00	 1.50413000E-01
		-5.33332000E+00	-5.33332000E+00	 0.00000000E+00
		 0.00000000E+00	-1.96466000E+00	 0.00000000E+00
		-1.97137000E+00	-1.97137000E+00	 0.00000000E+00
		 0.00000000E+00	-9.82978000E-01	 0.00000000E+00
		-1.96835000E+00	-9.84482000E-01	-2.04157000E-01
		 0.00000000E+00	-3.28557000E+00	 0.00000000E+00
		-9.84482000E-01	-1.96835000E+00	 2.04157000E-01
		-3.29736000E+00	-3.29736000E+00	 0.00000000E+00
		 0.00000000E+00	 9.26415000E-01	 0.00000000E+00
		 9.29541000E-01	 9.29541000E-01	 0.00000000E+00
		 0.00000000E+00	 4.63498000E-01	 0.00000000E+00
		 9.28130000E-01	 4.64225000E-01	-2.12751000E-01
		 0.00000000E+00	-5.33974000E-01	 0.00000000E+00
		 4.64225000E-01	 9.28130000E-01	 2.12751000E-01
		-5.35884000E-01	-5.35884000E-01	 0.00000000E+00
		 0.00000000E+00	 3.61392000E+00	 0.00000000E+00
		 3.62642000E+00	 3.62642000E+00	 0.00000000E+00
		 0.00000000E+00	 1.80816000E+00	 0.00000000E+00
		 3.62078000E+00	 1.81098000E+00	-1.75141000E-01
		 0.00000000E+00	 2.33513000E+00	 0.00000000E+00
		 1.81098000E+00	 3.62078000E+00	 1.75141000E-01
		 2.34342000E+00	 2.34342000E+00	 0.00000000E+00
		 0.00000000E+00	 5.50459000E+00	 0.00000000E+00
		 5.52357000E+00	 5.52357000E+00	 0.00000000E+00
		 0.00000000E+00	 2.75408000E+00	 0.00000000E+00
		 5.51503000E+00	 2.75839000E+00	-9.62874000E-02
		 0.00000000E+00	 4.69026000E+00	 0.00000000E+00
		 2.75839000E+00	 5.51503000E+00	 9.62874000E-02
		 4.70759000E+00	 4.70759000E+00	 0.00000000E+00
		 0.00000000E+00	 6.18995000E+00	 0.00000000E+00
		 6.21567000E+00	 6.21567000E+00	 0.00000000E+00
		 0.00000000E+00	 3.09637000E+00	 0.00000000E+00
		 6.20346000E+00	 3.10535000E+00	-8.74621000E-03
		 0.00000000E+00	 6.01491000E+00	 0.00000000E+00
		 3.10535000E+00	 6.20346000E+00	 8.74621000E-03
		 6.03317000E+00	 6.03317000E+00	 0.00000000E+00
		 0.00000000E+00	 0.00000000E+00	 0.00000000E+00
		 2.66413000E+00	 2.66413000E+00	 0.00000000E+00
		 0.00000000E+00	 0.00000000E+00	 0.00000000E+00
		 2.67599000E+00	 0.00000000E+00	 0.00000000E+00
		 0.00000000E+00	 0.00000000E+00	 0.00000000E+00
		 1.28081000E+00	 1.28081000E+00	 0.00000000E+00
		 1.33660000E+00	 2.66867000E+00	-2.40878000E-01
		 0.00000000E+00	 0.00000000E+00	 0.00000000E+00
		 2.66867000E+00	 1.33660000E+00	 2.40878000E-01
		 0.00000000E+00	 0.00000000E+00	 0.00000000E+00
		 1.33176000E+00	 0.00000000E+00	 0.00000000E+00
		 1.33542000E+00	 0.00000000E+00	 0.00000000E+00
		 4.96471000E+00	 4.96471000E+00	 0.00000000E+00
		 4.94303000E+00	 0.00000000E+00	 0.00000000E+00
		 3.94841000E+00	 3.94841000E+00	 0.00000000E+00