<?xml version="1.0"?>
<VTKFile type="UnstructuredGrid" version="0.1" byte_order="LittleEndian">
	<UnstructuredGrid>
		<Piece NumberOfPoints="321" NumberOfCells="40">
			<Points>
				<DataArray type="Float64" NumberOfComponents="3" format="ascii">
					 1.00000000E-02	 1.00000000E-02	 0.00000000E+00
					 1.00000000E-02	 5.00000000E-03	 0.00000000E+00
					 1.00000000E-02	 5.00000000E-03	 1.00000000E-02
					 1.00000000E-02	 1.00000000E-02	 1.00000000E-02
					 5.00000000E-03	 1.00000000E-02	 0.00000000E+00
					 5.00000000E-03	 5.00000000E-03	 0.00000000E+00
					 5.00000000E-03	 5.00000000E-03	 1.00000000E-02
					 5.00000000E-03	 1.00000000E-02	 1.00000000E-02
					 1.00000000E-02	 7.50000000E-03	 0.00000000E+00
					 1.00000000E-02	 5.00000000E-03	 5.00000000E-03
					 1.00000000E-02	 7.50000000E-03	 1.00000000E-02
					 1.00000000E-02	 1.00000000E-02	 5.00000000E-03
					 7.50000000E-03	 1.00000000E-02	 0.00000000E+00
					 7.50000000E-03	 5.00000000E-03	 0.00000000E+00
					 7.50000000E-03	 5.00000000E-03	 1.00000000E-02
					 7.50000000E-03	 1.00000000E-02	 1.00000000E-02
					 5.00000000E-03	 7.50000000E-03	 0.00000000E+00
					 5.00000000E-03	 5.00000000E-03	 5.00000000E-03
					 5.00000000E-03	 7.50000000E-03	 1.00000000E-02
					 5.00000000E-03	 1.00000000E-02	 5.00000000E-03
					 1.00000000E-02	 5.00000000E-03	 2.00000000E-02
					 1.00000000E-02	 1.00000000E-02	 2.00000000E-02
					 5.00000000E-03	 5.00000000E-03	 2.00000000E-02
					 5.00000000E-03	 1.00000000E-02	 2.00000000E-02
					 1.00000000E-02	 5.00000000E-03	 1.50000000E-02
					 1.00000000E-02	 7.50000000E-03	 2.00000000E-02
					 1.00000000E-02	 1.00000000E-02	 1.50000000E-02
					 7.50000000E-03	 5.00000000E-03	 2.00000000E-02
					 7.50000000E-03	 1.00000000E-02	 2.00000000E-02
					 5.00000000E-03	 5.00000000E-03	 1.50000000E-02
					 5.00000000E-03	 7.50000000E-03	 2.00000000E-02
					 5.00000000E-03	 1.00000000E-02	 1.50000000E-02
					 1.00000000E-02	 5.00000000E-03	 3.00000000E-02
					 1.00000000E-02	 1.00000000E-02	 3.00000000E-02
					 5.00000000E-03	 5.00000000E-03	 3.00000000E-02
					 5.00000000E-03	 1.00000000E-02	 3.00000000E-02
					 1.00000000E-02	 5.00000000E-03	 2.50000000E-02
					 1.00000000E-02	 7.50000000E-03	 3.00000000E-02
					 1.00000000E-02	 1.00000000E-02	 2.50000000E-02
					 7.50000000E-03	 5.00000000E-03	 3.00000000E-02
					 7.50000000E-03	 1.00000000E-02	 3.00000000E-02
					 5.00000000E-03	 5.00000000E-03	 2.50000000E-02
					 5.00000000E-03	 7.50000000E-03	 3.00000000E-02
					 5.00000000E-03	 1.00000000E-02	 2.50000000E-02
					 1.00000000E-02	 5.00000000E-03	 4.00000000E-02
					 1.00000000E-02	 1.00000000E-02	 4.00000000E-02
					 5.00000000E-03	 5.00000000E-03	 4.00000000E-02
					 5.00000000E-03	 1.00000000E-02	 4.00000000E-02
					 1.00000000E-02	 5.00000000E-03	 3.50000000E-02
					 1.00000000E-02	 7.50000000E-03	 4.00000000E-02
					 1.00000000E-02	 1.00000000E-02	 3.50000000E-02
					 7.50000000E-03	 5.00000000E-03	 4.00000000E-02
					 7.50000000E-03	 1.00000000E-02	 4.00000000E-02
					 5.00000000E-03	 5.00000000E-03	 3.50000000E-02
					 5.00000000E-03	 7.50000000E-03	 4.00000000E-02
					 5.00000000E-03	 1.00000000E-02	 3.50000000E-02
					 1.00000000E-02	 5.00000000E-03	 5.00000000E-02
					 1.00000000E-02	 1.00000000E-02	 5.00000000E-02
					 5.00000000E-03	 5.00000000E-03	 5.00000000E-02
					 5.00000000E-03	 1.00000000E-02	 5.00000000E-02
					 1.00000000E-02	 5.00000000E-03	 4.50000000E-02
					 1.00000000E-02	 7.50000000E-03	 5.00000000E-02
					 1.00000000E-02	 1.00000000E-02	 4.50000000E-02
					 7.50000000E-03	 5.00000000E-03	 5.00000000E-02
					 7.50000000E-03	 1.00000000E-02	 5.00000000E-02
					 5.00000000E-03	 5.00000000E-03	 4.50000000E-02
					 5.00000000E-03	 7.50000000E-03	 5.00000000E-02
					 5.00000000E-03	 1.00000000E-02	 4.50000000E-02
					 1.00000000E-02	 5.00000000E-03	 6.00000000E-02
					 1.00000000E-02	 1.00000000E-02	 6.00000000E-02
					 5.00000000E-03	 5.00000000E-03	 6.00000000E-02
					 5.00000000E-03	 1.00000000E-02	 6.00000000E-02
					 1.00000000E-02	 5.00000000E-03	 5.50000000E-02
					 1.00000000E-02	 7.50000000E-03	 6.00000000E-02
					 1.00000000E-02	 1.00000000E-02	 5.50000000E-02
					 7.50000000E-03	 5.00000000E-03	 6.00000000E-02
					 7.50000000E-03	 1.00000000E-02	 6.00000000E-02
					 5.00000000E-03	 5.00000000E-03	 5.50000000E-02
					 5.00000000E-03	 7.50000000E-03	 6.00000000E-02
					 5.00000000E-03	 1.00000000E-02	 5.50000000E-02
					 1.00000000E-02	 5.00000000E-03	 7.00000000E-02
					 1.00000000E-02	 1.00000000E-02	 7.00000000E-02
					 5.00000000E-03	 5.00000000E-03	 7.00000000E-02
					 5.00000000E-03	 1.00000000E-02	 7.00000000E-02
					 1.00000000E-02	 5.00000000E-03	 6.50000000E-02
					 1.00000000E-02	 7.50000000E-03	 7.00000000E-02
					 1.00000000E-02	 1.00000000E-02	 6.50000000E-02
					 7.50000000E-03	 5.00000000E-03	 7.00000000E-02
					 7.50000000E-03	 1.00000000E-02	 7.00000000E-02
					 5.00000000E-03	 5.00000000E-03	 6.50000000E-02
					 5.00000000E-03	 7.50000000E-03	 7.00000000E-02
					 5.00000000E-03	 1.00000000E-02	 6.50000000E-02
					 1.00000000E-02	 5.00000000E-03	 8.00000000E-02
					 1.00000000E-02	 1.00000000E-02	 8.00000000E-02
					 5.00000000E-03	 5.00000000E-03	 8.00000000E-02
					 5.00000000E-03	 1.00000000E-02	 8.00000000E-02
					 1.00000000E-02	 5.00000000E-03	 7.50000000E-02
					 1.00000000E-02	 7.50000000E-03	 8.00000000E-02
					 1.00000000E-02	 1.00000000E-02	 7.50000000E-02
					 7.50000000E-03	 5.00000000E-03	 8.00000000E-02
					 7.50000000E-03	 1.00000000E-02	 8.00000000E-02
					 5.00000000E-03	 5.00000000E-03	 7.50000000E-02
					 5.00000000E-03	 7.50000000E-03	 8.00000000E-02
					 5.00000000E-03	 1.00000000E-02	 7.50000000E-02
					 1.00000000E-02	 5.00000000E-03	 9.00000000E-02
					 1.00000000E-02	 1.00000000E-02	 9.00000000E-02
					 5.00000000E-03	 5.00000000E-03	 9.00000000E-02
					 5.00000000E-03	 1.00000000E-02	 9.00000000E-02
					 1.00000000E-02	 5.00000000E-03	 8.50000000E-02
					 1.00000000E-02	 7.50000000E-03	 9.00000000E-02
					 1.00000000E-02	 1.00000000E-02	 8.50000000E-02
					 7.50000000E-03	 5.00000000E-03	 9.00000000E-02
					 7.50000000E-03	 1.00000000E-02	 9.00000000E-02
					 5.00000000E-03	 5.00000000E-03	 8.50000000E-02
					 5.00000000E-03	 7.50000000E-03	 9.00000000E-02
					 5.00000000E-03	 1.00000000E-02	 8.50000000E-02
					 1.00000000E-02	 5.00000000E-03	 1.00000000E-01
					 1.00000000E-02	 1.00000000E-02	 1.00000000E-01
					 5.00000000E-03	 5.00000000E-03	 1.00000000E-01
					 5.00000000E-03	 1.00000000E-02	 1.00000000E-01
					 1.00000000E-02	 5.00000000E-03	 9.50000000E-02
					 1.00000000E-02	 7.50000000E-03	 1.00000000E-01
					 1.00000000E-02	 1.00000000E-02	 9.50000000E-02
					 7.50000000E-03	 5.00000000E-03	 1.00000000E-01
					 7.50000000E-03	 1.00000000E-02	 1.00000000E-01
					 5.00000000E-03	 5.00000000E-03	 9.50000000E-02
					 5.00000000E-03	 7.50000000E-03	 1.00000000E-01
					 5.00000000E-03	 1.00000000E-02	 9.50000000E-02
					 0.00000000E+00	 1.00000000E-02	 0.00000000E+00
					 0.00000000E+00	 5.00000000E-03	 0.00000000E+00
					 0.00000000E+00	 5.00000000E-03	 1.00000000E-02
					 0.00000000E+00	 1.00000000E-02	 1.00000000E-02
					 2.50000000E-03	 1.00000000E-02	 0.00000000E+00
					 2.50000000E-03	 5.00000000E-03	 0.00000000E+00
					 2.50000000E-03	 5.00000000E-03	 1.00000000E-02
					 2.50000000E-03	 1.00000000E-02	 1.00000000E-02
					 0.00000000E+00	 7.50000000E-03	 0.00000000E+00
					 0.00000000E+00	 5.00000000E-03	 5.00000000E-03
					 0.00000000E+00	 7.50000000E-03	 1.00000000E-02
					 0.00000000E+00	 1.00000000E-02	 5.00000000E-03
					 0.00000000E+00	 5.00000000E-03	 2.00000000E-02
					 0.00000000E+00	 1.00000000E-02	 2.00000000E-02
					 2.50000000E-03	 5.00000000E-03	 2.00000000E-02
					 2.50000000E-03	 1.00000000E-02	 2.00000000E-02
					 0.00000000E+00	 5.00000000E-03	 1.50000000E-02
					 0.00000000E+00	 7.50000000E-03	 2.00000000E-02
					 0.00000000E+00	 1.00000000E-02	 1.50000000E-02
					 0.00000000E+00	 5.00000000E-03	 3.00000000E-02
					 0.00000000E+00	 1.00000000E-02	 3.00000000E-02
					 2.50000000E-03	 5.00000000E-03	 3.00000000E-02
					 2.50000000E-03	 1.00000000E-02	 3.00000000E-02
					 0.00000000E+00	 5.00000000E-03	 2.50000000E-02
					 0.00000000E+00	 7.50000000E-03	 3.00000000E-02
					 0.00000000E+00	 1.00000000E-02	 2.50000000E-02
					 0.00000000E+00	 5.00000000E-03	 4.00000000E-02
					 0.00000000E+00	 1.00000000E-02	 4.00000000E-02
					 2.50000000E-03	 5.00000000E-03	 4.00000000E-02
					 2.50000000E-03	 1.00000000E-02	 4.00000000E-02
					 0.00000000E+00	 5.00000000E-03	 3.50000000E-02
					 0.00000000E+00	 7.50000000E-03	 4.00000000E-02
					 0.00000000E+00	 1.00000000E-02	 3.50000000E-02
					 0.00000000E+00	 5.00000000E-03	 5.00000000E-02
					 0.00000000E+00	 1.00000000E-02	 5.00000000E-02
					 2.50000000E-03	 5.00000000E-03	 5.00000000E-02
					 2.50000000E-03	 1.00000000E-02	 5.00000000E-02
					 0.00000000E+00	 5.00000000E-03	 4.50000000E-02
					 0.00000000E+00	 7.50000000E-03	 5.00000000E-02
					 0.00000000E+00	 1.00000000E-02	 4.50000000E-02
					 0.00000000E+00	 5.00000000E-03	 6.00000000E-02
					 0.00000000E+00	 1.00000000E-02	 6.00000000E-02
					 2.50000000E-03	 5.00000000E-03	 6.00000000E-02
					 2.50000000E-03	 1.00000000E-02	 6.00000000E-02
					 0.00000000E+00	 5.00000000E-03	 5.50000000E-02
					 0.00000000E+00	 7.50000000E-03	 6.00000000E-02
					 0.00000000E+00	 1.00000000E-02	 5.50000000E-02
					 0.00000000E+00	 5.00000000E-03	 7.00000000E-02
					 0.00000000E+00	 1.00000000E-02	 7.00000000E-02
					 2.50000000E-03	 5.00000000E-03	 7.00000000E-02
					 2.50000000E-03	 1.00000000E-02	 7.00000000E-02
					 0.00000000E+00	 5.00000000E-03	 6.50000000E-02
					 0.00000000E+00	 7.50000000E-03	 7.00000000E-02
					 0.00000000E+00	 1.00000000E-02	 6.50000000E-02
					 0.00000000E+00	 5.00000000E-03	 8.00000000E-02
					 0.00000000E+00	 1.00000000E-02	 8.00000000E-02
[...]
			<PointData>
				<DataArray type="Float32" Name="U" NumberOfComponents="3" ComponentName0="D1" ComponentName1="D2" ComponentName2="D3" format="ascii">
					 0.00000000E+00	 0.00000000E+00	 0.00000000E+00
					 0.00000000E+00	 0.00000000E+00	 0.00000000E+00
					 7.07157000E-09	 0.00000000E+00	-4.55758000E-08
					 6.84802000E-09	 6.84802000E-09	-4.53697000E-08
					 0.00000000E+00	 0.00000000E+00	 0.00000000E+00
					 0.00000000E+00	 0.00000000E+00	 0.00000000E+00
					 0.00000000E+00	 0.00000000E+00	-4.57952000E-08
					 0.00000000E+00	 7.07157000E-09	-4.55758000E-08
					 0.00000000E+00	 0.00000000E+00	 0.00000000E+00
					 7.06424000E-09	 0.00000000E+00	-2.13085000E-08
					 6.94550000E-09	 3.44221000E-09	-4.53548000E-08
					 7.05511000E-09	 7.05511000E-09	-2.25330000E-08
					 0.00000000E+00	 0.00000000E+00	 0.00000000E+00
					 0.00000000E+00	 0.00000000E+00	 0.00000000E+00
					 3.53116000E-09	 0.00000000E+00	-4.55688000E-08
					 3.44221000E-09	 6.94550000E-09	-4.53548000E-08
					 0.00000000E+00	 0.00000000E+00	 0.00000000E+00
					 0.00000000E+00	 0.00000000E+00	-2.00508000E-08
					 0.00000000E+00	 3.53116000E-09	-4.55688000E-08
					 0.00000000E+00	 7.06424000E-09	-2.13085000E-08
					 7.15612000E-09	 0.00000000E+00	-9.29602000E-08
					 7.12314000E-09	 7.12314000E-09	-9.29287000E-08
					 0.00000000E+00	 0.00000000E+00	-9.29569000E-08
					 0.00000000E+00	 7.15612000E-09	-9.29602000E-08
					 7.12783000E-09	 0.00000000E+00	-6.92187000E-08
					 7.14580000E-09	 3.55227000E-09	-9.29680000E-08
					 7.15712000E-09	 7.15712000E-09	-6.92166000E-08
					 3.57489000E-09	 0.00000000E+00	-9.29829000E-08
					 3.55227000E-09	 7.14580000E-09	-9.29680000E-08
					 0.00000000E+00	 0.00000000E+00	-6.92415000E-08
					 0.00000000E+00	 3.57489000E-09	-9.29829000E-08
					 0.00000000E+00	 7.12783000E-09	-6.92187000E-08
					 7.14575000E-09	 0.00000000E+00	-1.40607000E-07
					 7.14135000E-09	 7.14135000E-09	-1.40609000E-07
					 0.00000000E+00	 0.00000000E+00	-1.40601000E-07
					 0.00000000E+00	 7.14575000E-09	-1.40607000E-07
					 7.13613000E-09	 0.00000000E+00	-1.16776000E-07
					 7.14134000E-09	 3.57303000E-09	-1.40602000E-07
					 7.13939000E-09	 7.13939000E-09	-1.16784000E-07
					 3.57348000E-09	 0.00000000E+00	-1.40598000E-07
					 3.57303000E-09	 7.14134000E-09	-1.40602000E-07
					 0.00000000E+00	 0.00000000E+00	-1.16780000E-07
					 0.00000000E+00	 3.57348000E-09	-1.40598000E-07
					 0.00000000E+00	 7.13613000E-09	-1.16776000E-07
					 7.14243000E-09	 0.00000000E+00	-1.88216000E-07
					 7.14258000E-09	 7.14258000E-09	-1.88215000E-07
					 0.00000000E+00	 0.00000000E+00	-1.88217000E-07
					 0.00000000E+00	 7.14243000E-09	-1.88216000E-07
					 7.14435000E-09	 0.00000000E+00	-1.64411000E-07
					 7.14320000E-09	 3.57064000E-09	-1.88217000E-07
					 7.14414000E-09	 7.14414000E-09	-1.64410000E-07
					 3.57110000E-09	 0.00000000E+00	-1.88218000E-07
					 3.57064000E-09	 7.14320000E-09	-1.88217000E-07
					 0.00000000E+00	 0.00000000E+00	-1.64411000E-07
					 0.00000000E+00	 3.57110000E-09	-1.88218000E-07
					 0.00000000E+00	 7.14435000E-09	-1.64411000E-07
					 7.14303000E-09	 0.00000000E+00	-2.35837000E-07
					 7.14290000E-09	 7.14290000E-09	-2.35838000E-07
					 0.00000000E+00	 0.00000000E+00	-2.35837000E-07
					 0.00000000E+00	 7.14303000E-09	-2.35837000E-07
					 7.14243000E-09	 0.00000000E+00	-2.12027000E-07
					 7.14275000E-09	 3.57163000E-09	-2.35837000E-07
					 7.14255000E-09	 7.14255000E-09	-2.12027000E-07
					 3.57154000E-09	 0.00000000E+00	-2.35837000E-07
					 3.57163000E-09	 7.14275000E-09	-2.35837000E-07
					 0.00000000E+00	 0.00000000E+00	-2.12027000E-07
					 0.00000000E+00	 3.57154000E-09	-2.35837000E-07
					 0.00000000E+00	 7.14243000E-09	-2.12027000E-07
					 7.14280000E-09	 0.00000000E+00	-2.83456000E-07
					 7.14284000E-09	 7.14284000E-09	-2.83456000E-07
					 0.00000000E+00	 0.00000000E+00	-2.83456000E-07
					 0.00000000E+00	 7.14280000E-09	-2.83456000E-07
					 7.14298000E-09	 0.00000000E+00	-2.59647000E-07
					 7.14288000E-09	 3.57137000E-09	-2.83456000E-07
					 7.14294000E-09	 7.14294000E-09	-2.59647000E-07
					 3.57140000E-09	 0.00000000E+00	-2.83456000E-07
					 3.57137000E-09	 7.14288000E-09	-2.83456000E-07
					 0.00000000E+00	 0.00000000E+00	-2.59647000E-07
					 0.00000000E+00	 3.57140000E-09	-2.83456000E-07
					 0.00000000E+00	 7.14298000E-09	-2.59647000E-07
					 7.14287000E-09	 0.00000000E+00	-3.31075000E-07
					 7.14286000E-09	 7.14286000E-09	-3.31075000E-07
					 0.00000000E+00	 0.00000000E+00	-3.31075000E-07
					 0.00000000E+00	 7.14287000E-09	-3.31075000E-07
					 7.14282000E-09	 0.00000000E+00	-3.07265000E-07
					 7.14285000E-09	 3.57144000E-09	-3.31075000E-07
					 7.14284000E-09	 7.14284000E-09	-3.07266000E-07
					 3.57144000E-09	 0.00000000E+00	-3.31075000E-07
					 3.57144000E-09	 7.14285000E-09	-3.31075000E-07
					 0.00000000E+00	 0.00000000E+00	-3.07265000E-07
					 0.00000000E+00	 3.57144000E-09	-3.31075000E-07
					 0.00000000E+00	 7.14282000E-09	-3.07265000E-07
					 7.14285000E-09	 0.00000000E+00	-3.78694000E-07
					 7.14286000E-09	 7.14286000E-09	-3.78694000E-07
					 0.00000000E+00	 0.00000000E+00	-3.78694000E-07
					 0.00000000E+00	 7.14285000E-09	-3.78694000E-07
					 7.14287000E-09	 0.00000000E+00	-3.54885000E-07
					 7.14286000E-09	 3.57142000E-09	-3.78694000E-07
					 7.14286000E-09	 7.14286000E-09	-3.54885000E-07
					 3.57143000E-09	 0.00000000E+00	-3.78694000E-07
					 3.57142000E-09	 7.14286000E-09	-3.78694000E-07
					 0.00000000E+00	 0.00000000E+00	-3.54885000E-07
					 0.00000000E+00	 3.57143000E-09	-3.78694000E-07
					 0.00000000E+00	 7.14287000E-09	-3.54885000E-07
					 7.14286000E-09	 0.00000000E+00	-4.26313000E-07
					 7.14286000E-09	 7.14286000E-09	-4.26313000E-07
					 0.00000000E+00	 0.00000000E+00	-4.26313000E-07
					 0.00000000E+00	 7.14286000E-09	-4.26313000E-07
					 7.14285000E-09	 0.00000000E+00	-4.02504000E-07
					 7.14286000E-09	 3.57143000E-09	-4.26313000E-07
					 7.14286000E-09	 7.14286000E-09	-4.02504000E-07
					 3.57143000E-09	 0.00000000E+00	-4.26313000E-07
					 3.57143000E-09	 7.14286000E-09	-4.26313000E-07
					 0.00000000E+00	 0.00000000E+00	-4.02504000E-07
					 0.00000000E+00	 3.57143000E-09	-4.26313000E-07
					 0.00000000E+00	 7.14285000E-09	-4.02504000E-07
					 7.14286000E-09	 0.00000000E+00	-4.73932000E-07
					 7.14286000E-09	 7.14286000E-09	-4.73932000E-07
					 0.00000000E+00	 0.00000000E+00	-4.73932000E-07
					 0.00000000E+00	 7.14286000E-09	-4.73932000E-07
					 7.14286000E-09	 0.00000000E+00	-4.50123000E-07
					 7.14286000E-09	 3.57143000E-09	-4.73932000E-07
					 7.14286000E-09	 7.14286000E-09	-4.50123000E-07
					 3.57143000E-09	 0.00000000E+00	-4.73932000E-07
					 3.57143000E-09	 7.14286000E-09	-4.73932000E-07
					 0.00000000E+00	 0.00000000E+00	-4.50123000E-07
					 0.00000000E+00	 3.57143000E-09	-4.73932000E-07
					 0.00000000E+00	 7.14286000E-09	-4.50123000E-07
					 0.00000000E+00	 0.00000000E+00	 0.00000000E+00
					 0.00000000E+00	 0.00000000E+00	 0.00000000E+00
					-7.07157000E-09	 0.00000000E+00	-4.55758000E-08
					-6.84802000E-09	 6.84802000E-09	-4.53697000E-08
					 0.00000000E+00	 0.00000000E+00	 0.00000000E+00
					 0.00000000E+00	 0.00000000E+00	 0.00000000E+00
					-3.53116000E-09	 0.00000000E+00	-4.55688000E-08
					-3.44221000E-09	 6.94550000E-09	-4.53548000E-08
					 0.00000000E+00	 0.00000000E+00	 0.00000000E+00
					-7.06424000E-09	 0.00000000E+00	-2.13085000E-08
					-6.94550000E-09	 3.44221000E-09	-4.53548000E-08
					-7.05511000E-09	 7.05511000E-09	-2.25330000E-08
					-7.15612000E-09	 0.00000000E+00	-9.29602000E-08
					-7.12314000E-09	 7.12314000E-09	-9.29287000E-08
					-3.57489000E-09	 0.00000000E+00	-9.29829000E-08
					-3.55227000E-09	 7.14580000E-09	-9.29680000E-08
					-7.12783000E-09	 0.00000000E+00	-6.92187000E-08
					-7.14580000E-09	 3.55227000E-09	-9.29680000E-08
					-7.15712000E-09	 7.15712000E-09	-6.92166000E-08
					-7.14575000E-09	 0.00000000E+00	-1.40607000E-07
					-7.14135000E-09	 7.14135000E-09	-1.40609000E-07
					-3.57348000E-09	 0.00000000E+00	-1.40598000E-07
					-3.57303000E-09	 7.14134000E-09	-1.40602000E-07
					-7.13613000E-09	 0.00000000E+00	-1.16776000E-07
					-7.14134000E-09	 3.57303000E-09	-1.40602000E-07
					-7.13939000E-09	 7.13939000E-09	-1.16784000E-07
					-7.14243000E-09	 0.00000000E+00	-1.88216000E-07
					-7.14258000E-09	 7.14258000E-09	-1.88215000E-07
					-3.57110000E-09	 0.00000000E+00	-1.88218000E-07
					-3.57064000E-09	 7.14320000E-09	-1.88217000E-07
					-7.14435000E-09	 0.00000000E+00	-1.64411000E-07
					-7.14320000E-09	 3.57064000E-09	-1.88217000E-07
					-7.14414000E-09	 7.14414000E-09	-1.64410000E-07
					-7.14303000E-09	 0.00000000E+00	-2.35837000E-07
					-7.14290000E-09	 7.14290000E-09	-2.35838000E-07
					-3.57154000E-09	 0.00000000E+00	-2.35837000E-07
					-3.57163000E-09	 7.14275000E-09	-2.35837000E-07
					-7.14243000E-09	 0.00000000E+00	-2.12027000E-07
					-7.14275000E-09	 3.57163000E-09	-2.35837000E-07
					-7.14255000E-09	 7.14255000E-09	-2.12027000E-07
					-7.14280000E-09	 0.00000000E+00	-2.83456000E-07
					-7.14284000E-09	 7.14284000E-09	-2.83456000E-07
					-3.57140000E-09	 0.00000000E+00	-2.83456000E-07
					-3.57137000E-09	 7.14288000E-09	-2.83456000E-07
					-7.14298000E-09	 0.00000000E+00	-2.59647000E-07
					-7.14288000E-09	 3.57137000E-09	-2.83456000E-07
					-7.14294000E-09	 7.14294000E-09	-2.59647000E-07
					-7.14287000E-09	 0.00000000E+00	-3.31075000E-07
					-7.14286000E-09	 7.14286000E-09	-3.31075000E-07
					-3.57144000E-09	 0.00000000E+00	-3.31075000E-07
					-3.57144000E-09	 7.14285000E-09	-3.31075000E-07
					-7.14282000E-09	 0.00000000E+00	-3.07265000E-07
					-7.14285000E-09	 3.57144000E-09	-3.31075000E-07
					-7.14284000E-09	 7.14284000E-09	-3.07266000E-07
					-7.14285000E-09	 0.00000000E+00	-3.78694000E-07
					-7.14286000E-09	 7.14286000E-09	-3.78694000E-07
					-3.57143000E-09	 0.00000000E+00	-3.78694000E-07
					-3.57142000E-09	 7.14286000E-09	-3.78694000E-07
					-7.14287000E-09	 0.00000000E+00	-3.54885000E-07
					-7.14286000E-09	 3.57142000E-09	-3.78694000E-07
					-7.14286000E-09	 7.14286000E-09	-3.54885000E-07
					-7.14286000E-09	 0.00000000E+00	-4.26313000E-07
					-7.14286000E-09	 7.14286000E-09	-4.26313000E-07
					-3.57143000E-09	 0.00000000E+00	-4.26313000E-07
					-3.57143000E-09	 7.14286000E-09	-4.26313000E-07
					-7.14285000E-09	 0.00000000E+00	-4.02504000E-07
					-7.14286000E-09	 3.57143000E-09	-4.26313000E-07
					-7.14286000E-09	 7.14286000E-09	-4.02504000E-07
					-7.14286000E-09	 0.00000000E+00	-4.73932000E-07
					-7.14286000E-09	 7.14286000E-09	-4.73932000E-07
					-3.57143000E-09	 0.00000000E+00	-4.73932000E-07
					-3.57143000E-09	 7.14286000E-09	-4.73932000E-07
					-7.14286000E-09	 0.00000000E+00	-4.50123000E-07
					-7.14286000E-09	 3.57143000E-09	-4.73932000E-07
					-7.14286000E-09	 7.14286000E-09	-4.50123000E-07
					 0.00000000E+00	 0.00000000E+00	 0.00000000E+00
					 6.84802000E-09	-6.84802000E-09	-4.53697000E-08
					 0.00000000E+00	 0.00000000E+00	 0.00000000E+00
					 0.00000000E+00	-7.07157000E-09	-4.55758000E-08
					 0.00000000E+00	 0.00000000E+00	 0.00000000E+00
					 7.05511000E-09	-7.05511000E-09	-2.25330000E-08
					 6.94550000E-09	-3.44221000E-09	-4.53548000E-08
					 0.00000000E+00	 0.00000000E+00	 0.00000000E+00
					 3.44221000E-09	-6.94550000E-09	-4.53548000E-08
					 0.00000000E+00	 0.00000000E+00	 0.00000000E+00
					 0.00000000E+00	-7.06424000E-09	-2.13085000E-08
					 0.00000000E+00	-3.53116000E-09	-4.55688000E-08
					 7.12314000E-09	-7.12314000E-09	-9.29287000E-08
					 0.00000000E+00	-7.15612000E-09	-9.29602000E-08
					 7.15712000E-09	-7.15712000E-09	-6.92166000E-08
					 7.14580000E-09	-3.55227000E-09	-9.29680000E-08
					 3.55227000E-09	-7.14580000E-09	-9.29680000E-08
					 0.00000000E+00	-7.12783000E-09	-6.92187000E-08
					 0.00000000E+00	-3.57489000E-09	-9.29829000E-08
					 7.14135000E-09	-7.14135000E-09	-1.40609000E-07
					 0.00000000E+00	-7.14575000E-09	-1.40607000E-07
					 7.13939000E-09	-7.13939000E-09	-1.16784000E-07
					 7.14134000E-09	-3.57303000E-09	-1.40602000E-07
					 3.57303000E-09	-7.14134000E-09	-1.40602000E-07
					 0.00000000E+00	-7.13613000E-09	-1.16776000E-07
					 0.00000000E+00	-3.57348000E-09	-1.40598000E-07
					 7.14258000E-09	-7.14258000E-09	-1.88215000E-07
					 0.00000000E+00	-7.14243000E-09	-1.88216000E-07
					 7.14414000E-09	-7.14414000E-09	-1.64410000E-07
					 7.14320000E-09	-3.57064000E-09	-1.88217000E-07
					 3.57064000E-09	-7.14320000E-09	-1.88217000E-07
					 0.00000000E+00	-7.14435000E-09	-1.64411000E-07
					 0.00000000E+00	-3.57110000E-09	-1.88218000E-07
					 7.14290000E-09	-7.14290000E-09	-2.35838000E-07
					 0.00000000E+00	-7.14303000E-09	-2.35837000E-07
					 7.14255000E-09	-7.14255000E-09	-2.12027000E-07
					 7.14275000E-09	-3.57163000E-09	-2.35837000E-07
					 3.57163000E-09	-7.14275000E-09	-2.35837000E-07
					 0.00000000E+00	-7.14243000E-09	-2.12027000E-07
					 0.00000000E+00	-3.57154000E-09	-2.35837000E-07
					 7.14284000E-09	-7.14284000E-09	-2.83456000E-07
					 0.00000000E+00	-7.14280000E-09	-2.83456000E-07
					 7.14294000E-09	-7.14294000E-09	-2.59647000E-07
					 7.14288000E-09	-3.57137000E-09	-2.83456000E-07
					 3.57137000E-09	-7.14288000E-09	-2.83456000E-07
					 0.00000000E+00	-7.14298000E-09	-2.59647000E-07
					 0.00000000E+00	-3.57140000E-09	-2.83456000E-07
					 7.14286000E-09	-7.14286000E-09	-3.31075000E-07
					 0.00000000E+00	-7.14287000E-09	-3.31075000E-07
					 7.14284000E-09	-7.14284000E-09	-3.07266000E-07
					 7.14285000E-09	-3.57144000E-09	-3.31075000E-07
					 3.57144000E-09	-7.14285000E-09	-3.31075000E-07
					 0.00000000E+00	-7.14282000E-09	-3.07265000E-07
					 0.00000000E+00	-3.57144000E-09	-3.31075000E-07
					 7.14286000E-09	-7.14286000E-09	-3.78694000E-07
					 0.00000000E+00	-7.14285000E-09	-3.78694000E-07
					 7.14286000E-09	-7.14286000E-09	-3.54885000E-07
					 7.14286000E-09	-3.57142000E-09	-3.78694000E-07
					 3.57142000E-09	-7.14286000E-09	-3.78694000E-07
					 0.00000000E+00	-7.14287000E-09	-3.54885000E-07
					 0.00000000E+00	-3.57143000E-09	-3.78694000E-07
					 7.14286000E-09	-7.14286000E-09	-4.26313000E-07
					 0.00000000E+00	-7.14286000E-09	-4.26313000E-07
					 7.14286000E-09	-7.14286000E-09	-4.02504000E-07
					 7.14286000E-09	-3.57143000E-09	-4.26313000E-07
					 3.57143000E-09	-7.14286000E-09	-4.26313000E-07
					 0.00000000E+00	-7.14285000E-09	-4.02504000E-07
					 0.00000000E+00	-3.57143000E-09	-4.26313000E-07
					 7.14286000E-09	-7.14286000E-09	-4.73932000E-07
					 0.00000000E+00	-7.14286000E-09	-4.73932000E-07
					 7.14286000E-09	-7.14286000E-09	-4.50123000E-07
					 7.14286000E-09	-3.57143000E-09	-4.73932000E-07
					 3.57143000E-09	-7.14286000E-09	-4.73932000E-07
					 0.00000000E+00	-7.14286000E-09	-4.50123000E-07
					 0.00000000E+00	-3.57143000E-09	-4.73932000E-07
					 0.00000000E+00	 0.00000000E+00	 0.00000000E+00
					-6.84802000E-09	-6.84802000E-09	-4.53697000E-08
					 0.00000000E+00	 0.00000000E+00	 0.00000000E+00
					-3.44221000E-09	-6.94550000E-09	-4.53548000E-08
					 0.00000000E+00	 0.00000000E+00	 0.00000000E+00
					-7.05511000E-09	-7.05511000E-09	-2.25330000E-08
					-6.94550000E-09	-3.44221000E-09	-4.53548000E-08
					-7.12314000E-09	-7.12314000E-09	-9.29287000E-08
					-3.55227000E-09	-7.14580000E-09	-9.29680000E-08
					-7.15712000E-09	-7.15712000E-09	-6.92166000E-08
					-7.14580000E-09	-3.55227000E-09	-9.29680000E-08
					-7.14135000E-09	-7.14135000E-09	-1.40609000E-07
					-3.57303000E-09	-7.14134000E-09	-1.40602000E-07
					-7.13939000E-09	-7.13939000E-09	-1.16784000E-07
					-7.14134000E-09	-3.57303000E-09	-1.40602000E-07
					-7.14258000E-09	-7.14258000E-09	-1.88215000E-07
					-3.57064000E-09	-7.14320000E-09	-1.88217000E-07
					-7.14414000E-09	-7.14414000E-09	-1.64410000E-07
					-7.14320000E-09	-3.57064000E-09	-1.88217000E-07
					-7.14290000E-09	-7.14290000E-09	-2.35838000E-07
					-3.57163000E-09	-7.14275000E-09	-2.35837000E-07
					-7.14255000E-09	-7.14255000E-09	-2.12027000E-07
					-7.14275000E-09	-3.57163000E-09	-2.35837000E-07
					-7.14284000E-09	-7.14284000E-09	-2.83456000E-07
					-3.57137000E-09	-7.14288000E-09	-2.83456000E-07
					-7.14294000E-09	-7.14294000E-09	-2.59647000E-07
					-7.14288000E-09	-3.57137000E-09	-2.83456000E-07
					-7.14286000E-09	-7.14286000E-09	-3.31075000E-07
					-3.57144000E-09	-7.14285000E-09	-3.31075000E-07
					-7.14284000E-09	-7.14284000E-09	-3.07266000E-07
					-7.14285000E-09	-3.57144000E-09	-3.31075000E-07
					-7.14286000E-09	-7.14286000E-09	-3.78694000E-07
					-3.57142000E-09	-7.14286000E-09	-3.78694000E-07
					-7.14286000E-09	-7.14286000E-09	-3.54885000E-07
					-7.14286000E-09	-3.57142000E-09	-3.78694000E-07
					-7.14286000E-09	-7.14286000E-09	-4.26313000E-07
					-3.57143000E-09	-7.14286000E-09	-4.26313000E-07
					-7.14286000E-09	-7.14286000E-09	-4.02504000E-07
					-7.14286000E-09	-3.57143000E-09	-4.26313000E-07
					-7.14286000E-09	-7.14286000E-09	-4.73932000E-07
					-3.57143000E-09	-7.14286000E-09	-4.73932000E-07
					-7.14286000E-09	-7.14286000E-09	-4.50123000E-07
					-7.14286000E-09	-3.57143000E-09	-4.73932000E-07
				</DataArray>
				<DataArray type="Float32" Name="S" NumberOfComponents="10" ComponentName0="xx" ComponentName1="yy" ComponentName2="zz" ComponentName3="xy" ComponentName4="yz" ComponentName5="zx" ComponentName6="Mises" ComponentName7="Min Principal" ComponentName8="Mid Principal" ComponentName9="Max Principal" format="ascii">
					-5.42309000E+05	-5.42309000E+05	-1.26535000E+06	 4.34524000E-02	 1.72624000E+05	 1.72624000E+05	 8.37605253E+05	-1.34005783E+06	-5.42309043E+05	-4.67601122E+05
					-4.80472000E+05	-4.80472000E+05	-1.12107000E+06	 0.00000000E+00	 2.47827000E-08	 1.71113000E+05	 7.05836223E+05	-1.16391162E+06	-4.80472000E+05	-4.37630382E+05
					-2.92162000E+04	-3.46842000E+04	-1.05528000E+06	 3.53680000E-09	 2.56387000E-09	-3.18720000E+04	 1.02482866E+06	-1.05626907E+06	-3.46842000E+04	-2.82271327E+04
					-2.10120000E+04	-2.10120000E+04	-9.97527000E+05	-5.37522000E+03	-3.14077000E+04	-3.14077000E+04	 9.79585058E+05	-9.99554285E+05	-2.43599347E+04	-1.56367800E+04
					-4.80472000E+05	-4.80472000E+05	-1.12107000E+06	 0.00000000E+00	 1.71113000E+05	-1.65082000E-08	 7.05836223E+05	-1.16391162E+06	-4.80472000E+05	-4.37630382E+05
					-4.16865000E+05	-4.16865000E+05	-9.72652000E+05	 0.00000000E+00	 0.00000000E+00	 0.00000000E+00	 5.55787000E+05	-9.72652000E+05	-4.16865000E+05	-4.16865000E+05
					-5.91481000E+04	-5.91481000E+04	-1.12541000E+06	 0.00000000E+00	-8.55198000E-09	 5.12227000E-09	 1.06626190E+06	-1.12541000E+06	-5.91481000E+04	-5.91481000E+04
					-3.46842000E+04	-2.92162000E+04	-1.05528000E+06	-1.51135000E-09	-3.18720000E+04	-7.82893000E-09	 1.02482866E+06	-1.05626907E+06	-3.46842000E+04	-2.82271327E+04
					-5.09971000E+05	-5.09971000E+05	-1.18997000E+06	-1.65482000E-02	 8.64597000E+04	 1.71754000E+05	 7.57180816E+05	-1.24057820E+06	-5.09970987E+05	-4.59362811E+05
					 1.95856000E+04	 2.01678000E+04	-9.45213000E+05	-5.93639000E-09	 1.15260000E-08	 3.30296000E+04	 9.66783971E+05	-9.46342437E+05	 2.01678000E+04	 2.07150366E+04
					-2.60694000E+04	-2.83416000E+04	-1.02717000E+06	-4.58635000E+03	-1.02671000E+04	-3.15954000E+04	 1.00165215E+06	-1.02827449E+06	-3.11971076E+04	-2.21094067E+04
					 1.72228000E+04	 1.72228000E+04	-9.42477000E+05	 6.28515000E+02	 3.17232000E+04	 3.17232000E+04	 9.62841139E+05	-9.44568315E+05	 1.65942850E+04	 1.99426302E+04
					-5.09971000E+05	-5.09971000E+05	-1.18997000E+06	-1.65482000E-02	 1.71754000E+05	 8.64597000E+04	 7.57180816E+05	-1.24057820E+06	-5.09970987E+05	-4.59362811E+05
					-4.47263000E+05	-4.47263000E+05	-1.04365000E+06	 0.00000000E+00	 1.07074000E-08	 8.55201000E+04	 6.14506726E+05	-1.05567102E+06	-4.47263000E+05	-4.35241976E+05
					-4.46804000E+04	-4.78761000E+04	-1.09112000E+06	 0.00000000E+00	-4.68708000E-09	-1.04046000E+04	 1.04500082E+06	-1.09122344E+06	-4.78761000E+04	-4.45769588E+04