<?xml version="1.0"?>
<VTKFile type="UnstructuredGrid" version="0.1" byte_order="LittleEndian">
	<UnstructuredGrid>
		<Piece NumberOfPoints="1221" NumberOfCells="160">
			<Points>
				<DataArray type="Float64" NumberOfComponents="3" format="ascii">
					 1.00000000E-02	 1.00000000E-02	 0.00000000E+00
					 1.00000000E-02	 5.00000000E-03	 0.00000000E+00
					 1.00000000E-02	 5.00000000E-03	 5.00000000E-03
					 1.00000000E-02	 1.00000000E-02	 5.00000000E-03
					 5.00000000E-03	 1.00000000E-02	 0.00000000E+00
					 5.00000000E-03	 5.00000000E-03	 0.00000000E+00
					 5.00000000E-03	 5.00000000E-03	 5.00000000E-03
					 5.00000000E-03	 1.00000000E-02	 5.00000000E-03
					 1.00000000E-02	 7.50000000E-03	 0.00000000E+00
					 1.00000000E-02	 5.00000000E-03	 2.50000000E-03
					 1.00000000E-02	 7.50000000E-03	 5.00000000E-03
					 1.00000000E-02	 1.00000000E-02	 2.50000000E-03
					 7.50000000E-03	 1.00000000E-02	 0.00000000E+00
					 7.50000000E-03	 5.00000000E-03	 0.00000000E+00
					 7.50000000E-03	 5.00000000E-03	 5.00000000E-03
					 7.50000000E-03	 1.00000000E-02	 5.00000000E-03
					 5.00000000E-03	 7.50000000E-03	 0.00000000E+00
					 5.00000000E-03	 5.00000000E-03	 2.50000000E-03
					 5.00000000E-03	 7.50000000E-03	 5.00000000E-03
					 5.00000000E-03	 1.00000000E-02	 2.50000000E-03
					 1.00000000E-02	 5.00000000E-03	 1.00000000E-02
					 1.00000000E-02	 1.00000000E-02	 1.00000000E-02
					 5.00000000E-03	 5.00000000E-03	 1.00000000E-02
					 5.00000000E-03	 1.00000000E-02	 1.00000000E-02
					 1.00000000E-02	 5.00000000E-03	 7.50000000E-03
					 1.00000000E-02	 7.50000000E-03	 1.00000000E-02
					 1.00000000E-02	 1.00000000E-02	 7.50000000E-03
					 7.50000000E-03	 5.00000000E-03	 1.00000000E-02
					 7.50000000E-03	 1.00000000E-02	 1.00000000E-02
					 5.00000000E-03	 5.00000000E-03	 7.50000000E-03
					 5.00000000E-03	 7.50000000E-03	 1.00000000E-02
					 5.00000000E-03	 1.00000000E-02	 7.50000000E-03
					 1.00000000E-02	 5.00000000E-03	 1.50000000E-02
					 1.00000000E-02	 1.00000000E-02	 1.50000000E-02
					 5.00000000E-03	 5.00000000E-03	 1.50000000E-02
					 5.00000000E-03	 1.00000000E-02	 1.50000000E-02
					 1.00000000E-02	 5.00000000E-03	 1.25000000E-02
					 1.00000000E-02	 7.50000000E-03	 1.50000000E-02
					 1.00000000E-02	 1.00000000E-02	 1.25000000E-02
					 7.50000000E-03	 5.00000000E-03	 1.50000000E-02
					 7.50000000E-03	 1.00000000E-02	 1.50000000E-02
					 5.00000000E-03	 5.00000000E-03	 1.25000000E-02
					 5.00000000E-03	 7.50000000E-03	 1.50000000E-02
					 5.00000000E-03	 1.00000000E-02	 1.25000000E-02
					 1.00000000E-02	 5.00000000E-03	 2.00000000E-02
					 1.00000000E-02	 1.00000000E-02	 2.00000000E-02
					 5.00000000E-03	 5.00000000E-03	 2.00000000E-02
					 5.00000000E-03	 1.00000000E-02	 2.00000000E-02
					 1.00000000E-02	 5.00000000E-03	 1.75000000E-02
					 1.00000000E-02	 7.50000000E-03	 2.00000000E-02
					 1.00000000E-02	 1.00000000E-02	 1.75000000E-02
					 7.50000000E-03	 5.00000000E-03	 2.00000000E-02
					 7.50000000E-03	 1.00000000E-02	 2.00000000E-02
					 5.00000000E-03	 5.00000000E-03	 1.75000000E-02
					 5.00000000E-03	 7.50000000E-03	 2.00000000E-02
					 5.00000000E-03	 1.00000000E-02	 1.75000000E-02
					 1.00000000E-02	 5.00000000E-03	 2.50000000E-02
					 1.00000000E-02	 1.00000000E-02	 2.50000000E-02
					 5.00000000E-03	 5.00000000E-03	 2.50000000E-02
					 5.00000000E-03	 1.00000000E-02	 2.50000000E-02
					 1.00000000E-02	 5.00000000E-03	 2.25000000E-02
					 1.00000000E-02	 7.50000000E-03	 2.50000000E-02
					 1.00000000E-02	 1.00000000E-02	 2.25000000E-02
					 7.50000000E-03	 5.00000000E-03	 2.50000000E-02
					 7.50000000E-03	 1.00000000E-02	 2.50000000E-02
					 5.00000000E-03	 5.00000000E-03	 2.25000000E-02
					 5.00000000E-03	 7.50000000E-03	 2.50000000E-02
					 5.00000000E-03	 1.00000000E-02	 2.25000000E-02
					 1.00000000E-02	 5.00000000E-03	 3.00000000E-02
					 1.00000000E-02	 1.00000000E-02	 3.00000000E-02
					 5.00000000E-03	 5.00000000E-03	 3.00000000E-02
					 5.00000000E-03	 1.00000000E-02	 3.00000000E-02
					 1.00000000E-02	 5.00000000E-03	 2.75000000E-02
					 1.00000000E-02	 7.50000000E-03	 3.00000000E-02
					 1.00000000E-02	 1.00000000E-02	 2.75000000E-02
					 7.50000000E-03	 5.00000000E-03	 3.00000000E-02
					 7.50000000E-03	 1.00000000E-02	 3.00000000E-02
					 5.00000000E-03	 5.00000000E-03	 2.75000000E-02
					 5.00000000E-03	 7.50000000E-03	 3.00000000E-02
					 5.00000000E-03	 1.00000000E-02	 2.75000000E-02
					 1.00000000E-02	 5.00000000E-03	 3.50000000E-02
					 1.00000000E-02	 1.00000000E-02	 3.50000000E-02
					 5.00000000E-03	 5.00000000E-03	 3.50000000E-02
					 5.00000000E-03	 1.00000000E-02	 3.50000000E-02
					 1.00000000E-02	 5.00000000E-03	 3.25000000E-02
					 1.00000000E-02	 7.50000000E-03	 3.50000000E-02
					 1.00000000E-02	 1.00000000E-02	 3.25000000E-02
					 7.50000000E-03	 5.00000000E-03	 3.50000000E-02
					 7.50000000E-03	 1.00000000E-02	 3.50000000E-02
					 5.00000000E-03	 5.00000000E-03	 3.25000000E-02
					 5.00000000E-03	 7.50000000E-03	 3.50000000E-02
					 5.00000000E-03	 1.00000000E-02	 3.25000000E-02
					 1.00000000E-02	 5.00000000E-03	 4.00000000E-02
					 1.00000000E-02	 1.00000000E-02	 4.00000000E-02
					 5.00000000E-03	 5.00000000E-03	 4.00000000E-02
					 5.00000000E-03	 1.00000000E-02	 4.00000000E-02
					 1.00000000E-02	 5.00000000E-03	 3.75000000E-02
					 1.00000000E-02	 7.50000000E-03	 4.00000000E-02
					 1.00000000E-02	 1.00000000E-02	 3.75000000E-02
					 7.50000000E-03	 5.00000000E-03	 4.00000000E-02
					 7.50000000E-03	 1.00000000E-02	 4.00000000E-02
					 5.00000000E-03	 5.00000000E-03	 3.75000000E-02
					 5.00000000E-03	 7.50000000E-03	 4.00000000E-02
					 5.00000000E-03	 1.00000000E-02	 3.75000000E-02
					 1.00000000E-02	 5.00000000E-03	 4.50000000E-02
					 1.00000000E-02	 1.00000000E-02	 4.50000000E-02
					 5.00000000E-03	 5.00000000E-03	 4.50000000E-02
					 5.00000000E-03	 1.00000000E-02	 4.50000000E-02
					 1.00000000E-02	 5.00000000E-03	 4.25000000E-02
					 1.00000000E-02	 7.50000000E-03	 4.50000000E-02
					 1.00000000E-02	 1.00000000E-02	 4.25000000E-02
					 7.50000000E-03	 5.00000000E-03	 4.50000000E-02
					 7.50000000E-03	 1.00000000E-02	 4.50000000E-02
					 5.00000000E-03	 5.00000000E-03	 4.25000000E-02
					 5.00000000E-03	 7.50000000E-03	 4.50000000E-02
					 5.00000000E-03	 1.00000000E-02	 4.25000000E-02
					 1.00000000E-02	 5.00000000E-03	 5.00000000E-02
					 1.00000000E-02	 1.00000000E-02	 5.00000000E-02
					 5.00000000E-03	 5.00000000E-03	 5.00000000E-02
					 5.00000000E-03	 1.00000000E-02	 5.00000000E-02
					 1.00000000E-02	 5.00000000E-03	 4.75000000E-02
					 1.00000000E-02	 7.50000000E-03	 5.00000000E-02
					 1.00000000E-02	 1.00000000E-02	 4.75000000E-02
					 7.50000000E-03	 5.00000000E-03	 5.00000000E-02
					 7.50000000E-03	 1.00000000E-02	 5.00000000E-02
					 5.00000000E-03	 5.00000000E-03	 4.75000000E-02
					 5.00000000E-03	 7.50000000E-03	 5.00000000E-02
					 5.00000000E-03	 1.00000000E-02	 4.75000000E-02
					 1.00000000E-02	 5.00000000E-03	 5.50000000E-02
					 1.00000000E-02	 1.00000000E-02	 5.50000000E-02
					 5.00000000E-03	 5.00000000E-03	 5.50000000E-02
					 5.00000000E-03	 1.00000000E-02	 5.50000000E-02
					 1.00000000E-02	 5.00000000E-03	 5.25000000E-02
					 1.00000000E-02	 7.50000000E-03	 5.50000000E-02
					 1.00000000E-02	 1.00000000E-02	 5.25000000E-02
					 7.50000000E-03	 5.00000000E-03	 5.50000000E-02
					 7.50000000E-03	 1.00000000E-02	 5.50000000E-02
					 5.00000000E-03	 5.00000000E-03	 5.25000000E-02
					 5.00000000E-03	 7.50000000E-03	 5.50000000E-02
					 5.00000000E-03	 1.00000000E-02	 5.25000000E-02
					 1.00000000E-02	 5.00000000E-03	 6.00000000E-02
					 1.00000000E-02	 1.00000000E-02	 6.00000000E-02
					 5.00000000E-03	 5.00000000E-03	 6.00000000E-02
					 5.00000000E-03	 1.00000000E-02	 6.00000000E-02
					 1.00000000E-02	 5.00000000E-03	 5.75000000E-02
					 1.00000000E-02	 7.50000000E-03	 6.00000000E-02
					 1.00000000E-02	 1.00000000E-02	 5.75000000E-02
					 7.50000000E-03	 5.00000000E-03	 6.00000000E-02
					 7.50000000E-03	 1.00000000E-02	 6.00000000E-02
					 5.00000000E-03	 5.00000000E-03	 5.75000000E-02
					 5.00000000E-03	 7.50000000E-03	 6.00000000E-02
					 5.00000000E-03	 1.00000000E-02	 5.75000000E-02
					 1.00000000E-02	 5.00000000E-03	 6.50000000E-02
					 1.00000000E-02	 1.00000000E-02	 6.50000000E-02
					 5.00000000E-03	 5.00000000E-03	 6.50000000E-02
					 5.00000000E-03	 1.00000000E-02	 6.50000000E-02
					 1.00000000E-02	 5.00000000E-03	 6.25000000E-02
					 1.00000000E-02	 7.50000000E-03	 6.50000000E-02
					 1.00000000E-02	 1.00000000E-02	 6.25000000E-02
					 7.50000000E-03	 5.00000000E-03	 6.50000000E-02
					 7.50000000E-03	 1.00000000E-02	 6.50000000E-02
					 5.00000000E-03	 5.00000000E-03	 6.25000000E-02
					 5.00000000E-03	 7.50000000E-03	 6.50000000E-02
					 5.00000000E-03	 1.00000000E-02	 6.25000000E-02
					 1.00000000E-02	 5.00000000E-03	 7.00000000E-02
					 1.00000000E-02	 1.00000000E-02	 7.00000000E-02
					 5.00000000E-03	 5.00000000E-03	 7.00000000E-02
					 5.00000000E-03	 1.00000000E-02	 7.00000000E-02
					 1.00000000E-02	 5.00000000E-03	 6.75000000E-02
					 1.00000000E-02	 7.50000000E-03	 7.00000000E-02
					 1.00000000E-02	 1.00000000E-02	 6.75000000E-02
					 7.50000000E-03	 5.00000000E-03	 7.00000000E-02
					 7.50000000E-03	 1.00000000E-02	 7.00000000E-02
					 5.00000000E-03	 5.00000000E-03	 6.75000000E-02
					 5.00000000E-03	 7.50000000E-03	 7.00000000E-02
					 5.00000000E-03	 1.00000000E-02	 6.75000000E-02
					 1.00000000E-02	 5.00000000E-03	 7.50000000E-02
					 1.00000000E-02	 1.00000000E-02	 7.50000000E-02
					 5.00000000E-03	 5.00000000E-03	 7.50000000E-02
					 5.00000000E-03	 1.00000000E-02	 7.50000000E-02
					 1.00000000E-02	 5.00000000E-03	 7.25000000E-02
					 1.00000000E-02	 7.50000000E-03	 7.50000000E-02
					 1.00000000E-02	 1.00000000E-02	 7.25000000E-02
[...]
			<PointData>
				<DataArray type="Float32" Name="U" NumberOfComponents="3" ComponentName0="D1" ComponentName1="D2" ComponentName2="D3" format="ascii">
					 0.00000000E+00	 0.00000000E+00	 0.00000000E+00
					 0.00000000E+00	 0.00000000E+00	 0.00000000E+00
					-4.25618000E-02	 0.00000000E+00	 1.32475000E-01
					-4.01881000E-02	-4.01881000E-02	 1.36289000E-01
					 0.00000000E+00	 0.00000000E+00	 0.00000000E+00
					 0.00000000E+00	 0.00000000E+00	 0.00000000E+00
					 0.00000000E+00	 0.00000000E+00	 1.28304000E-01
					 0.00000000E+00	-4.25618000E-02	 1.32475000E-01
					 0.00000000E+00	 0.00000000E+00	 0.00000000E+00
					-3.38984000E-02	 0.00000000E+00	 6.18787000E-02
					-4.11609000E-02	-1.95625000E-02	 1.32335000E-01
					-3.38503000E-02	-3.38503000E-02	 6.93316000E-02
					 0.00000000E+00	 0.00000000E+00	 0.00000000E+00
					 0.00000000E+00	 0.00000000E+00	 0.00000000E+00
					-2.03805000E-02	 0.00000000E+00	 1.28239000E-01
					-1.95625000E-02	-4.11609000E-02	 1.32335000E-01
					 0.00000000E+00	 0.00000000E+00	 0.00000000E+00
					 0.00000000E+00	 0.00000000E+00	 5.40470000E-02
					 0.00000000E+00	-2.03805000E-02	 1.28239000E-01
					 0.00000000E+00	-3.38984000E-02	 6.18787000E-02
					-4.22209000E-02	 0.00000000E+00	 2.69603000E-01
					-4.21927000E-02	-4.21927000E-02	 2.70545000E-01
					 0.00000000E+00	 0.00000000E+00	 2.68773000E-01
					 0.00000000E+00	-4.22209000E-02	 2.69603000E-01
					-4.30172000E-02	 0.00000000E+00	 2.00877000E-01
					-4.22904000E-02	-2.14626000E-02	 2.70317000E-01
					-4.21454000E-02	-4.21454000E-02	 2.03297000E-01
					-2.15033000E-02	 0.00000000E+00	 2.69581000E-01
					-2.14626000E-02	-4.22904000E-02	 2.70317000E-01
					 0.00000000E+00	 0.00000000E+00	 1.98658000E-01
					 0.00000000E+00	-2.15033000E-02	 2.69581000E-01
					 0.00000000E+00	-4.30172000E-02	 2.00877000E-01
					-4.19702000E-02	 0.00000000E+00	 4.10056000E-01
					-4.19638000E-02	-4.19638000E-02	 4.09835000E-01
					 0.00000000E+00	 0.00000000E+00	 4.10264000E-01
					 0.00000000E+00	-4.19702000E-02	 4.10056000E-01
					-4.20163000E-02	 0.00000000E+00	 3.39911000E-01
					-4.19375000E-02	-2.09374000E-02	 4.09957000E-01
					-4.20977000E-02	-4.20977000E-02	 3.39902000E-01
					-2.09371000E-02	 0.00000000E+00	 4.10143000E-01
					-2.09374000E-02	-4.19375000E-02	 4.09957000E-01
					 0.00000000E+00	 0.00000000E+00	 3.39974000E-01
					 0.00000000E+00	-2.09371000E-02	 4.10143000E-01
					 0.00000000E+00	-4.20163000E-02	 3.39911000E-01
					-4.16624000E-02	 0.00000000E+00	 5.49279000E-01
					-4.16694000E-02	-4.16694000E-02	 5.49166000E-01
					 0.00000000E+00	 0.00000000E+00	 5.49397000E-01
					 0.00000000E+00	-4.16624000E-02	 5.49279000E-01
					-4.18111000E-02	 0.00000000E+00	 4.79766000E-01
					-4.16746000E-02	-2.08479000E-02	 5.49257000E-01
					-4.17965000E-02	-4.17965000E-02	 4.79637000E-01
					-2.08454000E-02	 0.00000000E+00	 5.49377000E-01
					-2.08479000E-02	-4.16746000E-02	 5.49257000E-01
					 0.00000000E+00	 0.00000000E+00	 4.79892000E-01
					 0.00000000E+00	-2.08454000E-02	 5.49377000E-01
					 0.00000000E+00	-4.18111000E-02	 4.79766000E-01
					-4.13914000E-02	 0.00000000E+00	 6.87699000E-01
					-4.13918000E-02	-4.13918000E-02	 6.87535000E-01
					 0.00000000E+00	 0.00000000E+00	 6.87861000E-01
					 0.00000000E+00	-4.13914000E-02	 6.87699000E-01
					-4.15343000E-02	 0.00000000E+00	 6.18608000E-01
					-4.13902000E-02	-2.06986000E-02	 6.87656000E-01
					-4.15399000E-02	-4.15399000E-02	 6.18463000E-01
					-2.06986000E-02	 0.00000000E+00	 6.87819000E-01
					-2.06986000E-02	-4.13902000E-02	 6.87656000E-01
					 0.00000000E+00	 0.00000000E+00	 6.18753000E-01
					 0.00000000E+00	-2.06986000E-02	 6.87819000E-01
					 0.00000000E+00	-4.15343000E-02	 6.18608000E-01
					-4.10368000E-02	 0.00000000E+00	 8.25045000E-01
					-4.10383000E-02	-4.10383000E-02	 8.24854000E-01
					 0.00000000E+00	 0.00000000E+00	 8.25236000E-01
					 0.00000000E+00	-4.10368000E-02	 8.25045000E-01
					-4.12204000E-02	 0.00000000E+00	 7.56518000E-01
					-4.10386000E-02	-2.05241000E-02	 8.24997000E-01
					-4.12208000E-02	-4.12208000E-02	 7.56342000E-01
					-2.05236000E-02	 0.00000000E+00	 8.25188000E-01
					-2.05241000E-02	-4.10386000E-02	 8.24997000E-01
					 0.00000000E+00	 0.00000000E+00	 7.56694000E-01
					 0.00000000E+00	-2.05236000E-02	 8.25188000E-01
					 0.00000000E+00	-4.12204000E-02	 7.56518000E-01
					-4.06227000E-02	 0.00000000E+00	 9.61115000E-01
					-4.06239000E-02	-4.06239000E-02	 9.60892000E-01
					 0.00000000E+00	 0.00000000E+00	 9.61338000E-01
					 0.00000000E+00	-4.06227000E-02	 9.61115000E-01
					-4.08361000E-02	 0.00000000E+00	 8.93253000E-01
					-4.06237000E-02	-2.03164000E-02	 9.61059000E-01
					-4.08376000E-02	-4.08376000E-02	 8.93045000E-01
					-2.03161000E-02	 0.00000000E+00	 9.61283000E-01
					-2.03164000E-02	-4.06237000E-02	 9.61059000E-01
					 0.00000000E+00	 0.00000000E+00	 8.93460000E-01
					 0.00000000E+00	-2.03161000E-02	 9.61283000E-01
					 0.00000000E+00	-4.08361000E-02	 8.93253000E-01
					-4.01447000E-02	 0.00000000E+00	 1.09570000E+00
					-4.01459000E-02	-4.01459000E-02	 1.09544000E+00
					 0.00000000E+00	 0.00000000E+00	 1.09595000E+00
					 0.00000000E+00	-4.01447000E-02	 1.09570000E+00
					-4.03899000E-02	 0.00000000E+00	 1.02861000E+00
					-4.01459000E-02	-2.00775000E-02	 1.09563000E+00
					-4.03911000E-02	-4.03911000E-02	 1.02837000E+00
					-2.00771000E-02	 0.00000000E+00	 1.09589000E+00
					-2.00775000E-02	-4.01459000E-02	 1.09563000E+00
					 0.00000000E+00	 0.00000000E+00	 1.02884000E+00
					 0.00000000E+00	-2.00771000E-02	 1.09589000E+00
					 0.00000000E+00	-4.03899000E-02	 1.02861000E+00
					-3.96047000E-02	 0.00000000E+00	 1.22858000E+00
					-3.96060000E-02	-3.96060000E-02	 1.22830000E+00
					 0.00000000E+00	 0.00000000E+00	 1.22887000E+00
					 0.00000000E+00	-3.96047000E-02	 1.22858000E+00
					-3.98809000E-02	 0.00000000E+00	 1.16237000E+00
					-3.96059000E-02	-1.98074000E-02	 1.22851000E+00
					-3.98821000E-02	-3.98821000E-02	 1.16210000E+00
					-1.98071000E-02	 0.00000000E+00	 1.22880000E+00
					-1.98074000E-02	-3.96059000E-02	 1.22851000E+00
					 0.00000000E+00	 0.00000000E+00	 1.16264000E+00
					 0.00000000E+00	-1.98071000E-02	 1.22880000E+00
					 0.00000000E+00	-3.98809000E-02	 1.16237000E+00
					-3.90035000E-02	 0.00000000E+00	 1.35957000E+00
					-3.90047000E-02	-3.90047000E-02	 1.35925000E+00
					 0.00000000E+00	 0.00000000E+00	 1.35989000E+00
					 0.00000000E+00	-3.90035000E-02	 1.35957000E+00
					-3.93102000E-02	 0.00000000E+00	 1.29433000E+00
					-3.90046000E-02	-1.95067000E-02	 1.35949000E+00
					-3.93114000E-02	-3.93114000E-02	 1.29403000E+00
					-1.95063000E-02	 0.00000000E+00	 1.35981000E+00
					-1.95067000E-02	-3.90046000E-02	 1.35949000E+00
					 0.00000000E+00	 0.00000000E+00	 1.29463000E+00
					 0.00000000E+00	-1.95063000E-02	 1.35981000E+00
					 0.00000000E+00	-3.93102000E-02	 1.29433000E+00
					-3.83418000E-02	 0.00000000E+00	 1.48845000E+00
					-3.83430000E-02	-3.83430000E-02	 1.48810000E+00
					 0.00000000E+00	 0.00000000E+00	 1.48880000E+00
					 0.00000000E+00	-3.83418000E-02	 1.48845000E+00
					-3.86786000E-02	 0.00000000E+00	 1.42429000E+00
					-3.83430000E-02	-1.91758000E-02	 1.48836000E+00
					-3.86798000E-02	-3.86798000E-02	 1.42395000E+00
					-1.91755000E-02	 0.00000000E+00	 1.48871000E+00
					-1.91758000E-02	-3.83430000E-02	 1.48836000E+00
					 0.00000000E+00	 0.00000000E+00	 1.42462000E+00
					 0.00000000E+00	-1.91755000E-02	 1.48871000E+00
					 0.00000000E+00	-3.86786000E-02	 1.42429000E+00
					-3.76209000E-02	 0.00000000E+00	 1.61503000E+00
					-3.76220000E-02	-3.76220000E-02	 1.61465000E+00
					 0.00000000E+00	 0.00000000E+00	 1.61540000E+00
					 0.00000000E+00	-3.76209000E-02	 1.61503000E+00
					-3.79872000E-02	 0.00000000E+00	 1.55204000E+00
					-3.76220000E-02	-1.88152000E-02	 1.61493000E+00
					-3.79884000E-02	-3.79884000E-02	 1.55168000E+00
					-1.88149000E-02	 0.00000000E+00	 1.61531000E+00
					-1.88152000E-02	-3.76220000E-02	 1.61493000E+00
					 0.00000000E+00	 0.00000000E+00	 1.55240000E+00
					 0.00000000E+00	-1.88149000E-02	 1.61531000E+00
					 0.00000000E+00	-3.79872000E-02	 1.55204000E+00
					-3.68416000E-02	 0.00000000E+00	 1.73910000E+00
					-3.68428000E-02	-3.68428000E-02	 1.73870000E+00
					 0.00000000E+00	 0.00000000E+00	 1.73951000E+00
					 0.00000000E+00	-3.68416000E-02	 1.73910000E+00
					-3.72370000E-02	 0.00000000E+00	 1.67739000E+00
					-3.68428000E-02	-1.84255000E-02	 1.73900000E+00
					-3.72382000E-02	-3.72382000E-02	 1.67700000E+00
					-1.84252000E-02	 0.00000000E+00	 1.73941000E+00
					-1.84255000E-02	-3.68428000E-02	 1.73900000E+00
					 0.00000000E+00	 0.00000000E+00	 1.67778000E+00
					 0.00000000E+00	-1.84252000E-02	 1.73941000E+00
					 0.00000000E+00	-3.72370000E-02	 1.67739000E+00
					-3.60054000E-02	 0.00000000E+00	 1.86049000E+00
					-3.60065000E-02	-3.60065000E-02	 1.86006000E+00
					 0.00000000E+00	 0.00000000E+00	 1.86092000E+00
					 0.00000000E+00	-3.60054000E-02	 1.86049000E+00
					-3.64292000E-02	 0.00000000E+00	 1.80015000E+00
					-3.60065000E-02	-1.80073000E-02	 1.86038000E+00
					-3.64303000E-02	-3.64303000E-02	 1.79973000E+00
					-1.80070000E-02	 0.00000000E+00	 1.86081000E+00
					-1.80073000E-02	-3.60065000E-02	 1.86038000E+00
					 0.00000000E+00	 0.00000000E+00	 1.80056000E+00
					 0.00000000E+00	-1.80070000E-02	 1.86081000E+00
					 0.00000000E+00	-3.64292000E-02	 1.80015000E+00
					-3.51135000E-02	 0.00000000E+00	 1.97900000E+00
					-3.51146000E-02	-3.51146000E-02	 1.97854000E+00
					 0.00000000E+00	 0.00000000E+00	 1.97946000E+00
					 0.00000000E+00	-3.51135000E-02	 1.97900000E+00
					-3.55649000E-02	 0.00000000E+00	 1.92011000E+00
					-3.51145000E-02	-1.75612000E-02	 1.97888000E+00
					-3.55661000E-02	-3.55661000E-02	 1.91967000E+00
					-1.75609000E-02	 0.00000000E+00	 1.97934000E+00
					-1.75612000E-02	-3.51145000E-02	 1.97888000E+00
					 0.00000000E+00	 0.00000000E+00	 1.92056000E+00
					 0.00000000E+00	-1.75609000E-02	 1.97934000E+00
					 0.00000000E+00	-3.55649000E-02	 1.92011000E+00
					-3.41671000E-02	 0.00000000E+00	 2.09444000E+00
					-3.41682000E-02	-3.41682000E-02	 2.09395000E+00
					 0.00000000E+00	 0.00000000E+00	 2.09492000E+00
					 0.00000000E+00	-3.41671000E-02	 2.09444000E+00
					-3.46457000E-02	 0.00000000E+00	 2.03711000E+00
					-3.41682000E-02	-1.70879000E-02	 2.09432000E+00
					-3.46467000E-02	-3.46467000E-02	 2.03664000E+00
					-1.70876000E-02	 0.00000000E+00	 2.09480000E+00
					-1.70879000E-02	-3.41682000E-02	 2.09432000E+00
					 0.00000000E+00	 0.00000000E+00	 2.03758000E+00
					 0.00000000E+00	-1.70876000E-02	 2.09480000E+00
					 0.00000000E+00	-3.46457000E-02	 2.03711000E+00
					-3.31680000E-02	 0.00000000E+00	 2.20664000E+00
					-3.31690000E-02	-3.31690000E-02	 2.20613000E+00
					 0.00000000E+00	 0.00000000E+00	 2.20715000E+00
					 0.00000000E+00	-3.31680000E-02	 2.20664000E+00
					-3.36728000E-02	 0.00000000E+00	 2.15095000E+00
					-3.31689000E-02	-1.65882000E-02	 2.20651000E+00
					-3.36738000E-02	-3.36738000E-02	 2.15046000E+00
					-1.65879000E-02	 0.00000000E+00	 2.20702000E+00
					-1.65882000E-02	-3.31689000E-02	 2.20651000E+00
					 0.00000000E+00	 0.00000000E+00	 2.15145000E+00
					 0.00000000E+00	-1.65879000E-02	 2.20702000E+00
					 0.00000000E+00	-3.36728000E-02	 2.15095000E+00
					-3.21174000E-02	 0.00000000E+00	 2.31542000E+00
					-3.21184000E-02	-3.21184000E-02	 2.31489000E+00
					 0.00000000E+00	 0.00000000E+00	 2.31596000E+00
					 0.00000000E+00	-3.21174000E-02	 2.31542000E+00
					-3.26477000E-02	 0.00000000E+00	 2.26147000E+00
					-3.21184000E-02	-1.60628000E-02	 2.31529000E+00
					-3.26488000E-02	-3.26488000E-02	 2.26094000E+00
					-1.60625000E-02	 0.00000000E+00	 2.31583000E+00
					-1.60628000E-02	-3.21184000E-02	 2.31529000E+00
					 0.00000000E+00	 0.00000000E+00	 2.26199000E+00
					 0.00000000E+00	-1.60625000E-02	 2.31583000E+00
					 0.00000000E+00	-3.26477000E-02	 2.26147000E+00
					-3.10172000E-02	 0.00000000E+00	 2.42063000E+00
					-3.10181000E-02	-3.10181000E-02	 2.42006000E+00
					 0.00000000E+00	 0.00000000E+00	 2.42119000E+00
					 0.00000000E+00	-3.10172000E-02	 2.42063000E+00
					-3.15722000E-02	 0.00000000E+00	 2.36848000E+00
					-3.10181000E-02	-1.55125000E-02	 2.42049000E+00
					-3.15732000E-02	-3.15732000E-02	 2.36793000E+00
					-1.55123000E-02	 0.00000000E+00	 2.42105000E+00
					-1.55125000E-02	-3.10181000E-02	 2.42049000E+00
					 0.00000000E+00	 0.00000000E+00	 2.36903000E+00
					 0.00000000E+00	-1.55123000E-02	 2.42105000E+00
					 0.00000000E+00	-3.15722000E-02	 2.36848000E+00
					-2.98689000E-02	 0.00000000E+00	 2.52208000E+00
					-2.98699000E-02	-2.98699000E-02	 2.52149000E+00
					 0.00000000E+00	 0.00000000E+00	 2.52267000E+00
					 0.00000000E+00	-2.98689000E-02	 2.52208000E+00
					-3.04478000E-02	 0.00000000E+00	 2.47183000E+00
					-2.98698000E-02	-1.49383000E-02	 2.52193000E+00
					-3.04487000E-02	-3.04487000E-02	 2.47126000E+00
					-1.49380000E-02	 0.00000000E+00	 2.52252000E+00
					-1.49383000E-02	-2.98698000E-02	 2.52193000E+00
					 0.00000000E+00	 0.00000000E+00	 2.47241000E+00
					 0.00000000E+00	-1.49380000E-02	 2.52252000E+00
					 0.00000000E+00	-3.04478000E-02	 2.47183000E+00
					-2.86744000E-02	 0.00000000E+00	 2.61963000E+00
					-2.86753000E-02	-2.86753000E-02	 2.61902000E+00
					 0.00000000E+00	 0.00000000E+00	 2.62024000E+00
					 0.00000000E+00	-2.86744000E-02	 2.61963000E+00
					-2.92762000E-02	 0.00000000E+00	 2.57135000E+00
					-2.86753000E-02	-1.43409000E-02	 2.61948000E+00
					-2.92771000E-02	-2.92771000E-02	 2.57076000E+00
					-1.43406000E-02	 0.00000000E+00	 2.62009000E+00
					-1.43409000E-02	-2.86753000E-02	 2.61948000E+00
					 0.00000000E+00	 0.00000000E+00	 2.57195000E+00
					 0.00000000E+00	-1.43406000E-02	 2.62009000E+00
					 0.00000000E+00	-2.92762000E-02	 2.57135000E+00
					-2.74356000E-02	 0.00000000E+00	 2.71313000E+00
					-2.74364000E-02	-2.74364000E-02	 2.71250000E+00
					 0.00000000E+00	 0.00000000E+00	 2.71376000E+00
					 0.00000000E+00	-2.74356000E-02	 2.71313000E+00
					-2.80593000E-02	 0.00000000E+00	 2.66690000E+00
					-2.74364000E-02	-1.37213000E-02	 2.71297000E+00
					-2.80602000E-02	-2.80602000E-02	 2.66628000E+00
					-1.37210000E-02	 0.00000000E+00	 2.71360000E+00
					-1.37213000E-02	-2.74364000E-02	 2.71297000E+00
					 0.00000000E+00	 0.00000000E+00	 2.66752000E+00
					 0.00000000E+00	-1.37210000E-02	 2.71360000E+00
					 0.00000000E+00	-2.80593000E-02	 2.66690000E+00
					-2.61542000E-02	 0.00000000E+00	 2.80242000E+00
					-2.61551000E-02	-2.61551000E-02	 2.80177000E+00
					 0.00000000E+00	 0.00000000E+00	 2.80308000E+00
					 0.00000000E+00	-2.61542000E-02	 2.80242000E+00
					-2.67991000E-02	 0.00000000E+00	 2.75831000E+00
					-2.61550000E-02	-1.30805000E-02	 2.80226000E+00
					-2.67999000E-02	-2.67999000E-02	 2.75767000E+00
					-1.30802000E-02	 0.00000000E+00	 2.80291000E+00
					-1.30805000E-02	-2.61550000E-02	 2.80226000E+00
					 0.00000000E+00	 0.00000000E+00	 2.75895000E+00
					 0.00000000E+00	-1.30802000E-02	 2.80291000E+00
					 0.00000000E+00	-2.67991000E-02	 2.75831000E+00
					-2.48324000E-02	 0.00000000E+00	 2.88738000E+00
					-2.48332000E-02	-2.48332000E-02	 2.88671000E+00
					 0.00000000E+00	 0.00000000E+00	 2.88806000E+00
					 0.00000000E+00	-2.48324000E-02	 2.88738000E+00
					-2.54973000E-02	 0.00000000E+00	 2.84546000E+00
					-2.48332000E-02	-1.24194000E-02	 2.88722000E+00
					-2.54981000E-02	-2.54981000E-02	 2.84479000E+00
					-1.24191000E-02	 0.00000000E+00	 2.88789000E+00
					-1.24194000E-02	-2.48332000E-02	 2.88722000E+00
					 0.00000000E+00	 0.00000000E+00	 2.84612000E+00
					 0.00000000E+00	-1.24191000E-02	 2.88789000E+00
					 0.00000000E+00	-2.54973000E-02	 2.84546000E+00
					-2.34722000E-02	 0.00000000E+00	 2.96787000E+00
					-2.34729000E-02	-2.34729000E-02	 2.96718000E+00
					 0.00000000E+00	 0.00000000E+00	 2.96856000E+00
					 0.00000000E+00	-2.34722000E-02	 2.96787000E+00
					-2.41560000E-02	 0.00000000E+00	 2.92820000E+00
					-2.34729000E-02	-1.17391000E-02	 2.96770000E+00
					-2.41568000E-02	-2.41568000E-02	 2.92752000E+00
					-1.17389000E-02	 0.00000000E+00	 2.96839000E+00
					-1.17391000E-02	-2.34729000E-02	 2.96770000E+00
					 0.00000000E+00	 0.00000000E+00	 2.92888000E+00
					 0.00000000E+00	-1.17389000E-02	 2.96839000E+00
					 0.00000000E+00	-2.41560000E-02	 2.92820000E+00
					-2.20756000E-02	 0.00000000E+00	 3.04377000E+00
					-2.20763000E-02	-2.20763000E-02	 3.04306000E+00
					 0.00000000E+00	 0.00000000E+00	 3.04448000E+00
					 0.00000000E+00	-2.20756000E-02	 3.04377000E+00
					-2.27774000E-02	 0.00000000E+00	 3.00640000E+00
					-2.20763000E-02	-1.10406000E-02	 3.04359000E+00
					-2.27781000E-02	-2.27781000E-02	 3.00571000E+00
					-1.10404000E-02	 0.00000000E+00	 3.04430000E+00
					-1.10406000E-02	-2.20763000E-02	 3.04359000E+00
					 0.00000000E+00	 0.00000000E+00	 3.00710000E+00
					 0.00000000E+00	-1.10404000E-02	 3.04430000E+00
					 0.00000000E+00	-2.27774000E-02	 3.00640000E+00
					-2.06448000E-02	 0.00000000E+00	 3.11496000E+00
					-2.06455000E-02	-2.06455000E-02	 3.11423000E+00
					 0.00000000E+00	 0.00000000E+00	 3.11568000E+00
					 0.00000000E+00	-2.06448000E-02	 3.11496000E+00
					-2.13635000E-02	 0.00000000E+00	 3.07996000E+00
					-2.06455000E-02	-1.03251000E-02	 3.11478000E+00
					-2.13642000E-02	-2.13642000E-02	 3.07924000E+00
					-1.03249000E-02	 0.00000000E+00	 3.11550000E+00
					-1.03251000E-02	-2.06455000E-02	 3.11478000E+00
					 0.00000000E+00	 0.00000000E+00	 3.08068000E+00
					 0.00000000E+00	-1.03249000E-02	 3.11550000E+00
					 0.00000000E+00	-2.13635000E-02	 3.07996000E+00
					-1.91821000E-02	 0.00000000E+00	 3.18132000E+00
					-1.91827000E-02	-1.91827000E-02	 3.18058000E+00
					 0.00000000E+00	 0.00000000E+00	 3.18206000E+00
					 0.00000000E+00	-1.91821000E-02	 3.18132000E+00
					-1.99166000E-02	 0.00000000E+00	 3.14875000E+00
					-1.91827000E-02	-9.59351000E-03	 3.18114000E+00
					-1.99172000E-02	-1.99172000E-02	 3.14802000E+00
					-9.59334000E-03	 0.00000000E+00	 3.18187000E+00
					-9.59351000E-03	-1.91827000E-02	 3.18114000E+00
					 0.00000000E+00	 0.00000000E+00	 3.14948000E+00
					 0.00000000E+00	-9.59334000E-03	 3.18187000E+00
					 0.00000000E+00	-1.99166000E-02	 3.14875000E+00
					-1.76897000E-02	 0.00000000E+00	 3.24276000E+00
					-1.76903000E-02	-1.76903000E-02	 3.24201000E+00
					 0.00000000E+00	 0.00000000E+00	 3.24351000E+00
					 0.00000000E+00	-1.76897000E-02	 3.24276000E+00
					-1.84388000E-02	 0.00000000E+00	 3.21266000E+00
					-1.76903000E-02	-8.84712000E-03	 3.24257000E+00
					-1.84394000E-02	-1.84394000E-02	 3.21192000E+00
					-8.84696000E-03	 0.00000000E+00	 3.24332000E+00
					-8.84712000E-03	-1.76903000E-02	 3.24257000E+00
					 0.00000000E+00	 0.00000000E+00	 3.21341000E+00
					 0.00000000E+00	-8.84696000E-03	 3.24332000E+00
					 0.00000000E+00	-1.84388000E-02	 3.21266000E+00
					-1.61700000E-02	 0.00000000E+00	 3.29918000E+00
					-1.61705000E-02	-1.61705000E-02	 3.29841000E+00
					 0.00000000E+00	 0.00000000E+00	 3.29995000E+00
					 0.00000000E+00	-1.61700000E-02	 3.29918000E+00
					-1.69325000E-02	 0.00000000E+00	 3.27160000E+00
					-1.61704000E-02	-8.08704000E-03	 3.29899000E+00
					-1.69330000E-02	-1.69330000E-02	 3.27084000E+00
					-8.08690000E-03	 0.00000000E+00	 3.29976000E+00
					-8.08704000E-03	-1.61704000E-02	 3.29899000E+00
					 0.00000000E+00	 0.00000000E+00	 3.27236000E+00
					 0.00000000E+00	-8.08690000E-03	 3.29976000E+00
					 0.00000000E+00	-1.69325000E-02	 3.27160000E+00
					-1.46252000E-02	 0.00000000E+00	 3.35049000E+00
					-1.46256000E-02	-1.46256000E-02	 3.34972000E+00
					 0.00000000E+00	 0.00000000E+00	 3.35127000E+00
					 0.00000000E+00	-1.46252000E-02	 3.35049000E+00
					-1.53999000E-02	 0.00000000E+00	 3.32548000E+00
					-1.46256000E-02	-7.31444000E-03	 3.35030000E+00