<?xml version="1.0"?>
<VTKFile type="UnstructuredGrid" version="0.1" byte_order="LittleEndian">
	<UnstructuredGrid>
		<Piece NumberOfPoints="321" NumberOfCells="40">
			<Points>
				<DataArray type="Float64" NumberOfComponents="3" format="ascii">
					 1.00000000E-02	 1.00000000E-02	 0.00000000E+00
					 1.00000000E-02	 5.00000000E-03	 0.00000000E+00
					 1.00000000E-02	 5.00000000E-03	 1.00000000E-02
					 1.00000000E-02	 1.00000000E-02	 1.00000000E-02
					 5.00000000E-03	 1.00000000E-02	 0.00000000E+00
					 5.00000000E-03	 5.00000000E-03	 0.00000000E+00
					 5.00000000E-03	 5.00000000E-03	 1.00000000E-02
					 5.00000000E-03	 1.00000000E-02	 1.00000000E-02
					 1.00000000E-02	 7.50000000E-03	 0.00000000E+00
					 1.00000000E-02	 5.00000000E-03	 5.00000000E-03
					 1.00000000E-02	 7.50000000E-03	 1.00000000E-02
					 1.00000000E-02	 1.00000000E-02	 5.00000000E-03
					 7.50000000E-03	 1.00000000E-02	 0.00000000E+00
					 7.50000000E-03	 5.00000000E-03	 0.00000000E+00
					 7.50000000E-03	 5.00000000E-03	 1.00000000E-02
					 7.50000000E-03	 1.00000000E-02	 1.00000000E-02
					 5.00000000E-03	 7.50000000E-03	 0.00000000E+00
					 5.00000000E-03	 5.00000000E-03	 5.00000000E-03
					 5.00000000E-03	 7.50000000E-03	 1.00000000E-02
					 5.00000000E-03	 1.00000000E-02	 5.00000000E-03
					 1.00000000E-02	 5.00000000E-03	 2.00000000E-02
					 1.00000000E-02	 1.00000000E-02	 2.00000000E-02
					 5.00000000E-03	 5.00000000E-03	 2.00000000E-02
					 5.00000000E-03	 1.00000000E-02	 2.00000000E-02
					 1.00000000E-02	 5.00000000E-03	 1.50000000E-02
					 1.00000000E-02	 7.50000000E-03	 2.00000000E-02
					 1.00000000E-02	 1.00000000E-02	 1.50000000E-02
					 7.50000000E-03	 5.00000000E-03	 2.00000000E-02
					 7.50000000E-03	 1.00000000E-02	 2.00000000E-02
					 5.00000000E-03	 5.00000000E-03	 1.50000000E-02
					 5.00000000E-03	 7.50000000E-03	 2.00000000E-02
					 5.00000000E-03	 1.00000000E-02	 1.50000000E-02
					 1.00000000E-02	 5.00000000E-03	 3.00000000E-02
					 1.00000000E-02	 1.00000000E-02	 3.00000000E-02
					 5.00000000E-03	 5.00000000E-03	 3.00000000E-02
					 5.00000000E-03	 1.00000000E-02	 3.00000000E-02
					 1.00000000E-02	 5.00000000E-03	 2.50000000E-02
					 1.00000000E-02	 7.50000000E-03	 3.00000000E-02
					 1.00000000E-02	 1.00000000E-02	 2.50000000E-02
					 7.50000000E-03	 5.00000000E-03	 3.00000000E-02
					 7.50000000E-03	 1.00000000E-02	 3.00000000E-02
					 5.00000000E-03	 5.00000000E-03	 2.50000000E-02
					 5.00000000E-03	 7.50000000E-03	 3.00000000E-02
					 5.00000000E-03	 1.00000000E-02	 2.50000000E-02
					 1.00000000E-02	 5.00000000E-03	 4.00000000E-02
					 1.00000000E-02	 1.00000000E-02	 4.00000000E-02
					 5.00000000E-03	 5.00000000E-03	 4.00000000E-02
					 5.00000000E-03	 1.00000000E-02	 4.00000000E-02
					 1.00000000E-02	 5.00000000E-03	 3.50000000E-02
					 1.00000000E-02	 7.50000000E-03	 4.00000000E-02
					 1.00000000E-02	 1.00000000E-02	 3.50000000E-02
					 7.50000000E-03	 5.00000000E-03	 4.00000000E-02
					 7.50000000E-03	 1.00000000E-02	 4.00000000E-02
					 5.00000000E-03	 5.00000000E-03	 3.50000000E-02
					 5.00000000E-03	 7.50000000E-03	 4.00000000E-02
					 5.00000000E-03	 1.00000000E-02	 3.50000000E-02
					 1.00000000E-02	 5.00000000E-03	 5.00000000E-02
					 1.00000000E-02	 1.00000000E-02	 5.00000000E-02
					 5.00000000E-03	 5.00000000E-03	 5.00000000E-02
					 5.00000000E-03	 1.00000000E-02	 5.00000000E-02
					 1.00000000E-02	 5.00000000E-03	 4.50000000E-02
					 1.00000000E-02	 7.50000000E-03	 5.00000000E-02
					 1.00000000E-02	 1.00000000E-02	 4.50000000E-02
					 7.50000000E-03	 5.00000000E-03	 5.00000000E-02
					 7.50000000E-03	 1.00000000E-02	 5.00000000E-02
					 5.00000000E-03	 5.00000000E-03	 4.50000000E-02
					 5.00000000E-03	 7.50000000E-03	 5.00000000E-02
					 5.00000000E-03	 1.00000000E-02	 4.50000000E-02
					 1.00000000E-02	 5.00000000E-03	 6.00000000E-02
					 1.00000000E-02	 1.00000000E-02	 6.00000000E-02
					 5.00000000E-03	 5.00000000E-03	 6.00000000E-02
					 5.00000000E-03	 1.00000000E-02	 6.00000000E-02
					 1.00000000E-02	 5.00000000E-03	 5.50000000E-02
					 1.00000000E-02	 7.50000000E-03	 6.00000000E-02
					 1.00000000E-02	 1.00000000E-02	 5.50000000E-02
					 7.50000000E-03	 5.00000000E-03	 6.00000000E-02
					 7.50000000E-03	 1.00000000E-02	 6.00000000E-02
					 5.00000000E-03	 5.00000000E-03	 5.50000000E-02
					 5.00000000E-03	 7.50000000E-03	 6.00000000E-02
					 5.00000000E-03	 1.00000000E-02	 5.50000000E-02
					 1.00000000E-02	 5.00000000E-03	 7.00000000E-02
					 1.00000000E-02	 1.00000000E-02	 7.00000000E-02
					 5.00000000E-03	 5.00000000E-03	 7.00000000E-02
					 5.00000000E-03	 1.00000000E-02	 7.00000000E-02
					 1.00000000E-02	 5.00000000E-03	 6.50000000E-02
					 1.00000000E-02	 7.50000000E-03	 7.00000000E-02
					 1.00000000E-02	 1.00000000E-02	 6.50000000E-02
					 7.50000000E-03	 5.00000000E-03	 7.00000000E-02
					 7.50000000E-03	 1.00000000E-02	 7.00000000E-02
					 5.00000000E-03	 5.00000000E-03	 6.50000000E-02
					 5.00000000E-03	 7.50000000E-03	 7.00000000E-02
					 5.00000000E-03	 1.00000000E-02	 6.50000000E-02
					 1.00000000E-02	 5.00000000E-03	 8.00000000E-02
					 1.00000000E-02	 1.00000000E-02	 8.00000000E-02
					 5.00000000E-03	 5.00000000E-03	 8.00000000E-02
					 5.00000000E-03	 1.00000000E-02	 8.00000000E-02
					 1.00000000E-02	 5.00000000E-03	 7.50000000E-02
					 1.00000000E-02	 7.50000000E-03	 8.00000000E-02
					 1.00000000E-02	 1.00000000E-02	 7.50000000E-02
					 7.50000000E-03	 5.00000000E-03	 8.00000000E-02
					 7.50000000E-03	 1.00000000E-02	 8.00000000E-02
					 5.00000000E-03	 5.00000000E-03	 7.50000000E-02
					 5.00000000E-03	 7.50000000E-03	 8.00000000E-02
					 5.00000000E-03	 1.00000000E-02	 7.50000000E-02
					 1.00000000E-02	 5.00000000E-03	 9.00000000E-02
					 1.00000000E-02	 1.00000000E-02	 9.00000000E-02
					 5.00000000E-03	 5.00000000E-03	 9.00000000E-02
					 5.00000000E-03	 1.00000000E-02	 9.00000000E-02
					 1.00000000E-02	 5.00000000E-03	 8.50000000E-02
					 1.00000000E-02	 7.50000000E-03	 9.00000000E-02
					 1.00000000E-02	 1.00000000E-02	 8.50000000E-02
					 7.50000000E-03	 5.00000000E-03	 9.00000000E-02
					 7.50000000E-03	 1.00000000E-02	 9.00000000E-02
					 5.00000000E-03	 5.00000000E-03	 8.50000000E-02
					 5.00000000E-03	 7.50000000E-03	 9.00000000E-02
					 5.00000000E-03	 1.00000000E-02	 8.50000000E-02
					 1.00000000E-02	 5.00000000E-03	 1.00000000E-01
					 1.00000000E-02	 1.00000000E-02	 1.00000000E-01
					 5.00000000E-03	 5.00000000E-03	 1.00000000E-01
					 5.00000000E-03	 1.00000000E-02	 1.00000000E-01
					 1.00000000E-02	 5.00000000E-03	 9.50000000E-02
					 1.00000000E-02	 7.50000000E-03	 1.00000000E-01
					 1.00000000E-02	 1.00000000E-02	 9.50000000E-02
					 7.50000000E-03	 5.00000000E-03	 1.00000000E-01
					 7.50000000E-03	 1.00000000E-02	 1.00000000E-01
					 5.00000000E-03	 5.00000000E-03	 9.50000000E-02
					 5.00000000E-03	 7.50000000E-03	 1.00000000E-01
					 5.00000000E-03	 1.00000000E-02	 9.50000000E-02
					 0.00000000E+00	 1.00000000E-02	 0.00000000E+00
					 0.00000000E+00	 5.00000000E-03	 0.00000000E+00
					 0.00000000E+00	 5.00000000E-03	 1.00000000E-02
					 0.00000000E+00	 1.00000000E-02	 1.00000000E-02
					 2.50000000E-03	 1.00000000E-02	 0.00000000E+00
					 2.50000000E-03	 5.00000000E-03	 0.00000000E+00
					 2.50000000E-03	 5.00000000E-03	 1.00000000E-02
					 2.50000000E-03	 1.00000000E-02	 1.00000000E-02
					 0.00000000E+00	 7.50000000E-03	 0.00000000E+00
					 0.00000000E+00	 5.00000000E-03	 5.00000000E-03
					 0.00000000E+00	 7.50000000E-03	 1.00000000E-02
					 0.00000000E+00	 1.00000000E-02	 5.00000000E-03
					 0.00000000E+00	 5.00000000E-03	 2.00000000E-02
					 0.00000000E+00	 1.00000000E-02	 2.00000000E-02
					 2.50000000E-03	 5.00000000E-03	 2.00000000E-02
					 2.50000000E-03	 1.00000000E-02	 2.00000000E-02
					 0.00000000E+00	 5.00000000E-03	 1.50000000E-02
					 0.00000000E+00	 7.50000000E-03	 2.00000000E-02
					 0.00000000E+00	 1.00000000E-02	 1.50000000E-02
					 0.00000000E+00	 5.00000000E-03	 3.00000000E-02
					 0.00000000E+00	 1.00000000E-02	 3.00000000E-02
					 2.50000000E-03	 5.00000000E-03	 3.00000000E-02
					 2.50000000E-03	 1.00000000E-02	 3.00000000E-02
					 0.00000000E+00	 5.00000000E-03	 2.50000000E-02
					 0.00000000E+00	 7.50000000E-03	 3.00000000E-02
					 0.00000000E+00	 1.00000000E-02	 2.50000000E-02
					 0.00000000E+00	 5.00000000E-03	 4.00000000E-02
					 0.00000000E+00	 1.00000000E-02	 4.00000000E-02
					 2.50000000E-03	 5.00000000E-03	 4.00000000E-02
					 2.50000000E-03	 1.00000000E-02	 4.00000000E-02
					 0.00000000E+00	 5.00000000E-03	 3.50000000E-02
					 0.00000000E+00	 7.50000000E-03	 4.00000000E-02
					 0.00000000E+00	 1.00000000E-02	 3.50000000E-02
					 0.00000000E+00	 5.00000000E-03	 5.00000000E-02
					 0.00000000E+00	 1.00000000E-02	 5.00000000E-02
					 2.50000000E-03	 5.00000000E-03	 5.00000000E-02
					 2.50000000E-03	 1.00000000E-02	 5.00000000E-02
					 0.00000000E+00	 5.00000000E-03	 4.50000000E-02
					 0.00000000E+00	 7.50000000E-03	 5.00000000E-02
					 0.00000000E+00	 1.00000000E-02	 4.50000000E-02
					 0.00000000E+00	 5.00000000E-03	 6.00000000E-02
					 0.00000000E+00	 1.00000000E-02	 6.00000000E-02
					 2.50000000E-03	 5.00000000E-03	 6.00000000E-02
					 2.50000000E-03	 1.00000000E-02	 6.00000000E-02
					 0.00000000E+00	 5.00000000E-03	 5.50000000E-02
					 0.00000000E+00	 7.50000000E-03	 6.00000000E-02
					 0.00000000E+00	 1.00000000E-02	 5.50000000E-02
					 0.00000000E+00	 5.00000000E-03	 7.00000000E-02
					 0.00000000E+00	 1.00000000E-02	 7.00000000E-02
					 2.50000000E-03	 5.00000000E-03	 7.00000000E-02
					 2.50000000E-03	 1.00000000E-02	 7.00000000E-02
					 0.00000000E+00	 5.00000000E-03	 6.50000000E-02
					 0.00000000E+00	 7.50000000E-03	 7.00000000E-02
					 0.00000000E+00	 1.00000000E-02	 6.50000000E-02
					 0.00000000E+00	 5.00000000E-03	 8.00000000E-02
					 0.00000000E+00	 1.00000000E-02	 8.00000000E-02
[...]
			<PointData>
				<DataArray type="Float32" Name="U" NumberOfComponents="3" ComponentName0="D1" ComponentName1="D2" ComponentName2="D3" format="ascii">
					 0.00000000E+00	 0.00000000E+00	 0.00000000E+00
					 0.00000000E+00	 0.00000000E+00	 0.00000000E+00
					 0.00000000E+00	-9.22319000E-01	 0.00000000E+00
					 9.15782000E-01	-9.15782000E-01	 0.00000000E+00
					 0.00000000E+00	 0.00000000E+00	 0.00000000E+00
					 0.00000000E+00	 0.00000000E+00	 0.00000000E+00
					 0.00000000E+00	 0.00000000E+00	 0.00000000E+00
					 9.22319000E-01	 0.00000000E+00	 0.00000000E+00
					 0.00000000E+00	 0.00000000E+00	 0.00000000E+00
					 0.00000000E+00	-4.48409000E-01	 0.00000000E+00
					 4.59843000E-01	-9.18464000E-01	-8.53654000E-02
					 4.30322000E-01	-4.30322000E-01	 0.00000000E+00
					 0.00000000E+00	 0.00000000E+00	 0.00000000E+00
					 0.00000000E+00	 0.00000000E+00	 0.00000000E+00
					 0.00000000E+00	-4.60062000E-01	 0.00000000E+00
					 9.18464000E-01	-4.59843000E-01	 8.53654000E-02
					 0.00000000E+00	 0.00000000E+00	 0.00000000E+00
					 0.00000000E+00	 0.00000000E+00	 0.00000000E+00
					 4.60062000E-01	 0.00000000E+00	 0.00000000E+00
					 4.48409000E-01	 0.00000000E+00	 0.00000000E+00
					 0.00000000E+00	-1.88138000E+00	 0.00000000E+00
					 1.88370000E+00	-1.88370000E+00	 0.00000000E+00
					 0.00000000E+00	 0.00000000E+00	 0.00000000E+00
					 1.88138000E+00	 0.00000000E+00	 0.00000000E+00
					 0.00000000E+00	-1.40787000E+00	 0.00000000E+00
					 9.40800000E-01	-1.88288000E+00	-6.40362000E-02
					 1.41189000E+00	-1.41189000E+00	 0.00000000E+00
					 0.00000000E+00	-9.41298000E-01	 0.00000000E+00
					 1.88288000E+00	-9.40800000E-01	 6.40362000E-02
					 0.00000000E+00	 0.00000000E+00	 0.00000000E+00
					 9.41298000E-01	 0.00000000E+00	 0.00000000E+00
					 1.40787000E+00	 0.00000000E+00	 0.00000000E+00
					 0.00000000E+00	-2.78416000E+00	 0.00000000E+00
					 2.78471000E+00	-2.78471000E+00	 0.00000000E+00
					 0.00000000E+00	 0.00000000E+00	 0.00000000E+00
					 2.78416000E+00	 0.00000000E+00	 0.00000000E+00
					 0.00000000E+00	-2.33955000E+00	 0.00000000E+00
					 1.39249000E+00	-2.78438000E+00	-6.37970000E-02
					 2.34000000E+00	-2.34000000E+00	 0.00000000E+00
					 0.00000000E+00	-1.39199000E+00	 0.00000000E+00
					 2.78438000E+00	-1.39249000E+00	 6.37970000E-02
					 0.00000000E+00	 0.00000000E+00	 0.00000000E+00
					 1.39199000E+00	 0.00000000E+00	 0.00000000E+00
					 2.33955000E+00	 0.00000000E+00	 0.00000000E+00
					 0.00000000E+00	-3.61947000E+00	 0.00000000E+00
					 3.62102000E+00	-3.62102000E+00	 0.00000000E+00
					 0.00000000E+00	 0.00000000E+00	 0.00000000E+00
					 3.61947000E+00	 0.00000000E+00	 0.00000000E+00
					 0.00000000E+00	-3.21189000E+00	 0.00000000E+00
					 1.81017000E+00	-3.62035000E+00	-5.72023000E-02
					 3.21320000E+00	-3.21320000E+00	 0.00000000E+00
					 0.00000000E+00	-1.80992000E+00	 0.00000000E+00
					 3.62035000E+00	-1.81017000E+00	 5.72023000E-02
					 0.00000000E+00	 0.00000000E+00	 0.00000000E+00
					 1.80992000E+00	 0.00000000E+00	 0.00000000E+00
					 3.21189000E+00	 0.00000000E+00	 0.00000000E+00
					 0.00000000E+00	-4.36461000E+00	 0.00000000E+00
					 4.36628000E+00	-4.36628000E+00	 0.00000000E+00
					 0.00000000E+00	 0.00000000E+00	 0.00000000E+00
					 4.36461000E+00	 0.00000000E+00	 0.00000000E+00
					 0.00000000E+00	-4.00448000E+00	 0.00000000E+00
					 2.18288000E+00	-4.36552000E+00	-5.01656000E-02
					 4.00606000E+00	-4.00606000E+00	 0.00000000E+00
					 0.00000000E+00	-2.18244000E+00	 0.00000000E+00
					 4.36552000E+00	-2.18288000E+00	 5.01656000E-02
					 0.00000000E+00	 0.00000000E+00	 0.00000000E+00
					 2.18244000E+00	 0.00000000E+00	 0.00000000E+00
					 4.00448000E+00	 0.00000000E+00	 0.00000000E+00
					 0.00000000E+00	-5.00130000E+00	 0.00000000E+00
					 5.00327000E+00	-5.00327000E+00	 0.00000000E+00
					 0.00000000E+00	 0.00000000E+00	 0.00000000E+00
					 5.00130000E+00	 0.00000000E+00	 0.00000000E+00
					 0.00000000E+00	-4.69757000E+00	 0.00000000E+00
					 2.50129000E+00	-5.00238000E+00	-4.16915000E-02
					 4.69941000E+00	-4.69941000E+00	 0.00000000E+00
					 0.00000000E+00	-2.50083000E+00	 0.00000000E+00
					 5.00238000E+00	-2.50129000E+00	 4.16915000E-02
					 0.00000000E+00	 0.00000000E+00	 0.00000000E+00
					 2.50083000E+00	 0.00000000E+00	 0.00000000E+00
					 4.69757000E+00	 0.00000000E+00	 0.00000000E+00
					 0.00000000E+00	-5.51371000E+00	 0.00000000E+00
					 5.51585000E+00	-5.51585000E+00	 0.00000000E+00
					 0.00000000E+00	 0.00000000E+00	 0.00000000E+00
					 5.51371000E+00	 0.00000000E+00	 0.00000000E+00
					 0.00000000E+00	-5.27391000E+00	 0.00000000E+00
					 2.75757000E+00	-5.51488000E+00	-3.22040000E-02
					 5.27599000E+00	-5.27599000E+00	 0.00000000E+00
					 0.00000000E+00	-2.75705000E+00	 0.00000000E+00
					 5.51488000E+00	-2.75757000E+00	 3.22040000E-02
					 0.00000000E+00	 0.00000000E+00	 0.00000000E+00
					 2.75705000E+00	 0.00000000E+00	 0.00000000E+00
					 5.27391000E+00	 0.00000000E+00	 0.00000000E+00
					 0.00000000E+00	-5.88911000E+00	 0.00000000E+00
					 5.89143000E+00	-5.89143000E+00	 0.00000000E+00
					 0.00000000E+00	 0.00000000E+00	 0.00000000E+00
					 5.88911000E+00	 0.00000000E+00	 0.00000000E+00
					 0.00000000E+00	-5.71919000E+00	 0.00000000E+00
					 2.94532000E+00	-5.89038000E+00	-2.19744000E-02
					 5.72143000E+00	-5.72143000E+00	 0.00000000E+00
					 0.00000000E+00	-2.94477000E+00	 0.00000000E+00
					 5.89038000E+00	-2.94532000E+00	 2.19744000E-02
					 0.00000000E+00	 0.00000000E+00	 0.00000000E+00
					 2.94477000E+00	 0.00000000E+00	 0.00000000E+00
					 5.71919000E+00	 0.00000000E+00	 0.00000000E+00
					 0.00000000E+00	-6.11798000E+00	 0.00000000E+00
					 6.12039000E+00	-6.12039000E+00	 0.00000000E+00
					 0.00000000E+00	 0.00000000E+00	 0.00000000E+00
					 6.11798000E+00	 0.00000000E+00	 0.00000000E+00
					 0.00000000E+00	-6.02232000E+00	 0.00000000E+00
					 3.05978000E+00	-6.11930000E+00	-1.09045000E-02
					 6.02474000E+00	-6.02474000E+00	 0.00000000E+00
					 0.00000000E+00	-3.05921000E+00	 0.00000000E+00
					 6.11930000E+00	-3.05978000E+00	 1.09045000E-02
					 0.00000000E+00	 0.00000000E+00	 0.00000000E+00
					 3.05921000E+00	 0.00000000E+00	 0.00000000E+00
					 6.02232000E+00	 0.00000000E+00	 0.00000000E+00
					 0.00000000E+00	-6.19544000E+00	 0.00000000E+00
					 6.19835000E+00	-6.19835000E+00	 0.00000000E+00
					 0.00000000E+00	 0.00000000E+00	 0.00000000E+00
					 6.19544000E+00	 0.00000000E+00	 0.00000000E+00
					 0.00000000E+00	-6.17594000E+00	 0.00000000E+00
					 3.09890000E+00	-6.19697000E+00	-9.22476000E-04
					 6.17802000E+00	-6.17802000E+00	 0.00000000E+00
					 0.00000000E+00	-3.09788000E+00	 0.00000000E+00
					 6.19697000E+00	-3.09890000E+00	 9.22476000E-04
					 0.00000000E+00	 0.00000000E+00	 0.00000000E+00
					 3.09788000E+00	 0.00000000E+00	 0.00000000E+00
					 6.17594000E+00	 0.00000000E+00	 0.00000000E+00
					 0.00000000E+00	 0.00000000E+00	 0.00000000E+00
					 0.00000000E+00	 0.00000000E+00	 0.00000000E+00
					 0.00000000E+00	 9.22319000E-01	 0.00000000E+00
					 9.15782000E-01	 9.15782000E-01	 0.00000000E+00
					 0.00000000E+00	 0.00000000E+00	 0.00000000E+00
					 0.00000000E+00	 0.00000000E+00	 0.00000000E+00
					 0.00000000E+00	 4.60062000E-01	 0.00000000E+00
					 9.18464000E-01	 4.59843000E-01	-8.53654000E-02
					 0.00000000E+00	 0.00000000E+00	 0.00000000E+00
					 0.00000000E+00	 4.48409000E-01	 0.00000000E+00
					 4.59843000E-01	 9.18464000E-01	 8.53654000E-02
					 4.30322000E-01	 4.30322000E-01	 0.00000000E+00
					 0.00000000E+00	 1.88138000E+00	 0.00000000E+00
					 1.88370000E+00	 1.88370000E+00	 0.00000000E+00
					 0.00000000E+00	 9.41298000E-01	 0.00000000E+00
					 1.88288000E+00	 9.40800000E-01	-6.40362000E-02
					 0.00000000E+00	 1.40787000E+00	 0.00000000E+00
					 9.40800000E-01	 1.88288000E+00	 6.40362000E-02
					 1.41189000E+00	 1.41189000E+00	 0.00000000E+00
					 0.00000000E+00	 2.78416000E+00	 0.00000000E+00
					 2.78471000E+00	 2.78471000E+00	 0.00000000E+00
					 0.00000000E+00	 1.39199000E+00	 0.00000000E+00
					 2.78438000E+00	 1.39249000E+00	-6.37970000E-02
					 0.00000000E+00	 2.33955000E+00	 0.00000000E+00
					 1.39249000E+00	 2.78438000E+00	 6.37970000E-02
					 2.34000000E+00	 2.34000000E+00	 0.00000000E+00
					 0.00000000E+00	 3.61947000E+00	 0.00000000E+00
					 3.62102000E+00	 3.62102000E+00	 0.00000000E+00
					 0.00000000E+00	 1.80992000E+00	 0.00000000E+00
					 3.62035000E+00	 1.81017000E+00	-5.72023000E-02
					 0.00000000E+00	 3.21189000E+00	 0.00000000E+00
					 1.81017000E+00	 3.62035000E+00	 5.72023000E-02
					 3.21320000E+00	 3.21320000E+00	 0.00000000E+00
					 0.00000000E+00	 4.36461000E+00	 0.00000000E+00
					 4.36628000E+00	 4.36628000E+00	 0.00000000E+00
					 0.00000000E+00	 2.18244000E+00	 0.00000000E+00
					 4.36552000E+00	 2.18288000E+00	-5.01656000E-02
					 0.00000000E+00	 4.00448000E+00	 0.00000000E+00
					 2.18288000E+00	 4.36552000E+00	 5.01656000E-02
					 4.00606000E+00	 4.00606000E+00	 0.00000000E+00
					 0.00000000E+00	 5.00130000E+00	 0.00000000E+00
					 5.00327000E+00	 5.00327000E+00	 0.00000000E+00
					 0.00000000E+00	 2.50083000E+00	 0.00000000E+00
					 5.00238000E+00	 2.50129000E+00	-4.16915000E-02
					 0.00000000E+00	 4.69757000E+00	 0.00000000E+00
					 2.50129000E+00	 5.00238000E+00	 4.16915000E-02
					 4.69941000E+00	 4.69941000E+00	 0.00000000E+00
					 0.00000000E+00	 5.51371000E+00	 0.00000000E+00
					 5.51585000E+00	 5.51585000E+00	 0.00000000E+00
					 0.00000000E+00	 2.75705000E+00	 0.00000000E+00
					 5.51488000E+00	 2.75757000E+00	-3.22040000E-02
					 0.00000000E+00	 5.27391000E+00	 0.00000000E+00
					 2.75757000E+00	 5.51488000E+00	 3.22040000E-02
					 5.27599000E+00	 5.27599000E+00	 0.00000000E+00
					 0.00000000E+00	 5.88911000E+00	 0.00000000E+00
					 5.89143000E+00	 5.89143000E+00	 0.00000000E+00
					 0.00000000E+00	 2.94477000E+00	 0.00000000E+00
					 5.89038000E+00	 2.94532000E+00	-2.19744000E-02
					 0.00000000E+00	 5.71919000E+00	 0.00000000E+00
					 2.94532000E+00	 5.89038000E+00	 2.19744000E-02
					 5.72143000E+00	 5.72143000E+00	 0.00000000E+00
					 0.00000000E+00	 6.11798000E+00	 0.00000000E+00
					 6.12039000E+00	 6.12039000E+00	 0.00000000E+00
					 0.00000000E+00	 3.05921000E+00	 0.00000000E+00
					 6.11930000E+00	 3.05978000E+00	-1.09045000E-02
					 0.00000000E+00	 6.02232000E+00	 0.00000000E+00
					 3.05978000E+00	 6.11930000E+00	 1.09045000E-02
					 6.02474000E+00	 6.02474000E+00	 0.00000000E+00
					 0.00000000E+00	 6.19544000E+00	 0.00000000E+00
					 6.19835000E+00	 6.19835000E+00	 0.00000000E+00
					 0.00000000E+00	 3.09788000E+00	 0.00000000E+00
					 6.19697000E+00	 3.09890000E+00	-9.22476000E-04
					 0.00000000E+00	 6.17594000E+00	 0.00000000E+00
					 3.09890000E+00	 6.19697000E+00	 9.22476000E-04
					 6.17802000E+00	 6.17802000E+00	 0.00000000E+00
					 0.00000000E+00	 0.00000000E+00	 0.00000000E+00
					-9.15782000E-01	-9.15782000E-01	 0.00000000E+00
					 0.00000000E+00	 0.00000000E+00	 0.00000000E+00
					-9.22319000E-01	 0.00000000E+00	 0.00000000E+00
					 0.00000000E+00	 0.00000000E+00	 0.00000000E+00
					-4.30322000E-01	-4.30322000E-01	 0.00000000E+00
					-4.59843000E-01	-9.18464000E-01	 8.53654000E-02
					 0.00000000E+00	 0.00000000E+00	 0.00000000E+00
					-9.18464000E-01	-4.59843000E-01	-8.53654000E-02
					 0.00000000E+00	 0.00000000E+00	 0.00000000E+00
					-4.48409000E-01	 0.00000000E+00	 0.00000000E+00
					-4.60062000E-01	 0.00000000E+00	 0.00000000E+00
					-1.88370000E+00	-1.88370000E+00	 0.00000000E+00
					-1.88138000E+00	 0.00000000E+00	 0.00000000E+00
					-1.41189000E+00	-1.41189000E+00	 0.00000000E+00
					-9.40800000E-01	-1.88288000E+00	 6.40362000E-02
					-1.88288000E+00	-9.40800000E-01	-6.40362000E-02
					-1.40787000E+00	 0.00000000E+00	 0.00000000E+00
					-9.41298000E-01	 0.00000000E+00	 0.00000000E+00
					-2.78471000E+00	-2.78471000E+00	 0.00000000E+00
					-2.78416000E+00	 0.00000000E+00	 0.00000000E+00
					-2.34000000E+00	-2.34000000E+00	 0.00000000E+00
					-1.39249000E+00	-2.78438000E+00	 6.37970000E-02
					-2.78438000E+00	-1.39249000E+00	-6.37970000E-02
					-2.33955000E+00	 0.00000000E+00	 0.00000000E+00
					-1.39199000E+00	 0.00000000E+00	 0.00000000E+00
					-3.62102000E+00	-3.62102000E+00	 0.00000000E+00
					-3.61947000E+00	 0.00000000E+00	 0.00000000E+00
					-3.21320000E+00	-3.21320000E+00	 0.00000000E+00
					-1.81017000E+00	-3.62035000E+00	 5.72023000E-02
					-3.62035000E+00	-1.81017000E+00	-5.72023000E-02
					-3.21189000E+00	 0.00000000E+00	 0.00000000E+00
					-1.80992000E+00	 0.00000000E+00	 0.00000000E+00
					-4.36628000E+00	-4.36628000E+00	 0.00000000E+00
					-4.36461000E+00	 0.00000000E+00	 0.00000000E+00
					-4.00606000E+00	-4.00606000E+00	 0.00000000E+00
					-2.18288000E+00	-4.36552000E+00	 5.01656000E-02
					-4.36552000E+00	-2.18288000E+00	-5.01656000E-02
					-4.00448000E+00	 0.00000000E+00	 0.00000000E+00
					-2.18244000E+00	 0.00000000E+00	 0.00000000E+00
					-5.00327000E+00	-5.00327000E+00	 0.00000000E+00
					-5.00130000E+00	 0.00000000E+00	 0.00000000E+00
					-4.69941000E+00	-4.69941000E+00	 0.00000000E+00
					-2.50129000E+00	-5.00238000E+00	 4.16915000E-02
					-5.00238000E+00	-2.50129000E+00	-4.16915000E-02
					-4.69757000E+00	 0.00000000E+00	 0.00000000E+00
					-2.50083000E+00	 0.00000000E+00	 0.00000000E+00
					-5.51585000E+00	-5.51585000E+00	 0.00000000E+00
					-5.51371000E+00	 0.00000000E+00	 0.00000000E+00
					-5.27599000E+00	-5.27599000E+00	 0.00000000E+00
					-2.75757000E+00	-5.51488000E+00	 3.22040000E-02
					-5.51488000E+00	-2.75757000E+00	-3.22040000E-02
					-5.27391000E+00	 0.00000000E+00	 0.00000000E+00
					-2.75705000E+00	 0.00000000E+00	 0.00000000E+00
					-5.89143000E+00	-5.89143000E+00	 0.00000000E+00
					-5.88911000E+00	 0.00000000E+00	 0.00000000E+00
					-5.72143000E+00	-5.72143000E+00	 0.00000000E+00
					-2.94532000E+00	-5.89038000E+00	 2.19744000E-02
					-5.89038000E+00	-2.94532000E+00	-2.19744000E-02
					-5.71919000E+00	 0.00000000E+00	 0.00000000E+00
					-2.94477000E+00	 0.00000000E+00	 0.00000000E+00
					-6.12039000E+00	-6.12039000E+00	 0.00000000E+00
					-6.11798000E+00	 0.00000000E+00	 0.00000000E+00
					-6.02474000E+00	-6.02474000E+00	 0.00000000E+00
					-3.05978000E+00	-6.11930000E+00	 1.09045000E-02
					-6.11930000E+00	-3.05978000E+00	-1.09045000E-02
					-6.02232000E+00	 0.00000000E+00	 0.00000000E+00
					-3.05921000E+00	 0.00000000E+00	 0.00000000E+00
					-6.19835000E+00	-6.19835000E+00	 0.00000000E+00
					-6.19544000E+00	 0.00000000E+00	 0.00000000E+00
					-6.17802000E+00	-6.17802000E+00	 0.00000000E+00
					-3.09890000E+00	-6.19697000E+00	 9.22476000E-04
					-6.19697000E+00	-3.09890000E+00	-9.22476000E-04
					-6.17594000E+00	 0.00000000E+00	 0.00000000E+00
					-3.09788000E+00	 0.00000000E+00	 0.00000000E+00
					 0.00000000E+00	 0.00000000E+00	 0.00000000E+00
					-9.15782000E-01	 9.15782000E-01	 0.00000000E+00
					 0.00000000E+00	 0.00000000E+00	 0.00000000E+00
					-9.18464000E-01	 4.59843000E-01	 8.53654000E-02
					 0.00000000E+00	 0.00000000E+00	 0.00000000E+00
					-4.30322000E-01	 4.30322000E-01	 0.00000000E+00
					-4.59843000E-01	 9.18464000E-01	-8.53654000E-02
					-1.88370000E+00	 1.88370000E+00	 0.00000000E+00
					-1.88288000E+00	 9.40800000E-01	 6.40362000E-02
					-1.41189000E+00	 1.41189000E+00	 0.00000000E+00
					-9.40800000E-01	 1.88288000E+00	-6.40362000E-02
					-2.78471000E+00	 2.78471000E+00	 0.00000000E+00
					-2.78438000E+00	 1.39249000E+00	 6.37970000E-02
					-2.34000000E+00	 2.34000000E+00	 0.00000000E+00
					-1.39249000E+00	 2.78438000E+00	-6.37970000E-02
					-3.62102000E+00	 3.62102000E+00	 0.00000000E+00
					-3.62035000E+00	 1.81017000E+00	 5.72023000E-02
					-3.21320000E+00	 3.21320000E+00	 0.00000000E+00
					-1.81017000E+00	 3.62035000E+00	-5.72023000E-02
					-4.36628000E+00	 4.36628000E+00	 0.00000000E+00
					-4.36552000E+00	 2.18288000E+00	 5.01656000E-02
					-4.00606000E+00	 4.00606000E+00	 0.00000000E+00
					-2.18288000E+00	 4.36552000E+00	-5.01656000E-02
					-5.00327000E+00	 5.00327000E+00	 0.00000000E+00
					-5.00238000E+00	 2.50129000E+00	 4.16915000E-02
					-4.69941000E+00	 4.69941000E+00	 0.00000000E+00
					-2.50129000E+00	 5.00238000E+00	-4.16915000E-02
					-5.51585000E+00	 5.51585000E+00	 0.00000000E+00
					-5.51488000E+00	 2.75757000E+00	 3.22040000E-02
					-5.27599000E+00	 5.27599000E+00	 0.00000000E+00
					-2.75757000E+00	 5.51488000E+00	-3.22040000E-02
					-5.89143000E+00	 5.89143000E+00	 0.00000000E+00
					-5.89038000E+00	 2.94532000E+00	 2.19744000E-02
					-5.72143000E+00	 5.72143000E+00	 0.00000000E+00
					-2.94532000E+00	 5.89038000E+00	-2.19744000E-02
					-6.12039000E+00	 6.12039000E+00	 0.00000000E+00
					-6.11930000E+00	 3.05978000E+00	 1.09045000E-02
					-6.02474000E+00	 6.02474000E+00	 0.00000000E+00
					-3.05978000E+00	 6.11930000E+00	-1.09045000E-02
					-6.19835000E+00	 6.19835000E+00	 0.00000000E+00
					-6.19697000E+00	 3.09890000E+00	 9.22476000E-04
					-6.17802000E+00	 6.17802000E+00	 0.00000000E+00
					-3.09890000E+00	 6.19697000E+00	-9.22476000E-04
				</DataArray>
				<DataArray type="Float32" Name="S" NumberOfComponents="10" ComponentName0="xx" ComponentName1="yy" ComponentName2="zz" ComponentName3="xy" ComponentName4="yz" ComponentName5="zx" ComponentName6="Mises" ComponentName7="Min Principal" ComponentName8="Mid Principal" ComponentName9="Max Principal" format="ascii">
					 6.26163000E+06	-6.26164000E+06	-2.95985000E+00	 1.00033000E-02	-6.50588000E+12	 6.50588000E+12	 1.59360863E+13	-9.20070373E+12	-4.99120331E+00	 9.20070373E+12
					-3.21908000E-01	-3.18101000E-01	-7.57458000E-01	-6.48449000E+05	-7.03744000E+12	 1.52473000E-01	 1.21892036E+13	-7.03744000E+12	-3.21908028E-01	 7.03744000E+12
					 1.22810000E-01	 2.27356000E-02	-1.40541000E-01	-5.03934000E+10	-1.34169000E+13	 3.78036000E-03	 2.32389164E+13	-1.34169946E+13	 1.22779970E-01	 1.34169946E+13
					-1.35373000E+11	 1.35373000E+11	-2.03947000E+00	-1.16464000E-01	-2.73281000E+12	 2.73281000E+12	 6.69809529E+12	-3.86714712E+12	-1.19483948E-01	 3.86714712E+12
					-8.99433000E-01	-9.01108000E-01	-2.10682000E+00	 6.48449000E+05	 1.91208000E-01	 7.03744000E+12	 1.21892036E+13	-7.03744000E+12	-9.01367187E-01	 7.03744000E+12
					-4.23229000E-03	-3.86018000E-03	-2.33513000E-03	 1.49491000E-03	 1.17763000E-02	 1.06525000E-01	 1.85656959E-01	-1.10305686E-01	-4.19084235E-03	 1.04068928E-01
					-2.58875000E-02	-1.73794000E-02	-1.54946000E-02	-6.39258000E-02	 1.24610000E-01	 1.18358000E-01	 3.17742513E-01	-2.25867489E-01	 4.18426085E-02	 1.25263381E-01
					-5.73883000E-02	 1.91422000E-01	-1.58578000E+00	 5.03934000E+10	-6.40869000E-03	 1.34169000E+13	 2.32389164E+13	-1.34169946E+13	 1.89453125E-01	 1.34169946E+13
					-1.03425000E+12	-1.03423000E+12	-2.41323000E+12	-2.92011000E+05	-6.76721000E+12	 3.26893000E+12	 1.30898708E+13	-9.27068098E+12	-1.03424644E+12	 5.82321743E+12
					 3.16467000E-02	 2.25220000E-02	-3.90045000E-01	-2.64572000E+11	-1.02077000E+13	 3.79639000E-02	 1.76861927E+13	-1.02111281E+13	 2.93791270E-02	 1.02111281E+13
					-1.75590000E+11	 4.78733000E+09	-7.23625000E+11	-1.57199000E+10	-8.07650000E+12	-1.66137000E+10	 1.40043871E+13	-8.44418979E+12	-1.75526736E+11	 7.72528885E+12
					-5.46449000E+11	 5.46449000E+11	-2.13011000E+00	 7.22031000E-02	-4.63890000E+12	 4.63890000E+12	 1.14022883E+13	-6.58311423E+12	 5.67970276E-02	 6.58311423E+12
					 1.03423000E+12	 1.03425000E+12	 2.41323000E+12	 2.92011000E+05	-3.26893000E+12	 6.76721000E+12	 1.30898708E+13	-5.82321743E+12	 1.03424644E+12	 9.27068098E+12
					-1.56195000E-01	-1.58584000E-01	-3.55323000E-01	-3.56438000E+05	-3.51007000E+12	 1.22498000E-01	 6.07961958E+12	-3.51007000E+12	-1.56195025E-01	 3.51007000E+12
					-3.10335000E-02	-4.19998000E-03	-9.24377000E-02	-3.46735000E+10	-5.33214000E+12	 8.33817000E-02	 9.23573266E+12	-5.33225274E+12	-3.21240318E-02	 5.33225274E+12