<?xml version="1.0"?>
<VTKFile type="UnstructuredGrid" version="0.1" byte_order="LittleEndian">
	<UnstructuredGrid>
		<Piece NumberOfPoints="1221" NumberOfCells="160">
			<Points>
				<DataArray type="Float64" NumberOfComponents="3" format="ascii">
					 1.00000000E-02	 1.00000000E-02	 0.00000000E+00
					 1.00000000E-02	 5.00000000E-03	 0.00000000E+00
					 1.00000000E-02	 5.00000000E-03	 5.00000000E-03
					 1.00000000E-02	 1.00000000E-02	 5.00000000E-03
					 5.00000000E-03	 1.00000000E-02	 0.00000000E+00
					 5.00000000E-03	 5.00000000E-03	 0.00000000E+00
					 5.00000000E-03	 5.00000000E-03	 5.00000000E-03
					 5.00000000E-03	 1.00000000E-02	 5.00000000E-03
					 1.00000000E-02	 7.50000000E-03	 0.00000000E+00
					 1.00000000E-02	 5.00000000E-03	 2.50000000E-03
					 1.00000000E-02	 7.50000000E-03	 5.00000000E-03
					 1.00000000E-02	 1.00000000E-02	 2.50000000E-03
					 7.50000000E-03	 1.00000000E-02	 0.00000000E+00
					 7.50000000E-03	 5.00000000E-03	 0.00000000E+00
					 7.50000000E-03	 5.00000000E-03	 5.00000000E-03
					 7.50000000E-03	 1.00000000E-02	 5.00000000E-03
					 5.00000000E-03	 7.50000000E-03	 0.00000000E+00
					 5.00000000E-03	 5.00000000E-03	 2.50000000E-03
					 5.00000000E-03	 7.50000000E-03	 5.00000000E-03
					 5.00000000E-03	 1.00000000E-02	 2.50000000E-03
					 1.00000000E-02	 5.00000000E-03	 1.00000000E-02
					 1.00000000E-02	 1.00000000E-02	 1.00000000E-02
					 5.00000000E-03	 5.00000000E-03	 1.00000000E-02
					 5.00000000E-03	 1.00000000E-02	 1.00000000E-02
					 1.00000000E-02	 5.00000000E-03	 7.50000000E-03
					 1.00000000E-02	 7.50000000E-03	 1.00000000E-02
					 1.00000000E-02	 1.00000000E-02	 7.50000000E-03
					 7.50000000E-03	 5.00000000E-03	 1.00000000E-02
					 7.50000000E-03	 1.00000000E-02	 1.00000000E-02
					 5.00000000E-03	 5.00000000E-03	 7.50000000E-03
					 5.00000000E-03	 7.50000000E-03	 1.00000000E-02
					 5.00000000E-03	 1.00000000E-02	 7.50000000E-03
					 1.00000000E-02	 5.00000000E-03	 1.50000000E-02
					 1.00000000E-02	 1.00000000E-02	 1.50000000E-02
					 5.00000000E-03	 5.00000000E-03	 1.50000000E-02
					 5.00000000E-03	 1.00000000E-02	 1.50000000E-02
					 1.00000000E-02	 5.00000000E-03	 1.25000000E-02
					 1.00000000E-02	 7.50000000E-03	 1.50000000E-02
					 1.00000000E-02	 1.00000000E-02	 1.25000000E-02
					 7.50000000E-03	 5.00000000E-03	 1.50000000E-02
					 7.50000000E-03	 1.00000000E-02	 1.50000000E-02
					 5.00000000E-03	 5.00000000E-03	 1.25000000E-02
					 5.00000000E-03	 7.50000000E-03	 1.50000000E-02
					 5.00000000E-03	 1.00000000E-02	 1.25000000E-02
					 1.00000000E-02	 5.00000000E-03	 2.00000000E-02
					 1.00000000E-02	 1.00000000E-02	 2.00000000E-02
					 5.00000000E-03	 5.00000000E-03	 2.00000000E-02
					 5.00000000E-03	 1.00000000E-02	 2.00000000E-02
					 1.00000000E-02	 5.00000000E-03	 1.75000000E-02
					 1.00000000E-02	 7.50000000E-03	 2.00000000E-02
					 1.00000000E-02	 1.00000000E-02	 1.75000000E-02
					 7.50000000E-03	 5.00000000E-03	 2.00000000E-02
					 7.50000000E-03	 1.00000000E-02	 2.00000000E-02
					 5.00000000E-03	 5.00000000E-03	 1.75000000E-02
					 5.00000000E-03	 7.50000000E-03	 2.00000000E-02
					 5.00000000E-03	 1.00000000E-02	 1.75000000E-02
					 1.00000000E-02	 5.00000000E-03	 2.50000000E-02
					 1.00000000E-02	 1.00000000E-02	 2.50000000E-02
					 5.00000000E-03	 5.00000000E-03	 2.50000000E-02
					 5.00000000E-03	 1.00000000E-02	 2.50000000E-02
					 1.00000000E-02	 5.00000000E-03	 2.25000000E-02
					 1.00000000E-02	 7.50000000E-03	 2.50000000E-02
					 1.00000000E-02	 1.00000000E-02	 2.25000000E-02
					 7.50000000E-03	 5.00000000E-03	 2.50000000E-02
					 7.50000000E-03	 1.00000000E-02	 2.50000000E-02
					 5.00000000E-03	 5.00000000E-03	 2.25000000E-02
					 5.00000000E-03	 7.50000000E-03	 2.50000000E-02
					 5.00000000E-03	 1.00000000E-02	 2.25000000E-02
					 1.00000000E-02	 5.00000000E-03	 3.00000000E-02
					 1.00000000E-02	 1.00000000E-02	 3.00000000E-02
					 5.00000000E-03	 5.00000000E-03	 3.00000000E-02
					 5.00000000E-03	 1.00000000E-02	 3.00000000E-02
					 1.00000000E-02	 5.00000000E-03	 2.75000000E-02
					 1.00000000E-02	 7.50000000E-03	 3.00000000E-02
					 1.00000000E-02	 1.00000000E-02	 2.75000000E-02
					 7.50000000E-03	 5.00000000E-03	 3.00000000E-02
					 7.50000000E-03	 1.00000000E-02	 3.00000000E-02
					 5.00000000E-03	 5.00000000E-03	 2.75000000E-02
					 5.00000000E-03	 7.50000000E-03	 3.00000000E-02
					 5.00000000E-03	 1.00000000E-02	 2.75000000E-02
					 1.00000000E-02	 5.00000000E-03	 3.50000000E-02
					 1.00000000E-02	 1.00000000E-02	 3.50000000E-02
					 5.00000000E-03	 5.00000000E-03	 3.50000000E-02
					 5.00000000E-03	 1.00000000E-02	 3.50000000E-02
					 1.00000000E-02	 5.00000000E-03	 3.25000000E-02
					 1.00000000E-02	 7.50000000E-03	 3.50000000E-02
					 1.00000000E-02	 1.00000000E-02	 3.25000000E-02
					 7.50000000E-03	 5.00000000E-03	 3.50000000E-02
					 7.50000000E-03	 1.00000000E-02	 3.50000000E-02
					 5.00000000E-03	 5.00000000E-03	 3.25000000E-02
					 5.00000000E-03	 7.50000000E-03	 3.50000000E-02
					 5.00000000E-03	 1.00000000E-02	 3.25000000E-02
					 1.00000000E-02	 5.00000000E-03	 4.00000000E-02
					 1.00000000E-02	 1.00000000E-02	 4.00000000E-02
					 5.00000000E-03	 5.00000000E-03	 4.00000000E-02
					 5.00000000E-03	 1.00000000E-02	 4.00000000E-02
					 1.00000000E-02	 5.00000000E-03	 3.75000000E-02
					 1.00000000E-02	 7.50000000E-03	 4.00000000E-02
					 1.00000000E-02	 1.00000000E-02	 3.75000000E-02
					 7.50000000E-03	 5.00000000E-03	 4.00000000E-02
					 7.50000000E-03	 1.00000000E-02	 4.00000000E-02
					 5.00000000E-03	 5.00000000E-03	 3.75000000E-02
					 5.00000000E-03	 7.50000000E-03	 4.00000000E-02
					 5.00000000E-03	 1.00000000E-02	 3.75000000E-02
					 1.00000000E-02	 5.00000000E-03	 4.50000000E-02
					 1.00000000E-02	 1.00000000E-02	 4.50000000E-02
					 5.00000000E-03	 5.00000000E-03	 4.50000000E-02
					 5.00000000E-03	 1.00000000E-02	 4.50000000E-02
					 1.00000000E-02	 5.00000000E-03	 4.25000000E-02
					 1.00000000E-02	 7.50000000E-03	 4.50000000E-02
					 1.00000000E-02	 1.00000000E-02	 4.25000000E-02
					 7.50000000E-03	 5.00000000E-03	 4.50000000E-02
					 7.50000000E-03	 1.00000000E-02	 4.50000000E-02
					 5.00000000E-03	 5.00000000E-03	 4.25000000E-02
					 5.00000000E-03	 7.50000000E-03	 4.50000000E-02
					 5.00000000E-03	 1.00000000E-02	 4.25000000E-02
					 1.00000000E-02	 5.00000000E-03	 5.00000000E-02
					 1.00000000E-02	 1.00000000E-02	 5.00000000E-02
					 5.00000000E-03	 5.00000000E-03	 5.00000000E-02
					 5.00000000E-03	 1.00000000E-02	 5.00000000E-02
					 1.00000000E-02	 5.00000000E-03	 4.75000000E-02
					 1.00000000E-02	 7.50000000E-03	 5.00000000E-02
					 1.00000000E-02	 1.00000000E-02	 4.75000000E-02
					 7.50000000E-03	 5.00000000E-03	 5.00000000E-02
					 7.50000000E-03	 1.00000000E-02	 5.00000000E-02
					 5.00000000E-03	 5.00000000E-03	 4.75000000E-02
					 5.00000000E-03	 7.50000000E-03	 5.00000000E-02
					 5.00000000E-03	 1.00000000E-02	 4.75000000E-02
					 1.00000000E-02	 5.00000000E-03	 5.50000000E-02
					 1.00000000E-02	 1.00000000E-02	 5.50000000E-02
					 5.00000000E-03	 5.00000000E-03	 5.50000000E-02
					 5.00000000E-03	 1.00000000E-02	 5.50000000E-02
					 1.00000000E-02	 5.00000000E-03	 5.25000000E-02
					 1.00000000E-02	 7.50000000E-03	 5.50000000E-02
					 1.00000000E-02	 1.00000000E-02	 5.25000000E-02
					 7.50000000E-03	 5.00000000E-03	 5.50000000E-02
					 7.50000000E-03	 1.00000000E-02	 5.50000000E-02
					 5.00000000E-03	 5.00000000E-03	 5.25000000E-02
					 5.00000000E-03	 7.50000000E-03	 5.50000000E-02
					 5.00000000E-03	 1.00000000E-02	 5.25000000E-02
					 1.00000000E-02	 5.00000000E-03	 6.00000000E-02
					 1.00000000E-02	 1.00000000E-02	 6.00000000E-02
					 5.00000000E-03	 5.00000000E-03	 6.00000000E-02
					 5.00000000E-03	 1.00000000E-02	 6.00000000E-02
					 1.00000000E-02	 5.00000000E-03	 5.75000000E-02
					 1.00000000E-02	 7.50000000E-03	 6.00000000E-02
					 1.00000000E-02	 1.00000000E-02	 5.75000000E-02
					 7.50000000E-03	 5.00000000E-03	 6.00000000E-02
					 7.50000000E-03	 1.00000000E-02	 6.00000000E-02
					 5.00000000E-03	 5.00000000E-03	 5.75000000E-02
					 5.00000000E-03	 7.50000000E-03	 6.00000000E-02
					 5.00000000E-03	 1.00000000E-02	 5.75000000E-02
					 1.00000000E-02	 5.00000000E-03	 6.50000000E-02
					 1.00000000E-02	 1.00000000E-02	 6.50000000E-02
					 5.00000000E-03	 5.00000000E-03	 6.50000000E-02
					 5.00000000E-03	 1.00000000E-02	 6.50000000E-02
					 1.00000000E-02	 5.00000000E-03	 6.25000000E-02
					 1.00000000E-02	 7.50000000E-03	 6.50000000E-02
					 1.00000000E-02	 1.00000000E-02	 6.25000000E-02
					 7.50000000E-03	 5.00000000E-03	 6.50000000E-02
					 7.50000000E-03	 1.00000000E-02	 6.50000000E-02
					 5.00000000E-03	 5.00000000E-03	 6.25000000E-02
					 5.00000000E-03	 7.50000000E-03	 6.50000000E-02
					 5.00000000E-03	 1.00000000E-02	 6.25000000E-02
					 1.00000000E-02	 5.00000000E-03	 7.00000000E-02
					 1.00000000E-02	 1.00000000E-02	 7.00000000E-02
					 5.00000000E-03	 5.00000000E-03	 7.00000000E-02
					 5.00000000E-03	 1.00000000E-02	 7.00000000E-02
					 1.00000000E-02	 5.00000000E-03	 6.75000000E-02
					 1.00000000E-02	 7.50000000E-03	 7.00000000E-02
					 1.00000000E-02	 1.00000000E-02	 6.75000000E-02
					 7.50000000E-03	 5.00000000E-03	 7.00000000E-02
					 7.50000000E-03	 1.00000000E-02	 7.00000000E-02
					 5.00000000E-03	 5.00000000E-03	 6.75000000E-02
					 5.00000000E-03	 7.50000000E-03	 7.00000000E-02
					 5.00000000E-03	 1.00000000E-02	 6.75000000E-02
					 1.00000000E-02	 5.00000000E-03	 7.50000000E-02
					 1.00000000E-02	 1.00000000E-02	 7.50000000E-02
					 5.00000000E-03	 5.00000000E-03	 7.50000000E-02
					 5.00000000E-03	 1.00000000E-02	 7.50000000E-02
					 1.00000000E-02	 5.00000000E-03	 7.25000000E-02
					 1.00000000E-02	 7.50000000E-03	 7.50000000E-02
					 1.00000000E-02	 1.00000000E-02	 7.25000000E-02
[...]
			<PointData>
				<DataArray type="Float32" Name="U" NumberOfComponents="3" ComponentName0="D1" ComponentName1="D2" ComponentName2="D3" format="ascii">
					 0.00000000E+00	 0.00000000E+00	 0.00000000E+00
					 0.00000000E+00	 0.00000000E+00	 0.00000000E+00
					 0.00000000E+00	 1.63629000E-01	 0.00000000E+00
					-1.58210000E-01	 1.58210000E-01	 0.00000000E+00
					 0.00000000E+00	 0.00000000E+00	 0.00000000E+00
					 0.00000000E+00	 0.00000000E+00	 0.00000000E+00
					 0.00000000E+00	 0.00000000E+00	 0.00000000E+00
					-1.63629000E-01	 0.00000000E+00	 0.00000000E+00
					 0.00000000E+00	 0.00000000E+00	 0.00000000E+00
					 0.00000000E+00	 8.20072000E-02	 0.00000000E+00
					-8.03765000E-02	 1.60455000E-01	 2.72980000E-02
					-7.21134000E-02	 7.21134000E-02	 0.00000000E+00
					 0.00000000E+00	 0.00000000E+00	 0.00000000E+00
					 0.00000000E+00	 0.00000000E+00	 0.00000000E+00
					 0.00000000E+00	 8.10017000E-02	 0.00000000E+00
					-1.60455000E-01	 8.03765000E-02	-2.72980000E-02
					 0.00000000E+00	 0.00000000E+00	 0.00000000E+00
					 0.00000000E+00	 0.00000000E+00	 0.00000000E+00
					-8.10017000E-02	 0.00000000E+00	 0.00000000E+00
					-8.20072000E-02	 0.00000000E+00	 0.00000000E+00
					 0.00000000E+00	 3.33376000E-01	 0.00000000E+00
					-3.34069000E-01	 3.34069000E-01	 0.00000000E+00
					 0.00000000E+00	 0.00000000E+00	 0.00000000E+00
					-3.33376000E-01	 0.00000000E+00	 0.00000000E+00
					 0.00000000E+00	 2.47574000E-01	 0.00000000E+00
					-1.66675000E-01	 3.33912000E-01	 2.46982000E-02
					-2.47799000E-01	 2.47799000E-01	 0.00000000E+00
					 0.00000000E+00	 1.66976000E-01	 0.00000000E+00
					-3.33912000E-01	 1.66675000E-01	-2.46982000E-02
					 0.00000000E+00	 0.00000000E+00	 0.00000000E+00
					-1.66976000E-01	 0.00000000E+00	 0.00000000E+00
					-2.47574000E-01	 0.00000000E+00	 0.00000000E+00
					 0.00000000E+00	 5.05062000E-01	 0.00000000E+00
					-5.05016000E-01	 5.05016000E-01	 0.00000000E+00
					 0.00000000E+00	 0.00000000E+00	 0.00000000E+00
					-5.05062000E-01	 0.00000000E+00	 0.00000000E+00
					 0.00000000E+00	 4.19356000E-01	 0.00000000E+00
					-2.52568000E-01	 5.04990000E-01	 2.46206000E-02
					-4.19564000E-01	 4.19564000E-01	 0.00000000E+00
					 0.00000000E+00	 2.52473000E-01	 0.00000000E+00
					-5.04990000E-01	 2.52568000E-01	-2.46206000E-02
					 0.00000000E+00	 0.00000000E+00	 0.00000000E+00
					-2.52473000E-01	 0.00000000E+00	 0.00000000E+00
					-4.19356000E-01	 0.00000000E+00	 0.00000000E+00
					 0.00000000E+00	 6.75400000E-01	 0.00000000E+00
					-6.75477000E-01	 6.75477000E-01	 0.00000000E+00
					 0.00000000E+00	 0.00000000E+00	 0.00000000E+00
					-6.75400000E-01	 0.00000000E+00	 0.00000000E+00
					 0.00000000E+00	 5.90341000E-01	 0.00000000E+00
					-3.37716000E-01	 6.75454000E-01	 2.45263000E-02
					-5.90355000E-01	 5.90355000E-01	 0.00000000E+00
					 0.00000000E+00	 3.37718000E-01	 0.00000000E+00
					-6.75454000E-01	 3.37716000E-01	-2.45263000E-02
					 0.00000000E+00	 0.00000000E+00	 0.00000000E+00
					-3.37718000E-01	 0.00000000E+00	 0.00000000E+00
					-5.90341000E-01	 0.00000000E+00	 0.00000000E+00
					 0.00000000E+00	 8.44817000E-01	 0.00000000E+00
					-8.44898000E-01	 8.44898000E-01	 0.00000000E+00
					 0.00000000E+00	 0.00000000E+00	 0.00000000E+00
					-8.44817000E-01	 0.00000000E+00	 0.00000000E+00
					 0.00000000E+00	 7.60255000E-01	 0.00000000E+00
					-4.22437000E-01	 8.44858000E-01	 2.43455000E-02
					-7.60338000E-01	 7.60338000E-01	 0.00000000E+00
					 0.00000000E+00	 4.22414000E-01	 0.00000000E+00
					-8.44858000E-01	 4.22437000E-01	-2.43455000E-02
					 0.00000000E+00	 0.00000000E+00	 0.00000000E+00
					-4.22414000E-01	 0.00000000E+00	 0.00000000E+00
					-7.60255000E-01	 0.00000000E+00	 0.00000000E+00
					 0.00000000E+00	 1.01290000E+00	 0.00000000E+00
					-1.01300000E+00	 1.01300000E+00	 0.00000000E+00
					 0.00000000E+00	 0.00000000E+00	 0.00000000E+00
					-1.01290000E+00	 0.00000000E+00	 0.00000000E+00
					 0.00000000E+00	 9.29040000E-01	 0.00000000E+00
					-5.06484000E-01	 1.01296000E+00	 2.41408000E-02
					-9.29129000E-01	 9.29129000E-01	 0.00000000E+00
					 0.00000000E+00	 5.06461000E-01	 0.00000000E+00
					-1.01296000E+00	 5.06484000E-01	-2.41408000E-02
					 0.00000000E+00	 0.00000000E+00	 0.00000000E+00
					-5.06461000E-01	 0.00000000E+00	 0.00000000E+00
					-9.29040000E-01	 0.00000000E+00	 0.00000000E+00
					 0.00000000E+00	 1.17943000E+00	 0.00000000E+00
					-1.17954000E+00	 1.17954000E+00	 0.00000000E+00
					 0.00000000E+00	 0.00000000E+00	 0.00000000E+00
					-1.17943000E+00	 0.00000000E+00	 0.00000000E+00
					 0.00000000E+00	 1.09638000E+00	 0.00000000E+00
					-5.89752000E-01	 1.17949000E+00	 2.38957000E-02
					-1.09648000E+00	 1.09648000E+00	 0.00000000E+00
					 0.00000000E+00	 5.89724000E-01	 0.00000000E+00
					-1.17949000E+00	 5.89752000E-01	-2.38957000E-02
					 0.00000000E+00	 0.00000000E+00	 0.00000000E+00
					-5.89724000E-01	 0.00000000E+00	 0.00000000E+00
					-1.09638000E+00	 0.00000000E+00	 0.00000000E+00
					 0.00000000E+00	 1.34413000E+00	 0.00000000E+00
					-1.34426000E+00	 1.34426000E+00	 0.00000000E+00
					 0.00000000E+00	 0.00000000E+00	 0.00000000E+00
					-1.34413000E+00	 0.00000000E+00	 0.00000000E+00
					 0.00000000E+00	 1.26202000E+00	 0.00000000E+00
					-6.72107000E-01	 1.34420000E+00	 2.36143000E-02
					-1.26214000E+00	 1.26214000E+00	 0.00000000E+00
					 0.00000000E+00	 6.72076000E-01	 0.00000000E+00
					-1.34420000E+00	 6.72107000E-01	-2.36143000E-02
					 0.00000000E+00	 0.00000000E+00	 0.00000000E+00
					-6.72076000E-01	 0.00000000E+00	 0.00000000E+00
					-1.26202000E+00	 0.00000000E+00	 0.00000000E+00
					 0.00000000E+00	 1.50675000E+00	 0.00000000E+00
					-1.50690000E+00	 1.50690000E+00	 0.00000000E+00
					 0.00000000E+00	 0.00000000E+00	 0.00000000E+00
					-1.50675000E+00	 0.00000000E+00	 0.00000000E+00
					 0.00000000E+00	 1.42571000E+00	 0.00000000E+00
					-7.53423000E-01	 1.50683000E+00	 2.32962000E-02
					-1.42585000E+00	 1.42585000E+00	 0.00000000E+00
					 0.00000000E+00	 7.53388000E-01	 0.00000000E+00
					-1.50683000E+00	 7.53423000E-01	-2.32962000E-02
					 0.00000000E+00	 0.00000000E+00	 0.00000000E+00
					-7.53388000E-01	 0.00000000E+00	 0.00000000E+00
					-1.42571000E+00	 0.00000000E+00	 0.00000000E+00
					 0.00000000E+00	 1.66704000E+00	 0.00000000E+00
					-1.66720000E+00	 1.66720000E+00	 0.00000000E+00
					 0.00000000E+00	 0.00000000E+00	 0.00000000E+00
					-1.66704000E+00	 0.00000000E+00	 0.00000000E+00
					 0.00000000E+00	 1.58720000E+00	 0.00000000E+00
					-8.33574000E-01	 1.66713000E+00	 2.29421000E-02
					-1.58736000E+00	 1.58736000E+00	 0.00000000E+00
					 0.00000000E+00	 8.33535000E-01	 0.00000000E+00
					-1.66713000E+00	 8.33574000E-01	-2.29421000E-02
					 0.00000000E+00	 0.00000000E+00	 0.00000000E+00
					-8.33535000E-01	 0.00000000E+00	 0.00000000E+00
					-1.58720000E+00	 0.00000000E+00	 0.00000000E+00
					 0.00000000E+00	 1.82475000E+00	 0.00000000E+00
					-1.82493000E+00	 1.82493000E+00	 0.00000000E+00
					 0.00000000E+00	 0.00000000E+00	 0.00000000E+00
					-1.82475000E+00	 0.00000000E+00	 0.00000000E+00
					 0.00000000E+00	 1.74623000E+00	 0.00000000E+00
					-9.12436000E-01	 1.82485000E+00	 2.25526000E-02
					-1.74640000E+00	 1.74640000E+00	 0.00000000E+00
					 0.00000000E+00	 9.12393000E-01	 0.00000000E+00
					-1.82485000E+00	 9.12436000E-01	-2.25526000E-02
					 0.00000000E+00	 0.00000000E+00	 0.00000000E+00
					-9.12393000E-01	 0.00000000E+00	 0.00000000E+00
					-1.74623000E+00	 0.00000000E+00	 0.00000000E+00
					 0.00000000E+00	 1.97964000E+00	 0.00000000E+00
					-1.97984000E+00	 1.97984000E+00	 0.00000000E+00
					 0.00000000E+00	 0.00000000E+00	 0.00000000E+00
					-1.97964000E+00	 0.00000000E+00	 0.00000000E+00
					 0.00000000E+00	 1.90257000E+00	 0.00000000E+00
					-9.89886000E-01	 1.97975000E+00	 2.21281000E-02
					-1.90275000E+00	 1.90275000E+00	 0.00000000E+00
					 0.00000000E+00	 9.89840000E-01	 0.00000000E+00
					-1.97975000E+00	 9.89886000E-01	-2.21281000E-02
					 0.00000000E+00	 0.00000000E+00	 0.00000000E+00
					-9.89840000E-01	 0.00000000E+00	 0.00000000E+00
					-1.90257000E+00	 0.00000000E+00	 0.00000000E+00
					 0.00000000E+00	 2.13148000E+00	 0.00000000E+00
					-2.13168000E+00	 2.13168000E+00	 0.00000000E+00
					 0.00000000E+00	 0.00000000E+00	 0.00000000E+00
					-2.13148000E+00	 0.00000000E+00	 0.00000000E+00
					 0.00000000E+00	 2.05596000E+00	 0.00000000E+00
					-1.06581000E+00	 2.13159000E+00	 2.16695000E-02
					-2.05616000E+00	 2.05616000E+00	 0.00000000E+00
					 0.00000000E+00	 1.06576000E+00	 0.00000000E+00
					-2.13159000E+00	 1.06581000E+00	-2.16695000E-02
					 0.00000000E+00	 0.00000000E+00	 0.00000000E+00
					-1.06576000E+00	 0.00000000E+00	 0.00000000E+00
					-2.05596000E+00	 0.00000000E+00	 0.00000000E+00
					 0.00000000E+00	 2.28001000E+00	 0.00000000E+00
					-2.28023000E+00	 2.28023000E+00	 0.00000000E+00
					 0.00000000E+00	 0.00000000E+00	 0.00000000E+00
					-2.28001000E+00	 0.00000000E+00	 0.00000000E+00
					 0.00000000E+00	 2.20617000E+00	 0.00000000E+00
					-1.14008000E+00	 2.28013000E+00	 2.11773000E-02
					-2.20638000E+00	 2.20638000E+00	 0.00000000E+00
					 0.00000000E+00	 1.14002000E+00	 0.00000000E+00
					-2.28013000E+00	 1.14008000E+00	-2.11773000E-02
					 0.00000000E+00	 0.00000000E+00	 0.00000000E+00
					-1.14002000E+00	 0.00000000E+00	 0.00000000E+00
					-2.20617000E+00	 0.00000000E+00	 0.00000000E+00
					 0.00000000E+00	 2.42502000E+00	 0.00000000E+00
					-2.42525000E+00	 2.42525000E+00	 0.00000000E+00
					 0.00000000E+00	 0.00000000E+00	 0.00000000E+00
					-2.42502000E+00	 0.00000000E+00	 0.00000000E+00
					 0.00000000E+00	 2.35297000E+00	 0.00000000E+00
					-1.21259000E+00	 2.42515000E+00	 2.06524000E-02
					-2.35320000E+00	 2.35320000E+00	 0.00000000E+00
					 0.00000000E+00	 1.21253000E+00	 0.00000000E+00
					-2.42515000E+00	 1.21259000E+00	-2.06524000E-02
					 0.00000000E+00	 0.00000000E+00	 0.00000000E+00
					-1.21253000E+00	 0.00000000E+00	 0.00000000E+00
					-2.35297000E+00	 0.00000000E+00	 0.00000000E+00
					 0.00000000E+00	 2.56628000E+00	 0.00000000E+00
					-2.56653000E+00	 2.56653000E+00	 0.00000000E+00
					 0.00000000E+00	 0.00000000E+00	 0.00000000E+00
					-2.56628000E+00	 0.00000000E+00	 0.00000000E+00
					 0.00000000E+00	 2.49613000E+00	 0.00000000E+00
					-1.28322000E+00	 2.56641000E+00	 2.00956000E-02
					-2.49637000E+00	 2.49637000E+00	 0.00000000E+00
					 0.00000000E+00	 1.28316000E+00	 0.00000000E+00
					-2.56641000E+00	 1.28322000E+00	-2.00956000E-02
					 0.00000000E+00	 0.00000000E+00	 0.00000000E+00
					-1.28316000E+00	 0.00000000E+00	 0.00000000E+00
					-2.49613000E+00	 0.00000000E+00	 0.00000000E+00
					 0.00000000E+00	 2.70357000E+00	 0.00000000E+00
					-2.70383000E+00	 2.70383000E+00	 0.00000000E+00
					 0.00000000E+00	 0.00000000E+00	 0.00000000E+00
					-2.70357000E+00	 0.00000000E+00	 0.00000000E+00
					 0.00000000E+00	 2.63543000E+00	 0.00000000E+00
					-1.35187000E+00	 2.70371000E+00	 1.95076000E-02
					-2.63569000E+00	 2.63569000E+00	 0.00000000E+00
					 0.00000000E+00	 1.35181000E+00	 0.00000000E+00
					-2.70371000E+00	 1.35187000E+00	-1.95076000E-02
					 0.00000000E+00	 0.00000000E+00	 0.00000000E+00
					-1.35181000E+00	 0.00000000E+00	 0.00000000E+00
					-2.63543000E+00	 0.00000000E+00	 0.00000000E+00
					 0.00000000E+00	 2.83667000E+00	 0.00000000E+00
					-2.83695000E+00	 2.83695000E+00	 0.00000000E+00
					 0.00000000E+00	 0.00000000E+00	 0.00000000E+00
					-2.83667000E+00	 0.00000000E+00	 0.00000000E+00
					 0.00000000E+00	 2.77066000E+00	 0.00000000E+00
					-1.41843000E+00	 2.83683000E+00	 1.88895000E-02
					-2.77093000E+00	 2.77093000E+00	 0.00000000E+00
					 0.00000000E+00	 1.41836000E+00	 0.00000000E+00
					-2.83683000E+00	 1.41843000E+00	-1.88895000E-02
					 0.00000000E+00	 0.00000000E+00	 0.00000000E+00
					-1.41836000E+00	 0.00000000E+00	 0.00000000E+00
					-2.77066000E+00	 0.00000000E+00	 0.00000000E+00
					 0.00000000E+00	 2.96540000E+00	 0.00000000E+00
					-2.96569000E+00	 2.96569000E+00	 0.00000000E+00
					 0.00000000E+00	 0.00000000E+00	 0.00000000E+00
					-2.96540000E+00	 0.00000000E+00	 0.00000000E+00
					 0.00000000E+00	 2.90160000E+00	 0.00000000E+00
					-1.48279000E+00	 2.96555000E+00	 1.82422000E-02
					-2.90188000E+00	 2.90188000E+00	 0.00000000E+00
					 0.00000000E+00	 1.48272000E+00	 0.00000000E+00
					-2.96555000E+00	 1.48279000E+00	-1.82422000E-02
					 0.00000000E+00	 0.00000000E+00	 0.00000000E+00
					-1.48272000E+00	 0.00000000E+00	 0.00000000E+00
					-2.90160000E+00	 0.00000000E+00	 0.00000000E+00
					 0.00000000E+00	 3.08953000E+00	 0.00000000E+00
					-3.08983000E+00	 3.08983000E+00	 0.00000000E+00
					 0.00000000E+00	 0.00000000E+00	 0.00000000E+00
					-3.08953000E+00	 0.00000000E+00	 0.00000000E+00
					 0.00000000E+00	 3.02805000E+00	 0.00000000E+00
					-1.54487000E+00	 3.08970000E+00	 1.75667000E-02
					-3.02835000E+00	 3.02835000E+00	 0.00000000E+00
					 0.00000000E+00	 1.54479000E+00	 0.00000000E+00
					-3.08970000E+00	 1.54487000E+00	-1.75667000E-02
					 0.00000000E+00	 0.00000000E+00	 0.00000000E+00
					-1.54479000E+00	 0.00000000E+00	 0.00000000E+00
					-3.02805000E+00	 0.00000000E+00	 0.00000000E+00
					 0.00000000E+00	 3.20889000E+00	 0.00000000E+00
					-3.20920000E+00	 3.20920000E+00	 0.00000000E+00
					 0.00000000E+00	 0.00000000E+00	 0.00000000E+00
					-3.20889000E+00	 0.00000000E+00	 0.00000000E+00
					 0.00000000E+00	 3.14982000E+00	 0.00000000E+00
					-1.60455000E+00	 3.20906000E+00	 1.68641000E-02
					-3.15013000E+00	 3.15013000E+00	 0.00000000E+00
					 0.00000000E+00	 1.60447000E+00	 0.00000000E+00
					-3.20906000E+00	 1.60455000E+00	-1.68641000E-02
					 0.00000000E+00	 0.00000000E+00	 0.00000000E+00
					-1.60447000E+00	 0.00000000E+00	 0.00000000E+00
					-3.14982000E+00	 0.00000000E+00	 0.00000000E+00
					 0.00000000E+00	 3.32329000E+00	 0.00000000E+00
					-3.32361000E+00	 3.32361000E+00	 0.00000000E+00
					 0.00000000E+00	 0.00000000E+00	 0.00000000E+00
					-3.32329000E+00	 0.00000000E+00	 0.00000000E+00
					 0.00000000E+00	 3.26672000E+00	 0.00000000E+00
					-1.66175000E+00	 3.32347000E+00	 1.61353000E-02
					-3.26704000E+00	 3.26704000E+00	 0.00000000E+00
					 0.00000000E+00	 1.66167000E+00	 0.00000000E+00
					-3.32347000E+00	 1.66175000E+00	-1.61353000E-02
					 0.00000000E+00	 0.00000000E+00	 0.00000000E+00
					-1.66167000E+00	 0.00000000E+00	 0.00000000E+00
					-3.26672000E+00	 0.00000000E+00	 0.00000000E+00
					 0.00000000E+00	 3.43255000E+00	 0.00000000E+00
					-3.43288000E+00	 3.43288000E+00	 0.00000000E+00
					 0.00000000E+00	 0.00000000E+00	 0.00000000E+00
					-3.43255000E+00	 0.00000000E+00	 0.00000000E+00
					 0.00000000E+00	 3.37857000E+00	 0.00000000E+00
					-1.71638000E+00	 3.43273000E+00	 1.53816000E-02
					-3.37890000E+00	 3.37890000E+00	 0.00000000E+00
					 0.00000000E+00	 1.71630000E+00	 0.00000000E+00
					-3.43273000E+00	 1.71638000E+00	-1.53816000E-02
					 0.00000000E+00	 0.00000000E+00	 0.00000000E+00
					-1.71630000E+00	 0.00000000E+00	 0.00000000E+00
					-3.37857000E+00	 0.00000000E+00	 0.00000000E+00
					 0.00000000E+00	 3.53650000E+00	 0.00000000E+00
					-3.53684000E+00	 3.53684000E+00	 0.00000000E+00
					 0.00000000E+00	 0.00000000E+00	 0.00000000E+00
					-3.53650000E+00	 0.00000000E+00	 0.00000000E+00
					 0.00000000E+00	 3.48519000E+00	 0.00000000E+00
					-1.76836000E+00	 3.53668000E+00	 1.46041000E-02
					-3.48553000E+00	 3.48553000E+00	 0.00000000E+00
					 0.00000000E+00	 1.76828000E+00	 0.00000000E+00
					-3.53668000E+00	 1.76836000E+00	-1.46041000E-02
					 0.00000000E+00	 0.00000000E+00	 0.00000000E+00
					-1.76828000E+00	 0.00000000E+00	 0.00000000E+00
					-3.48519000E+00	 0.00000000E+00	 0.00000000E+00
					 0.00000000E+00	 3.63498000E+00	 0.00000000E+00
					-3.63533000E+00	 3.63533000E+00	 0.00000000E+00
					 0.00000000E+00	 0.00000000E+00	 0.00000000E+00
					-3.63498000E+00	 0.00000000E+00	 0.00000000E+00
					 0.00000000E+00	 3.58643000E+00	 0.00000000E+00
					-1.81761000E+00	 3.63517000E+00	 1.38040000E-02
					-3.58678000E+00	 3.58678000E+00	 0.00000000E+00
					 0.00000000E+00	 1.81752000E+00	 0.00000000E+00
					-3.63517000E+00	 1.81761000E+00	-1.38040000E-02
					 0.00000000E+00	 0.00000000E+00	 0.00000000E+00
					-1.81752000E+00	 0.00000000E+00	 0.00000000E+00
					-3.58643000E+00	 0.00000000E+00	 0.00000000E+00
					 0.00000000E+00	 3.72784000E+00	 0.00000000E+00
					-3.72820000E+00	 3.72820000E+00	 0.00000000E+00
					 0.00000000E+00	 0.00000000E+00	 0.00000000E+00
					-3.72784000E+00	 0.00000000E+00	 0.00000000E+00
					 0.00000000E+00	 3.68212000E+00	 0.00000000E+00
					-1.86404000E+00	 3.72803000E+00	 1.29826000E-02
					-3.68248000E+00	 3.68248000E+00	 0.00000000E+00
					 0.00000000E+00	 1.86395000E+00	 0.00000000E+00
					-3.72803000E+00	 1.86404000E+00	-1.29826000E-02
					 0.00000000E+00	 0.00000000E+00	 0.00000000E+00
					-1.86395000E+00	 0.00000000E+00	 0.00000000E+00
					-3.68212000E+00	 0.00000000E+00	 0.00000000E+00
					 0.00000000E+00	 3.81493000E+00	 0.00000000E+00
					-3.81530000E+00	 3.81530000E+00	 0.00000000E+00
					 0.00000000E+00	 0.00000000E+00	 0.00000000E+00
					-3.81493000E+00	 0.00000000E+00	 0.00000000E+00
					 0.00000000E+00	 3.77211000E+00	 0.00000000E+00
					-1.90759000E+00	 3.81513000E+00	 1.21411000E-02
					-3.77248000E+00	 3.77248000E+00	 0.00000000E+00
					 0.00000000E+00	 1.90750000E+00	 0.00000000E+00
					-3.81513000E+00	 1.90759000E+00	-1.21411000E-02
					 0.00000000E+00	 0.00000000E+00	 0.00000000E+00
					-1.90750000E+00	 0.00000000E+00	 0.00000000E+00
					-3.77211000E+00	 0.00000000E+00	 0.00000000E+00
					 0.00000000E+00	 3.89613000E+00	 0.00000000E+00
					-3.89650000E+00	 3.89650000E+00	 0.00000000E+00
					 0.00000000E+00	 0.00000000E+00	 0.00000000E+00
					-3.89613000E+00	 0.00000000E+00	 0.00000000E+00
					 0.00000000E+00	 3.85627000E+00	 0.00000000E+00
					-1.94819000E+00	 3.89633000E+00	 1.12808000E-02
					-3.85665000E+00	 3.85665000E+00	 0.00000000E+00
					 0.00000000E+00	 1.94810000E+00	 0.00000000E+00
					-3.89633000E+00	 1.94819000E+00	-1.12808000E-02
					 0.00000000E+00	 0.00000000E+00	 0.00000000E+00
					-1.94810000E+00	 0.00000000E+00	 0.00000000E+00
					-3.85627000E+00	 0.00000000E+00	 0.00000000E+00
					 0.00000000E+00	 3.97130000E+00	 0.00000000E+00
					-3.97168000E+00	 3.97168000E+00	 0.00000000E+00
					 0.00000000E+00	 0.00000000E+00	 0.00000000E+00
					-3.97130000E+00	 0.00000000E+00	 0.00000000E+00
					 0.00000000E+00	 3.93447000E+00	 0.00000000E+00
					-1.98578000E+00	 3.97151000E+00	 1.04031000E-02
					-3.93485000E+00	 3.93485000E+00	 0.00000000E+00
					 0.00000000E+00	 1.98568000E+00	 0.00000000E+00
					-3.97151000E+00	 1.98578000E+00	-1.04031000E-02
					 0.00000000E+00	 0.00000000E+00	 0.00000000E+00
					-1.98568000E+00	 0.00000000E+00	 0.00000000E+00
					-3.93447000E+00	 0.00000000E+00	 0.00000000E+00
					 0.00000000E+00	 4.04032000E+00	 0.00000000E+00
					-4.04072000E+00	 4.04072000E+00	 0.00000000E+00
					 0.00000000E+00	 0.00000000E+00	 0.00000000E+00
					-4.04032000E+00	 0.00000000E+00	 0.00000000E+00
					 0.00000000E+00	 4.00658000E+00	 0.00000000E+00
					-2.02029000E+00	 4.04054000E+00	 9.50929000E-03
					-4.00697000E+00	 4.00697000E+00	 0.00000000E+00
					 0.00000000E+00	 2.02020000E+00	 0.00000000E+00
					-4.04054000E+00	 2.02029000E+00	-9.50929000E-03
					 0.00000000E+00	 0.00000000E+00	 0.00000000E+00
					-2.02020000E+00	 0.00000000E+00	 0.00000000E+00
					-4.00658000E+00	 0.00000000E+00	 0.00000000E+00
					 0.00000000E+00	 4.10311000E+00	 0.00000000E+00
					-4.10350000E+00	 4.10350000E+00	 0.00000000E+00
					 0.00000000E+00	 0.00000000E+00	 0.00000000E+00
					-4.10311000E+00	 0.00000000E+00	 0.00000000E+00
					 0.00000000E+00	 4.07250000E+00	 0.00000000E+00
					-2.05169000E+00	 4.10332000E+00	 8.60078000E-03