<?xml version="1.0"?>
<VTKFile type="UnstructuredGrid" version="0.1" byte_order="LittleEndian">
	<UnstructuredGrid>
		<Piece NumberOfPoints="321" NumberOfCells="40">
			<Points>
				<DataArray type="Float64" NumberOfComponents="3" format="ascii">
					 1.00000000E-02	 1.00000000E-02	 0.00000000E+00
					 1.00000000E-02	 5.00000000E-03	 0.00000000E+00
					 1.00000000E-02	 5.00000000E-03	 1.00000000E-02
					 1.00000000E-02	 1.00000000E-02	 1.00000000E-02
					 5.00000000E-03	 1.00000000E-02	 0.00000000E+00
					 5.00000000E-03	 5.00000000E-03	 0.00000000E+00
					 5.00000000E-03	 5.00000000E-03	 1.00000000E-02
					 5.00000000E-03	 1.00000000E-02	 1.00000000E-02
					 1.00000000E-02	 7.50000000E-03	 0.00000000E+00
					 1.00000000E-02	 5.00000000E-03	 5.00000000E-03
					 1.00000000E-02	 7.50000000E-03	 1.00000000E-02
					 1.00000000E-02	 1.00000000E-02	 5.00000000E-03
					 7.50000000E-03	 1.00000000E-02	 0.00000000E+00
					 7.50000000E-03	 5.00000000E-03	 0.00000000E+00
					 7.50000000E-03	 5.00000000E-03	 1.00000000E-02
					 7.50000000E-03	 1.00000000E-02	 1.00000000E-02
					 5.00000000E-03	 7.50000000E-03	 0.00000000E+00
					 5.00000000E-03	 5.00000000E-03	 5.00000000E-03
					 5.00000000E-03	 7.50000000E-03	 1.00000000E-02
					 5.00000000E-03	 1.00000000E-02	 5.00000000E-03
					 1.00000000E-02	 5.00000000E-03	 2.00000000E-02
					 1.00000000E-02	 1.00000000E-02	 2.00000000E-02
					 5.00000000E-03	 5.00000000E-03	 2.00000000E-02
					 5.00000000E-03	 1.00000000E-02	 2.00000000E-02
					 1.00000000E-02	 5.00000000E-03	 1.50000000E-02
					 1.00000000E-02	 7.50000000E-03	 2.00000000E-02
					 1.00000000E-02	 1.00000000E-02	 1.50000000E-02
					 7.50000000E-03	 5.00000000E-03	 2.00000000E-02
					 7.50000000E-03	 1.00000000E-02	 2.00000000E-02
					 5.00000000E-03	 5.00000000E-03	 1.50000000E-02
					 5.00000000E-03	 7.50000000E-03	 2.00000000E-02
					 5.00000000E-03	 1.00000000E-02	 1.50000000E-02
					 1.00000000E-02	 5.00000000E-03	 3.00000000E-02
					 1.00000000E-02	 1.00000000E-02	 3.00000000E-02
					 5.00000000E-03	 5.00000000E-03	 3.00000000E-02
					 5.00000000E-03	 1.00000000E-02	 3.00000000E-02
					 1.00000000E-02	 5.00000000E-03	 2.50000000E-02
					 1.00000000E-02	 7.50000000E-03	 3.00000000E-02
					 1.00000000E-02	 1.00000000E-02	 2.50000000E-02
					 7.50000000E-03	 5.00000000E-03	 3.00000000E-02
					 7.50000000E-03	 1.00000000E-02	 3.00000000E-02
					 5.00000000E-03	 5.00000000E-03	 2.50000000E-02
					 5.00000000E-03	 7.50000000E-03	 3.00000000E-02
					 5.00000000E-03	 1.00000000E-02	 2.50000000E-02
					 1.00000000E-02	 5.00000000E-03	 4.00000000E-02
					 1.00000000E-02	 1.00000000E-02	 4.00000000E-02
					 5.00000000E-03	 5.00000000E-03	 4.00000000E-02
					 5.00000000E-03	 1.00000000E-02	 4.00000000E-02
					 1.00000000E-02	 5.00000000E-03	 3.50000000E-02
					 1.00000000E-02	 7.50000000E-03	 4.00000000E-02
					 1.00000000E-02	 1.00000000E-02	 3.50000000E-02
					 7.50000000E-03	 5.00000000E-03	 4.00000000E-02
					 7.50000000E-03	 1.00000000E-02	 4.00000000E-02
					 5.00000000E-03	 5.00000000E-03	 3.50000000E-02
					 5.00000000E-03	 7.50000000E-03	 4.00000000E-02
					 5.00000000E-03	 1.00000000E-02	 3.50000000E-02
					 1.00000000E-02	 5.00000000E-03	 5.00000000E-02
					 1.00000000E-02	 1.00000000E-02	 5.00000000E-02
					 5.00000000E-03	 5.00000000E-03	 5.00000000E-02
					 5.00000000E-03	 1.00000000E-02	 5.00000000E-02
					 1.00000000E-02	 5.00000000E-03	 4.50000000E-02
					 1.00000000E-02	 7.50000000E-03	 5.00000000E-02
					 1.00000000E-02	 1.00000000E-02	 4.50000000E-02
					 7.50000000E-03	 5.00000000E-03	 5.00000000E-02
					 7.50000000E-03	 1.00000000E-02	 5.00000000E-02
					 5.00000000E-03	 5.00000000E-03	 4.50000000E-02
					 5.00000000E-03	 7.50000000E-03	 5.00000000E-02
					 5.00000000E-03	 1.00000000E-02	 4.50000000E-02
					 1.00000000E-02	 5.00000000E-03	 6.00000000E-02
					 1.00000000E-02	 1.00000000E-02	 6.00000000E-02
					 5.00000000E-03	 5.00000000E-03	 6.00000000E-02
					 5.00000000E-03	 1.00000000E-02	 6.00000000E-02
					 1.00000000E-02	 5.00000000E-03	 5.50000000E-02
					 1.00000000E-02	 7.50000000E-03	 6.00000000E-02
					 1.00000000E-02	 1.00000000E-02	 5.50000000E-02
					 7.50000000E-03	 5.00000000E-03	 6.00000000E-02
					 7.50000000E-03	 1.00000000E-02	 6.00000000E-02
					 5.00000000E-03	 5.00000000E-03	 5.50000000E-02
					 5.00000000E-03	 7.50000000E-03	 6.00000000E-02
					 5.00000000E-03	 1.00000000E-02	 5.50000000E-02
					 1.00000000E-02	 5.00000000E-03	 7.00000000E-02
					 1.00000000E-02	 1.00000000E-02	 7.00000000E-02
					 5.00000000E-03	 5.00000000E-03	 7.00000000E-02
					 5.00000000E-03	 1.00000000E-02	 7.00000000E-02
					 1.00000000E-02	 5.00000000E-03	 6.50000000E-02
					 1.00000000E-02	 7.50000000E-03	 7.00000000E-02
					 1.00000000E-02	 1.00000000E-02	 6.50000000E-02
					 7.50000000E-03	 5.00000000E-03	 7.00000000E-02
					 7.50000000E-03	 1.00000000E-02	 7.00000000E-02
					 5.00000000E-03	 5.00000000E-03	 6.50000000E-02
					 5.00000000E-03	 7.50000000E-03	 7.00000000E-02
					 5.00000000E-03	 1.00000000E-02	 6.50000000E-02
					 1.00000000E-02	 5.00000000E-03	 8.00000000E-02
					 1.00000000E-02	 1.00000000E-02	 8.00000000E-02
					 5.00000000E-03	 5.00000000E-03	 8.00000000E-02
					 5.00000000E-03	 1.00000000E-02	 8.00000000E-02
					 1.00000000E-02	 5.00000000E-03	 7.50000000E-02
					 1.00000000E-02	 7.50000000E-03	 8.00000000E-02
					 1.00000000E-02	 1.00000000E-02	 7.50000000E-02
					 7.50000000E-03	 5.00000000E-03	 8.00000000E-02
					 7.50000000E-03	 1.00000000E-02	 8.00000000E-02
					 5.00000000E-03	 5.00000000E-03	 7.50000000E-02
					 5.00000000E-03	 7.50000000E-03	 8.00000000E-02
					 5.00000000E-03	 1.00000000E-02	 7.50000000E-02
					 1.00000000E-02	 5.00000000E-03	 9.00000000E-02
					 1.00000000E-02	 1.00000000E-02	 9.00000000E-02
					 5.00000000E-03	 5.00000000E-03	 9.00000000E-02
					 5.00000000E-03	 1.00000000E-02	 9.00000000E-02
					 1.00000000E-02	 5.00000000E-03	 8.50000000E-02
					 1.00000000E-02	 7.50000000E-03	 9.00000000E-02
					 1.00000000E-02	 1.00000000E-02	 8.50000000E-02
					 7.50000000E-03	 5.00000000E-03	 9.00000000E-02
					 7.50000000E-03	 1.00000000E-02	 9.00000000E-02
					 5.00000000E-03	 5.00000000E-03	 8.50000000E-02
					 5.00000000E-03	 7.50000000E-03	 9.00000000E-02
					 5.00000000E-03	 1.00000000E-02	 8.50000000E-02
					 1.00000000E-02	 5.00000000E-03	 1.00000000E-01
					 1.00000000E-02	 1.00000000E-02	 1.00000000E-01
					 5.00000000E-03	 5.00000000E-03	 1.00000000E-01
					 5.00000000E-03	 1.00000000E-02	 1.00000000E-01
					 1.00000000E-02	 5.00000000E-03	 9.50000000E-02
					 1.00000000E-02	 7.50000000E-03	 1.00000000E-01
					 1.00000000E-02	 1.00000000E-02	 9.50000000E-02
					 7.50000000E-03	 5.00000000E-03	 1.00000000E-01
					 7.50000000E-03	 1.00000000E-02	 1.00000000E-01
					 5.00000000E-03	 5.00000000E-03	 9.50000000E-02
					 5.00000000E-03	 7.50000000E-03	 1.00000000E-01
					 5.00000000E-03	 1.00000000E-02	 9.50000000E-02
					 0.00000000E+00	 1.00000000E-02	 0.00000000E+00
					 0.00000000E+00	 5.00000000E-03	 0.00000000E+00
					 0.00000000E+00	 5.00000000E-03	 1.00000000E-02
					 0.00000000E+00	 1.00000000E-02	 1.00000000E-02
					 2.50000000E-03	 1.00000000E-02	 0.00000000E+00
					 2.50000000E-03	 5.00000000E-03	 0.00000000E+00
					 2.50000000E-03	 5.00000000E-03	 1.00000000E-02
					 2.50000000E-03	 1.00000000E-02	 1.00000000E-02
					 0.00000000E+00	 7.50000000E-03	 0.00000000E+00
					 0.00000000E+00	 5.00000000E-03	 5.00000000E-03
					 0.00000000E+00	 7.50000000E-03	 1.00000000E-02
					 0.00000000E+00	 1.00000000E-02	 5.00000000E-03
					 0.00000000E+00	 5.00000000E-03	 2.00000000E-02
					 0.00000000E+00	 1.00000000E-02	 2.00000000E-02
					 2.50000000E-03	 5.00000000E-03	 2.00000000E-02
					 2.50000000E-03	 1.00000000E-02	 2.00000000E-02
					 0.00000000E+00	 5.00000000E-03	 1.50000000E-02
					 0.00000000E+00	 7.50000000E-03	 2.00000000E-02
					 0.00000000E+00	 1.00000000E-02	 1.50000000E-02
					 0.00000000E+00	 5.00000000E-03	 3.00000000E-02
					 0.00000000E+00	 1.00000000E-02	 3.00000000E-02
					 2.50000000E-03	 5.00000000E-03	 3.00000000E-02
					 2.50000000E-03	 1.00000000E-02	 3.00000000E-02
					 0.00000000E+00	 5.00000000E-03	 2.50000000E-02
					 0.00000000E+00	 7.50000000E-03	 3.00000000E-02
					 0.00000000E+00	 1.00000000E-02	 2.50000000E-02
					 0.00000000E+00	 5.00000000E-03	 4.00000000E-02
					 0.00000000E+00	 1.00000000E-02	 4.00000000E-02
					 2.50000000E-03	 5.00000000E-03	 4.00000000E-02
					 2.50000000E-03	 1.00000000E-02	 4.00000000E-02
					 0.00000000E+00	 5.00000000E-03	 3.50000000E-02
					 0.00000000E+00	 7.50000000E-03	 4.00000000E-02
					 0.00000000E+00	 1.00000000E-02	 3.50000000E-02
					 0.00000000E+00	 5.00000000E-03	 5.00000000E-02
					 0.00000000E+00	 1.00000000E-02	 5.00000000E-02
					 2.50000000E-03	 5.00000000E-03	 5.00000000E-02
					 2.50000000E-03	 1.00000000E-02	 5.00000000E-02
					 0.00000000E+00	 5.00000000E-03	 4.50000000E-02
					 0.00000000E+00	 7.50000000E-03	 5.00000000E-02
					 0.00000000E+00	 1.00000000E-02	 4.50000000E-02
					 0.00000000E+00	 5.00000000E-03	 6.00000000E-02
					 0.00000000E+00	 1.00000000E-02	 6.00000000E-02
					 2.50000000E-03	 5.00000000E-03	 6.00000000E-02
					 2.50000000E-03	 1.00000000E-02	 6.00000000E-02
					 0.00000000E+00	 5.00000000E-03	 5.50000000E-02
					 0.00000000E+00	 7.50000000E-03	 6.00000000E-02
					 0.00000000E+00	 1.00000000E-02	 5.50000000E-02
					 0.00000000E+00	 5.00000000E-03	 7.00000000E-02
					 0.00000000E+00	 1.00000000E-02	 7.00000000E-02
					 2.50000000E-03	 5.00000000E-03	 7.00000000E-02
					 2.50000000E-03	 1.00000000E-02	 7.00000000E-02
					 0.00000000E+00	 5.00000000E-03	 6.50000000E-02
					 0.00000000E+00	 7.50000000E-03	 7.00000000E-02
					 0.00000000E+00	 1.00000000E-02	 6.50000000E-02
					 0.00000000E+00	 5.00000000E-03	 8.00000000E-02
					 0.00000000E+00	 1.00000000E-02	 8.00000000E-02
[...]
			<PointData>
				<DataArray type="Float32" Name="U" NumberOfComponents="3" ComponentName0="D1" ComponentName1="D2" ComponentName2="D3" format="ascii">
					 0.00000000E+00	 0.00000000E+00	 0.00000000E+00
					 0.00000000E+00	 0.00000000E+00	 0.00000000E+00
					-3.25521000E-01	 0.00000000E+00	 2.20389000E+00
					-3.14636000E-01	-3.14636000E-01	 2.17556000E+00
					 0.00000000E+00	 0.00000000E+00	 0.00000000E+00
					 0.00000000E+00	 0.00000000E+00	 0.00000000E+00
					 0.00000000E+00	 0.00000000E+00	 2.23315000E+00
					 0.00000000E+00	-3.25521000E-01	 2.20389000E+00
					 0.00000000E+00	 0.00000000E+00	 0.00000000E+00
					-3.47737000E-01	 0.00000000E+00	 1.05604000E+00
					-3.19538000E-01	-1.60039000E-01	 2.18829000E+00
					-3.47006000E-01	-3.47006000E-01	 1.11121000E+00
					 0.00000000E+00	 0.00000000E+00	 0.00000000E+00
					 0.00000000E+00	 0.00000000E+00	 0.00000000E+00
					-1.64380000E-01	 0.00000000E+00	 2.21718000E+00
					-1.60039000E-01	-3.19538000E-01	 2.18829000E+00
					 0.00000000E+00	 0.00000000E+00	 0.00000000E+00
					 0.00000000E+00	 0.00000000E+00	 9.99248000E-01
					 0.00000000E+00	-1.64380000E-01	 2.21718000E+00
					 0.00000000E+00	-3.47737000E-01	 1.05604000E+00
					-2.20911000E-01	 0.00000000E+00	 4.01889000E+00
					-2.19411000E-01	-2.19411000E-01	 3.98272000E+00
					 0.00000000E+00	 0.00000000E+00	 4.05321000E+00
					 0.00000000E+00	-2.20911000E-01	 4.01889000E+00
					-2.77831000E-01	 0.00000000E+00	 3.19844000E+00
					-2.20593000E-01	-1.10016000E-01	 4.01078000E+00
					-2.79784000E-01	-2.79784000E-01	 3.17046000E+00
					-1.11139000E-01	 0.00000000E+00	 4.04603000E+00
					-1.10016000E-01	-2.20593000E-01	 4.01078000E+00
					 0.00000000E+00	 0.00000000E+00	 3.22741000E+00
					 0.00000000E+00	-1.11139000E-01	 4.04603000E+00
					 0.00000000E+00	-2.77831000E-01	 3.19844000E+00
					-6.31460000E-02	 0.00000000E+00	 4.96256000E+00
					-6.30053000E-02	-6.30053000E-02	 4.92024000E+00
					 0.00000000E+00	 0.00000000E+00	 5.00468000E+00
					 0.00000000E+00	-6.31460000E-02	 4.96256000E+00
					-1.43342000E-01	 0.00000000E+00	 4.61969000E+00
					-6.29933000E-02	-3.19149000E-02	 4.95184000E+00
					-1.43631000E-01	-1.43631000E-01	 4.58032000E+00
					-3.19064000E-02	 0.00000000E+00	 4.99408000E+00
					-3.19149000E-02	-6.29933000E-02	 4.95184000E+00
					 0.00000000E+00	 0.00000000E+00	 4.65963000E+00
					 0.00000000E+00	-3.19064000E-02	 4.99408000E+00
					 0.00000000E+00	-1.43342000E-01	 4.61969000E+00
					 1.08089000E-01	 0.00000000E+00	 4.81215000E+00
					 1.08198000E-01	 1.08198000E-01	 4.77090000E+00
					 0.00000000E+00	 0.00000000E+00	 4.85333000E+00
					 0.00000000E+00	 1.08089000E-01	 4.81215000E+00
					 2.27847000E-02	 0.00000000E+00	 5.02808000E+00
					 1.08163000E-01	 5.45853000E-02	 4.80203000E+00
					 2.28122000E-02	 2.28122000E-02	 4.98466000E+00
					 5.45271000E-02	 0.00000000E+00	 4.84324000E+00
					 5.45853000E-02	 1.08163000E-01	 4.80203000E+00
					 0.00000000E+00	 0.00000000E+00	 5.07144000E+00
					 0.00000000E+00	 5.45271000E-02	 4.84324000E+00
					 0.00000000E+00	 2.27847000E-02	 5.02808000E+00
					 2.55345000E-01	 0.00000000E+00	 3.60317000E+00
					 2.55620000E-01	 2.55620000E-01	 3.57236000E+00
					 0.00000000E+00	 0.00000000E+00	 3.63398000E+00
					 0.00000000E+00	 2.55345000E-01	 3.60317000E+00
					 1.84399000E-01	 0.00000000E+00	 4.32883000E+00
					 2.55627000E-01	 1.28848000E-01	 3.59556000E+00
					 1.84605000E-01	 1.84605000E-01	 4.29154000E+00
					 1.28778000E-01	 0.00000000E+00	 3.62637000E+00
					 1.28848000E-01	 2.55627000E-01	 3.59556000E+00
					 0.00000000E+00	 0.00000000E+00	 4.36613000E+00
					 0.00000000E+00	 1.28778000E-01	 3.62637000E+00
					 0.00000000E+00	 1.84399000E-01	 4.32883000E+00
					 3.46440000E-01	 0.00000000E+00	 1.60104000E+00
					 3.46804000E-01	 3.46804000E-01	 1.58734000E+00
					 0.00000000E+00	 0.00000000E+00	 1.61473000E+00
					 0.00000000E+00	 3.46440000E-01	 1.60104000E+00
					 3.05303000E-01	 0.00000000E+00	 2.67705000E+00
					 3.46800000E-01	 1.74829000E-01	 1.59766000E+00
					 3.05653000E-01	 3.05653000E-01	 2.65396000E+00
					 1.74725000E-01	 0.00000000E+00	 1.61136000E+00
					 1.74829000E-01	 3.46800000E-01	 1.59766000E+00
					 0.00000000E+00	 0.00000000E+00	 2.70012000E+00
					 0.00000000E+00	 1.74725000E-01	 1.61136000E+00
					 0.00000000E+00	 3.05303000E-01	 2.67705000E+00
					 3.61272000E-01	 0.00000000E+00	-7.53446000E-01
					 3.61653000E-01	 3.61653000E-01	-7.46998000E-01
					 0.00000000E+00	 0.00000000E+00	-7.59890000E-01
					 0.00000000E+00	 3.61272000E-01	-7.53446000E-01
					 3.59048000E-01	 0.00000000E+00	 4.36001000E-01
					 3.61651000E-01	 1.82310000E-01	-7.51858000E-01
					 3.59457000E-01	 3.59457000E-01	 4.32245000E-01
					 1.82204000E-01	 0.00000000E+00	-7.58303000E-01
					 1.82310000E-01	 3.61651000E-01	-7.51858000E-01
					 0.00000000E+00	 0.00000000E+00	 4.39758000E-01
					 0.00000000E+00	 1.82204000E-01	-7.58303000E-01
					 0.00000000E+00	 3.59048000E-01	 4.36001000E-01
					 2.96589000E-01	 0.00000000E+00	-2.94212000E+00
					 2.96908000E-01	 2.96908000E-01	-2.91694000E+00
					 0.00000000E+00	 0.00000000E+00	-2.96728000E+00
					 0.00000000E+00	 2.96589000E-01	-2.94212000E+00
					 3.33756000E-01	 0.00000000E+00	-1.90100000E+00
					 2.96905000E-01	 1.49674000E-01	-2.93590000E+00
					 3.34138000E-01	 3.34138000E-01	-1.88461000E+00
					 1.49585000E-01	 0.00000000E+00	-2.96107000E+00
					 1.49674000E-01	 2.96905000E-01	-2.93590000E+00
					 0.00000000E+00	 0.00000000E+00	-1.91738000E+00
					 0.00000000E+00	 1.49585000E-01	-2.96107000E+00
					 0.00000000E+00	 3.33756000E-01	-1.90100000E+00
					 1.66652000E-01	 0.00000000E+00	-4.48321000E+00
					 1.66841000E-01	 1.66841000E-01	-4.44483000E+00
					 0.00000000E+00	 0.00000000E+00	-4.52157000E+00
					 0.00000000E+00	 1.66652000E-01	-4.48321000E+00
					 2.35020000E-01	 0.00000000E+00	-3.81958000E+00
					 1.66825000E-01	 8.41019000E-02	-4.47376000E+00
					 2.35281000E-01	 2.35281000E-01	-3.78666000E+00
					 8.40422000E-02	 0.00000000E+00	-4.51212000E+00
					 8.41019000E-02	 1.66825000E-01	-4.47376000E+00
					 0.00000000E+00	 0.00000000E+00	-3.85251000E+00
					 0.00000000E+00	 8.40422000E-02	-4.51212000E+00
					 0.00000000E+00	 2.35020000E-01	-3.81958000E+00
					 5.74523000E-04	 0.00000000E+00	-5.03790000E+00
					 7.51973000E-04	 7.51973000E-04	-4.99528000E+00
					 0.00000000E+00	 0.00000000E+00	-5.08063000E+00
					 0.00000000E+00	 5.74523000E-04	-5.03790000E+00
					 8.44914000E-02	 0.00000000E+00	-4.89752000E+00
					 6.93995000E-04	 3.52028000E-04	-5.02739000E+00
					 8.46095000E-02	 8.46095000E-02	-4.85549000E+00
					 2.91967000E-04	 0.00000000E+00	-5.07008000E+00
					 3.52028000E-04	 6.93995000E-04	-5.02739000E+00
					 0.00000000E+00	 0.00000000E+00	-4.93957000E+00
					 0.00000000E+00	 2.91967000E-04	-5.07008000E+00
					 0.00000000E+00	 8.44914000E-02	-4.89752000E+00
					 0.00000000E+00	 0.00000000E+00	 0.00000000E+00
					 0.00000000E+00	 0.00000000E+00	 0.00000000E+00
					 3.25521000E-01	 0.00000000E+00	 2.20389000E+00
					 3.14636000E-01	-3.14636000E-01	 2.17556000E+00
					 0.00000000E+00	 0.00000000E+00	 0.00000000E+00
					 0.00000000E+00	 0.00000000E+00	 0.00000000E+00
					 1.64380000E-01	 0.00000000E+00	 2.21718000E+00
					 1.60039000E-01	-3.19538000E-01	 2.18829000E+00
					 0.00000000E+00	 0.00000000E+00	 0.00000000E+00
					 3.47737000E-01	 0.00000000E+00	 1.05604000E+00
					 3.19538000E-01	-1.60039000E-01	 2.18829000E+00
					 3.47006000E-01	-3.47006000E-01	 1.11121000E+00
					 2.20911000E-01	 0.00000000E+00	 4.01889000E+00
					 2.19411000E-01	-2.19411000E-01	 3.98272000E+00
					 1.11139000E-01	 0.00000000E+00	 4.04603000E+00
					 1.10016000E-01	-2.20593000E-01	 4.01078000E+00
					 2.77831000E-01	 0.00000000E+00	 3.19844000E+00
					 2.20593000E-01	-1.10016000E-01	 4.01078000E+00
					 2.79784000E-01	-2.79784000E-01	 3.17046000E+00
					 6.31460000E-02	 0.00000000E+00	 4.96256000E+00
					 6.30053000E-02	-6.30053000E-02	 4.92024000E+00
					 3.19064000E-02	 0.00000000E+00	 4.99408000E+00
					 3.19149000E-02	-6.29933000E-02	 4.95184000E+00
					 1.43342000E-01	 0.00000000E+00	 4.61969000E+00
					 6.29933000E-02	-3.19149000E-02	 4.95184000E+00
					 1.43631000E-01	-1.43631000E-01	 4.58032000E+00
					-1.08089000E-01	 0.00000000E+00	 4.81215000E+00
					-1.08198000E-01	 1.08198000E-01	 4.77090000E+00
					-5.45271000E-02	 0.00000000E+00	 4.84324000E+00
					-5.45853000E-02	 1.08163000E-01	 4.80203000E+00
					-2.27847000E-02	 0.00000000E+00	 5.02808000E+00
					-1.08163000E-01	 5.45853000E-02	 4.80203000E+00
					-2.28122000E-02	 2.28122000E-02	 4.98466000E+00
					-2.55345000E-01	 0.00000000E+00	 3.60317000E+00
					-2.55620000E-01	 2.55620000E-01	 3.57236000E+00
					-1.28778000E-01	 0.00000000E+00	 3.62637000E+00
					-1.28848000E-01	 2.55627000E-01	 3.59556000E+00
					-1.84399000E-01	 0.00000000E+00	 4.32883000E+00
					-2.55627000E-01	 1.28848000E-01	 3.59556000E+00
					-1.84605000E-01	 1.84605000E-01	 4.29154000E+00
					-3.46440000E-01	 0.00000000E+00	 1.60104000E+00
					-3.46804000E-01	 3.46804000E-01	 1.58734000E+00
					-1.74725000E-01	 0.00000000E+00	 1.61136000E+00
					-1.74829000E-01	 3.46800000E-01	 1.59766000E+00
					-3.05303000E-01	 0.00000000E+00	 2.67705000E+00
					-3.46800000E-01	 1.74829000E-01	 1.59766000E+00
					-3.05653000E-01	 3.05653000E-01	 2.65396000E+00
					-3.61272000E-01	 0.00000000E+00	-7.53446000E-01
					-3.61653000E-01	 3.61653000E-01	-7.46998000E-01
					-1.82204000E-01	 0.00000000E+00	-7.58303000E-01
					-1.82310000E-01	 3.61651000E-01	-7.51858000E-01
					-3.59048000E-01	 0.00000000E+00	 4.36001000E-01
					-3.61651000E-01	 1.82310000E-01	-7.51858000E-01
					-3.59457000E-01	 3.59457000E-01	 4.32245000E-01
					-2.96589000E-01	 0.00000000E+00	-2.94212000E+00
					-2.96908000E-01	 2.96908000E-01	-2.91694000E+00
					-1.49585000E-01	 0.00000000E+00	-2.96107000E+00
					-1.49674000E-01	 2.96905000E-01	-2.93590000E+00
					-3.33756000E-01	 0.00000000E+00	-1.90100000E+00
					-2.96905000E-01	 1.49674000E-01	-2.93590000E+00
					-3.34138000E-01	 3.34138000E-01	-1.88461000E+00
					-1.66652000E-01	 0.00000000E+00	-4.48321000E+00
					-1.66841000E-01	 1.66841000E-01	-4.44483000E+00
					-8.40422000E-02	 0.00000000E+00	-4.51212000E+00
					-8.41019000E-02	 1.66825000E-01	-4.47376000E+00
					-2.35020000E-01	 0.00000000E+00	-3.81958000E+00
					-1.66825000E-01	 8.41019000E-02	-4.47376000E+00
					-2.35281000E-01	 2.35281000E-01	-3.78666000E+00
					-5.74523000E-04	 0.00000000E+00	-5.03790000E+00
					-7.51973000E-04	 7.51973000E-04	-4.99528000E+00
					-2.91967000E-04	 0.00000000E+00	-5.07008000E+00
					-3.52028000E-04	 6.93995000E-04	-5.02739000E+00
					-8.44914000E-02	 0.00000000E+00	-4.89752000E+00
					-6.93995000E-04	 3.52028000E-04	-5.02739000E+00
					-8.46095000E-02	 8.46095000E-02	-4.85549000E+00
					 0.00000000E+00	 0.00000000E+00	 0.00000000E+00
					-3.14636000E-01	 3.14636000E-01	 2.17556000E+00
					 0.00000000E+00	 0.00000000E+00	 0.00000000E+00
					 0.00000000E+00	 3.25521000E-01	 2.20389000E+00
					 0.00000000E+00	 0.00000000E+00	 0.00000000E+00
					-3.47006000E-01	 3.47006000E-01	 1.11121000E+00
					-3.19538000E-01	 1.60039000E-01	 2.18829000E+00
					 0.00000000E+00	 0.00000000E+00	 0.00000000E+00
					-1.60039000E-01	 3.19538000E-01	 2.18829000E+00
					 0.00000000E+00	 0.00000000E+00	 0.00000000E+00
					 0.00000000E+00	 3.47737000E-01	 1.05604000E+00
					 0.00000000E+00	 1.64380000E-01	 2.21718000E+00
					-2.19411000E-01	 2.19411000E-01	 3.98272000E+00
					 0.00000000E+00	 2.20911000E-01	 4.01889000E+00
					-2.79784000E-01	 2.79784000E-01	 3.17046000E+00
					-2.20593000E-01	 1.10016000E-01	 4.01078000E+00
					-1.10016000E-01	 2.20593000E-01	 4.01078000E+00
					 0.00000000E+00	 2.77831000E-01	 3.19844000E+00
					 0.00000000E+00	 1.11139000E-01	 4.04603000E+00
					-6.30053000E-02	 6.30053000E-02	 4.92024000E+00
					 0.00000000E+00	 6.31460000E-02	 4.96256000E+00
					-1.43631000E-01	 1.43631000E-01	 4.58032000E+00
					-6.29933000E-02	 3.19149000E-02	 4.95184000E+00
					-3.19149000E-02	 6.29933000E-02	 4.95184000E+00
					 0.00000000E+00	 1.43342000E-01	 4.61969000E+00
					 0.00000000E+00	 3.19064000E-02	 4.99408000E+00
					 1.08198000E-01	-1.08198000E-01	 4.77090000E+00
					 0.00000000E+00	-1.08089000E-01	 4.81215000E+00
					 2.28122000E-02	-2.28122000E-02	 4.98466000E+00
					 1.08163000E-01	-5.45853000E-02	 4.80203000E+00
					 5.45853000E-02	-1.08163000E-01	 4.80203000E+00
					 0.00000000E+00	-2.27847000E-02	 5.02808000E+00
					 0.00000000E+00	-5.45271000E-02	 4.84324000E+00
					 2.55620000E-01	-2.55620000E-01	 3.57236000E+00
					 0.00000000E+00	-2.55345000E-01	 3.60317000E+00
					 1.84605000E-01	-1.84605000E-01	 4.29154000E+00
					 2.55627000E-01	-1.28848000E-01	 3.59556000E+00
					 1.28848000E-01	-2.55627000E-01	 3.59556000E+00
					 0.00000000E+00	-1.84399000E-01	 4.32883000E+00
					 0.00000000E+00	-1.28778000E-01	 3.62637000E+00
					 3.46804000E-01	-3.46804000E-01	 1.58734000E+00
					 0.00000000E+00	-3.46440000E-01	 1.60104000E+00
					 3.05653000E-01	-3.05653000E-01	 2.65396000E+00
					 3.46800000E-01	-1.74829000E-01	 1.59766000E+00
					 1.74829000E-01	-3.46800000E-01	 1.59766000E+00
					 0.00000000E+00	-3.05303000E-01	 2.67705000E+00
					 0.00000000E+00	-1.74725000E-01	 1.61136000E+00
					 3.61653000E-01	-3.61653000E-01	-7.46998000E-01
					 0.00000000E+00	-3.61272000E-01	-7.53446000E-01
					 3.59457000E-01	-3.59457000E-01	 4.32245000E-01
					 3.61651000E-01	-1.82310000E-01	-7.51858000E-01
					 1.82310000E-01	-3.61651000E-01	-7.51858000E-01
					 0.00000000E+00	-3.59048000E-01	 4.36001000E-01
					 0.00000000E+00	-1.82204000E-01	-7.58303000E-01
					 2.96908000E-01	-2.96908000E-01	-2.91694000E+00
					 0.00000000E+00	-2.96589000E-01	-2.94212000E+00
					 3.34138000E-01	-3.34138000E-01	-1.88461000E+00
					 2.96905000E-01	-1.49674000E-01	-2.93590000E+00
					 1.49674000E-01	-2.96905000E-01	-2.93590000E+00
					 0.00000000E+00	-3.33756000E-01	-1.90100000E+00
					 0.00000000E+00	-1.49585000E-01	-2.96107000E+00
					 1.66841000E-01	-1.66841000E-01	-4.44483000E+00
					 0.00000000E+00	-1.66652000E-01	-4.48321000E+00
					 2.35281000E-01	-2.35281000E-01	-3.78666000E+00
					 1.66825000E-01	-8.41019000E-02	-4.47376000E+00
					 8.41019000E-02	-1.66825000E-01	-4.47376000E+00
					 0.00000000E+00	-2.35020000E-01	-3.81958000E+00
					 0.00000000E+00	-8.40422000E-02	-4.51212000E+00
					 7.51973000E-04	-7.51973000E-04	-4.99528000E+00
					 0.00000000E+00	-5.74523000E-04	-5.03790000E+00
					 8.46095000E-02	-8.46095000E-02	-4.85549000E+00
					 6.93995000E-04	-3.52028000E-04	-5.02739000E+00
					 3.52028000E-04	-6.93995000E-04	-5.02739000E+00
					 0.00000000E+00	-8.44914000E-02	-4.89752000E+00
					 0.00000000E+00	-2.91967000E-04	-5.07008000E+00
					 0.00000000E+00	 0.00000000E+00	 0.00000000E+00
					 3.14636000E-01	 3.14636000E-01	 2.17556000E+00
					 0.00000000E+00	 0.00000000E+00	 0.00000000E+00
					 1.60039000E-01	 3.19538000E-01	 2.18829000E+00
					 0.00000000E+00	 0.00000000E+00	 0.00000000E+00
					 3.47006000E-01	 3.47006000E-01	 1.11121000E+00
					 3.19538000E-01	 1.60039000E-01	 2.18829000E+00
					 2.19411000E-01	 2.19411000E-01	 3.98272000E+00
					 1.10016000E-01	 2.20593000E-01	 4.01078000E+00
					 2.79784000E-01	 2.79784000E-01	 3.17046000E+00
					 2.20593000E-01	 1.10016000E-01	 4.01078000E+00
					 6.30053000E-02	 6.30053000E-02	 4.92024000E+00
					 3.19149000E-02	 6.29933000E-02	 4.95184000E+00
					 1.43631000E-01	 1.43631000E-01	 4.58032000E+00
					 6.29933000E-02	 3.19149000E-02	 4.95184000E+00
					-1.08198000E-01	-1.08198000E-01	 4.77090000E+00
					-5.45853000E-02	-1.08163000E-01	 4.80203000E+00
					-2.28122000E-02	-2.28122000E-02	 4.98466000E+00
					-1.08163000E-01	-5.45853000E-02	 4.80203000E+00
					-2.55620000E-01	-2.55620000E-01	 3.57236000E+00
					-1.28848000E-01	-2.55627000E-01	 3.59556000E+00
					-1.84605000E-01	-1.84605000E-01	 4.29154000E+00
					-2.55627000E-01	-1.28848000E-01	 3.59556000E+00
					-3.46804000E-01	-3.46804000E-01	 1.58734000E+00
					-1.74829000E-01	-3.46800000E-01	 1.59766000E+00
					-3.05653000E-01	-3.05653000E-01	 2.65396000E+00
					-3.46800000E-01	-1.74829000E-01	 1.59766000E+00
					-3.61653000E-01	-3.61653000E-01	-7.46998000E-01
					-1.82310000E-01	-3.61651000E-01	-7.51858000E-01
					-3.59457000E-01	-3.59457000E-01	 4.32245000E-01
					-3.61651000E-01	-1.82310000E-01	-7.51858000E-01
					-2.96908000E-01	-2.96908000E-01	-2.91694000E+00
					-1.49674000E-01	-2.96905000E-01	-2.93590000E+00
					-3.34138000E-01	-3.34138000E-01	-1.88461000E+00
					-2.96905000E-01	-1.49674000E-01	-2.93590000E+00
					-1.66841000E-01	-1.66841000E-01	-4.44483000E+00
					-8.41019000E-02	-1.66825000E-01	-4.47376000E+00
					-2.35281000E-01	-2.35281000E-01	-3.78666000E+00
					-1.66825000E-01	-8.41019000E-02	-4.47376000E+00
					-7.51973000E-04	-7.51973000E-04	-4.99528000E+00
					-3.52028000E-04	-6.93995000E-04	-5.02739000E+00
					-8.46095000E-02	-8.46095000E-02	-4.85549000E+00
					-6.93995000E-04	-3.52028000E-04	-5.02739000E+00
				</DataArray>
				<DataArray type="Float32" Name="S" NumberOfComponents="10" ComponentName0="xx" ComponentName1="yy" ComponentName2="zz" ComponentName3="xy" ComponentName4="yz" ComponentName5="zx" ComponentName6="Mises" ComponentName7="Min Principal" ComponentName8="Mid Principal" ComponentName9="Max Principal" format="ascii">
					 2.74930000E+13	 2.74930000E+13	 6.41488000E+13	-2.20120000E+06	-8.66967000E+12	-8.66967000E+12	 4.23630351E+13	 2.37700868E+13	 2.74930022E+13	 6.78717110E+13
					 2.44761000E+13	 2.44761000E+13	 5.71092000E+13	 1.08480000E-03	 3.17681000E+00	-8.60537000E+12	 3.58758469E+13	 2.23459105E+13	 2.44761000E+13	 5.92393895E+13
					 1.64092000E+12	 1.43173000E+12	 4.87028000E+13	-6.89728000E-01	 3.89862000E+00	 1.63518000E+12	 4.72517791E+13	 1.43173000E+12	 1.58417357E+12	 4.87595464E+13
					 1.23728000E+12	 1.23728000E+12	 4.54108000E+13	 2.81809000E+11	 1.60710000E+12	 1.60710000E+12	 4.43512654E+13	 9.55471000E+11	 1.40171458E+12	 4.55281744E+13
					 2.44761000E+13	 2.44761000E+13	 5.71092000E+13	-5.62191000E-04	-8.60537000E+12	-1.35884000E+00	 3.58758469E+13	 2.23459105E+13	 2.44761000E+13	 5.92393895E+13
					 2.13695000E+13	 2.13695000E+13	 4.98605000E+13	 1.68359000E-03	 1.67203000E+00	 3.47871000E-01	 2.84910000E+13	 2.13695000E+13	 2.13695000E+13	 4.98605000E+13
					 2.62171000E+12	 2.62171000E+12	 5.25955000E+13	 5.53309000E-01	 1.06148000E+00	-2.53845000E-01	 4.99737900E+13	 2.62171000E+12	 2.62171000E+12	 5.25955000E+13
					 1.43173000E+12	 1.64092000E+12	 4.87028000E+13	-2.97455000E-01	 1.63518000E+12	-2.51569000E+00	 4.72517791E+13	 1.43173000E+12	 1.58417357E+12	 4.87595464E+13
					 2.59676000E+13	 2.59676000E+13	 6.05928000E+13	 9.47158000E+05	-4.35686000E+12	-8.63323000E+12	 3.84636080E+13	 2.34498954E+13	 2.59675992E+13	 6.31105053E+13
					-1.31637000E+12	-1.57318000E+12	 4.54172000E+13	-8.47702000E-02	 3.04224000E+00	-1.66872000E+12	 4.69515500E+13	-1.57318000E+12	-1.37587936E+12	 4.54767094E+13
					 1.53030000E+12	 1.40823000E+12	 4.72148000E+13	 2.28496000E+11	 5.27020000E+11	 1.61773000E+12	 4.58421878E+13	 1.22483809E+12	 1.65024365E+12	 4.72782483E+13
					-1.22999000E+12	-1.22999000E+12	 4.49511000E+13	-1.13112000E+10	-1.60371000E+12	-1.60371000E+12	 4.63478670E+13	-1.35238941E+12	-1.21867880E+12	 4.50621882E+13
					 2.59676000E+13	 2.59676000E+13	 6.05928000E+13	 9.47158000E+05	-8.63323000E+12	-4.35686000E+12	 3.84636080E+13	 2.34498954E+13	 2.59675992E+13	 6.31105053E+13
					 2.29070000E+13	 2.29070000E+13	 5.34515000E+13	-8.32081000E-05	 2.49225000E+00	-4.31582000E+12	 3.14459121E+13	 2.23089027E+13	 2.29070000E+13	 5.40495973E+13
					 2.20512000E+12	 2.11799000E+12	 5.08074000E+13	 9.12018000E-02	 2.19678000E+00	 5.35384000E+11	 4.86547412E+13	 2.11799000E+12	 2.19922313E+12	 5.08132969E+13