# vtk DataFile Version 3.0

ASCII
DATASET UNSTRUCTURED_GRID

POINTS 1221 double
	 1.00000000E-02	 1.00000000E-02	 0.00000000E+00
	 1.00000000E-02	 5.00000000E-03	 0.00000000E+00
	 1.00000000E-02	 5.00000000E-03	 5.00000000E-03
	 1.00000000E-02	 1.00000000E-02	 5.00000000E-03
	 5.00000000E-03	 1.00000000E-02	 0.00000000E+00
	 5.00000000E-03	 5.00000000E-03	 0.00000000E+00
	 5.00000000E-03	 5.00000000E-03	 5.00000000E-03
	 5.00000000E-03	 1.00000000E-02	 5.00000000E-03
	 1.00000000E-02	 7.50000000E-03	 0.00000000E+00
	 1.00000000E-02	 5.00000000E-03	 2.50000000E-03
	 1.00000000E-02	 7.50000000E-03	 5.00000000E-03
	 1.00000000E-02	 1.00000000E-02	 2.50000000E-03
	 7.50000000E-03	 1.00000000E-02	 0.00000000E+00
	 7.50000000E-03	 5.00000000E-03	 0.00000000E+00
	 7.50000000E-03	 5.00000000E-03	 5.00000000E-03
	 7.50000000E-03	 1.00000000E-02	 5.00000000E-03
	 5.00000000E-03	 7.50000000E-03	 0.00000000E+00
	 5.00000000E-03	 5.00000000E-03	 2.50000000E-03
	 5.00000000E-03	 7.50000000E-03	 5.00000000E-03
	 5.00000000E-03	 1.00000000E-02	 2.50000000E-03
	 1.00000000E-02	 5.00000000E-03	 1.00000000E-02
	 1.00000000E-02	 1.00000000E-02	 1.00000000E-02
	 5.00000000E-03	 5.00000000E-03	 1.00000000E-02
	 5.00000000E-03	 1.00000000E-02	 1.00000000E-02
	 1.00000000E-02	 5.00000000E-03	 7.50000000E-03
	 1.00000000E-02	 7.50000000E-03	 1.00000000E-02
	 1.00000000E-02	 1.00000000E-02	 7.50000000E-03
	 7.50000000E-03	 5.00000000E-03	 1.00000000E-02
	 7.50000000E-03	 1.00000000E-02	 1.00000000E-02
	 5.00000000E-03	 5.00000000E-03	 7.50000000E-03
	 5.00000000E-03	 7.50000000E-03	 1.00000000E-02
	 5.00000000E-03	 1.00000000E-02	 7.50000000E-03
	 1.00000000E-02	 5.00000000E-03	 1.50000000E-02
	 1.00000000E-02	 1.00000000E-02	 1.50000000E-02
	 5.00000000E-03	 5.00000000E-03	 1.50000000E-02
	 5.00000000E-03	 1.00000000E-02	 1.50000000E-02
	 1.00000000E-02	 5.00000000E-03	 1.25000000E-02
	 1.00000000E-02	 7.50000000E-03	 1.50000000E-02
	 1.00000000E-02	 1.00000000E-02	 1.25000000E-02
	 7.50000000E-03	 5.00000000E-03	 1.50000000E-02
	 7.50000000E-03	 1.00000000E-02	 1.50000000E-02
	 5.00000000E-03	 5.00000000E-03	 1.25000000E-02
	 5.00000000E-03	 7.50000000E-03	 1.50000000E-02
	 5.00000000E-03	 1.00000000E-02	 1.25000000E-02
	 1.00000000E-02	 5.00000000E-03	 2.00000000E-02
	 1.00000000E-02	 1.00000000E-02	 2.00000000E-02
	 5.00000000E-03	 5.00000000E-03	 2.00000000E-02
	 5.00000000E-03	 1.00000000E-02	 2.00000000E-02
	 1.00000000E-02	 5.00000000E-03	 1.75000000E-02
	 1.00000000E-02	 7.50000000E-03	 2.00000000E-02
	 1.00000000E-02	 1.00000000E-02	 1.75000000E-02
	 7.50000000E-03	 5.00000000E-03	 2.00000000E-02
	 7.50000000E-03	 1.00000000E-02	 2.00000000E-02
	 5.00000000E-03	 5.00000000E-03	 1.75000000E-02
	 5.00000000E-03	 7.50000000E-03	 2.00000000E-02
	 5.00000000E-03	 1.00000000E-02	 1.75000000E-02
	 1.00000000E-02	 5.00000000E-03	 2.50000000E-02
	 1.00000000E-02	 1.00000000E-02	 2.50000000E-02
	 5.00000000E-03	 5.00000000E-03	 2.50000000E-02
	 5.00000000E-03	 1.00000000E-02	 2.50000000E-02
	 1.00000000E-02	 5.00000000E-03	 2.25000000E-02
	 1.00000000E-02	 7.50000000E-03	 2.50000000E-02
	 1.00000000E-02	 1.00000000E-02	 2.25000000E-02
	 7.50000000E-03	 5.00000000E-03	 2.50000000E-02
	 7.50000000E-03	 1.00000000E-02	 2.50000000E-02
	 5.00000000E-03	 5.00000000E-03	 2.25000000E-02
	 5.00000000E-03	 7.50000000E-03	 2.50000000E-02
	 5.00000000E-03	 1.00000000E-02	 2.25000000E-02
	 1.00000000E-02	 5.00000000E-03	 3.00000000E-02
	 1.00000000E-02	 1.00000000E-02	 3.00000000E-02
	 5.00000000E-03	 5.00000000E-03	 3.00000000E-02
	 5.00000000E-03	 1.00000000E-02	 3.00000000E-02
	 1.00000000E-02	 5.00000000E-03	 2.75000000E-02
	 1.00000000E-02	 7.50000000E-03	 3.00000000E-02
	 1.00000000E-02	 1.00000000E-02	 2.75000000E-02
	 7.50000000E-03	 5.00000000E-03	 3.00000000E-02
	 7.50000000E-03	 1.00000000E-02	 3.00000000E-02
	 5.00000000E-03	 5.00000000E-03	 2.75000000E-02
	 5.00000000E-03	 7.50000000E-03	 3.00000000E-02
	 5.00000000E-03	 1.00000000E-02	 2.75000000E-02
	 1.00000000E-02	 5.00000000E-03	 3.50000000E-02
	 1.00000000E-02	 1.00000000E-02	 3.50000000E-02
	 5.00000000E-03	 5.00000000E-03	 3.50000000E-02
	 5.00000000E-03	 1.00000000E-02	 3.50000000E-02
	 1.00000000E-02	 5.00000000E-03	 3.25000000E-02
	 1.00000000E-02	 7.50000000E-03	 3.50000000E-02
	 1.00000000E-02	 1.00000000E-02	 3.25000000E-02
	 7.50000000E-03	 5.00000000E-03	 3.50000000E-02
	 7.50000000E-03	 1.00000000E-02	 3.50000000E-02
	 5.00000000E-03	 5.00000000E-03	 3.25000000E-02
	 5.00000000E-03	 7.50000000E-03	 3.50000000E-02
	 5.00000000E-03	 1.00000000E-02	 3.25000000E-02
	 1.00000000E-02	 5.00000000E-03	 4.00000000E-02
	 1.00000000E-02	 1.00000000E-02	 4.00000000E-02
	 5.00000000E-03	 5.00000000E-03	 4.00000000E-02
	 5.00000000E-03	 1.00000000E-02	 4.00000000E-02
	 1.00000000E-02	 5.00000000E-03	 3.75000000E-02
	 1.00000000E-02	 7.50000000E-03	 4.00000000E-02
	 1.00000000E-02	 1.00000000E-02	 3.75000000E-02
	 7.50000000E-03	 5.00000000E-03	 4.00000000E-02
	 7.50000000E-03	 1.00000000E-02	 4.00000000E-02
	 5.00000000E-03	 5.00000000E-03	 3.75000000E-02
	 5.00000000E-03	 7.50000000E-03	 4.00000000E-02
	 5.00000000E-03	 1.00000000E-02	 3.75000000E-02
	 1.00000000E-02	 5.00000000E-03	 4.50000000E-02
	 1.00000000E-02	 1.00000000E-02	 4.50000000E-02
	 5.00000000E-03	 5.00000000E-03	 4.50000000E-02
	 5.00000000E-03	 1.00000000E-02	 4.50000000E-02
	 1.00000000E-02	 5.00000000E-03	 4.25000000E-02
	 1.00000000E-02	 7.50000000E-03	 4.50000000E-02
	 1.00000000E-02	 1.00000000E-02	 4.25000000E-02
	 7.50000000E-03	 5.00000000E-03	 4.50000000E-02
	 7.50000000E-03	 1.00000000E-02	 4.50000000E-02
	 5.00000000E-03	 5.00000000E-03	 4.25000000E-02
	 5.00000000E-03	 7.50000000E-03	 4.50000000E-02
	 5.00000000E-03	 1.00000000E-02	 4.25000000E-02
	 1.00000000E-02	 5.00000000E-03	 5.00000000E-02
	 1.00000000E-02	 1.00000000E-02	 5.00000000E-02
	 5.00000000E-03	 5.00000000E-03	 5.00000000E-02
	 5.00000000E-03	 1.00000000E-02	 5.00000000E-02
	 1.00000000E-02	 5.00000000E-03	 4.75000000E-02
	 1.00000000E-02	 7.50000000E-03	 5.00000000E-02
	 1.00000000E-02	 1.00000000E-02	 4.75000000E-02
	 7.50000000E-03	 5.00000000E-03	 5.00000000E-02
	 7.50000000E-03	 1.00000000E-02	 5.00000000E-02
	 5.00000000E-03	 5.00000000E-03	 4.75000000E-02
	 5.00000000E-03	 7.50000000E-03	 5.00000000E-02
	 5.00000000E-03	 1.00000000E-02	 4.75000000E-02
	 1.00000000E-02	 5.00000000E-03	 5.50000000E-02
	 1.00000000E-02	 1.00000000E-02	 5.50000000E-02
	 5.00000000E-03	 5.00000000E-03	 5.50000000E-02
	 5.00000000E-03	 1.00000000E-02	 5.50000000E-02
	 1.00000000E-02	 5.00000000E-03	 5.25000000E-02
	 1.00000000E-02	 7.50000000E-03	 5.50000000E-02
	 1.00000000E-02	 1.00000000E-02	 5.25000000E-02
	 7.50000000E-03	 5.00000000E-03	 5.50000000E-02
	 7.50000000E-03	 1.00000000E-02	 5.50000000E-02
	 5.00000000E-03	 5.00000000E-03	 5.25000000E-02
	 5.00000000E-03	 7.50000000E-03	 5.50000000E-02
	 5.00000000E-03	 1.00000000E-02	 5.25000000E-02
	 1.00000000E-02	 5.00000000E-03	 6.00000000E-02
	 1.00000000E-02	 1.00000000E-02	 6.00000000E-02
	 5.00000000E-03	 5.00000000E-03	 6.00000000E-02
	 5.00000000E-03	 1.00000000E-02	 6.00000000E-02
	 1.00000000E-02	 5.00000000E-03	 5.75000000E-02
	 1.00000000E-02	 7.50000000E-03	 6.00000000E-02
	 1.00000000E-02	 1.00000000E-02	 5.75000000E-02
	 7.50000000E-03	 5.00000000E-03	 6.00000000E-02
	 7.50000000E-03	 1.00000000E-02	 6.00000000E-02
	 5.00000000E-03	 5.00000000E-03	 5.75000000E-02
	 5.00000000E-03	 7.50000000E-03	 6.00000000E-02
	 5.00000000E-03	 1.00000000E-02	 5.75000000E-02
	 1.00000000E-02	 5.00000000E-03	 6.50000000E-02
	 1.00000000E-02	 1.00000000E-02	 6.50000000E-02
	 5.00000000E-03	 5.00000000E-03	 6.50000000E-02
	 5.00000000E-03	 1.00000000E-02	 6.50000000E-02
	 1.00000000E-02	 5.00000000E-03	 6.25000000E-02
	 1.00000000E-02	 7.50000000E-03	 6.50000000E-02
	 1.00000000E-02	 1.00000000E-02	 6.25000000E-02
	 7.50000000E-03	 5.00000000E-03	 6.50000000E-02
	 7.50000000E-03	 1.00000000E-02	 6.50000000E-02
	 5.00000000E-03	 5.00000000E-03	 6.25000000E-02
	 5.00000000E-03	 7.50000000E-03	 6.50000000E-02
	 5.00000000E-03	 1.00000000E-02	 6.25000000E-02
	 1.00000000E-02	 5.00000000E-03	 7.00000000E-02
	 1.00000000E-02	 1.00000000E-02	 7.00000000E-02
	 5.00000000E-03	 5.00000000E-03	 7.00000000E-02
	 5.00000000E-03	 1.00000000E-02	 7.00000000E-02
	 1.00000000E-02	 5.00000000E-03	 6.75000000E-02
	 1.00000000E-02	 7.50000000E-03	 7.00000000E-02
	 1.00000000E-02	 1.00000000E-02	 6.75000000E-02
	 7.50000000E-03	 5.00000000E-03	 7.00000000E-02
	 7.50000000E-03	 1.00000000E-02	 7.00000000E-02
	 5.00000000E-03	 5.00000000E-03	 6.75000000E-02
	 5.00000000E-03	 7.50000000E-03	 7.00000000E-02
	 5.00000000E-03	 1.00000000E-02	 6.75000000E-02
	 1.00000000E-02	 5.00000000E-03	 7.50000000E-02
	 1.00000000E-02	 1.00000000E-02	 7.50000000E-02
	 5.00000000E-03	 5.00000000E-03	 7.50000000E-02
	 5.00000000E-03	 1.00000000E-02	 7.50000000E-02
	 1.00000000E-02	 5.00000000E-03	 7.25000000E-02
	 1.00000000E-02	 7.50000000E-03	 7.50000000E-02
	 1.00000000E-02	 1.00000000E-02	 7.25000000E-02
	 7.50000000E-03	 5.00000000E-03	 7.50000000E-02
	 7.50000000E-03	 1.00000000E-02	 7.50000000E-02
	 5.00000000E-03	 5.00000000E-03	 7.25000000E-02
	 5.00000000E-03	 7.50000000E-03	 7.50000000E-02
	 5.00000000E-03	 1.00000000E-02	 7.25000000E-02
	 1.00000000E-02	 5.00000000E-03	 8.00000000E-02
	 1.00000000E-02	 1.00000000E-02	 8.00000000E-02
	 5.00000000E-03	 5.00000000E-03	 8.00000000E-02
	 5.00000000E-03	 1.00000000E-02	 8.00000000E-02
	 1.00000000E-02	 5.00000000E-03	 7.75000000E-02
	 1.00000000E-02	 7.50000000E-03	 8.00000000E-02
	 1.00000000E-02	 1.00000000E-02	 7.75000000E-02
	 7.50000000E-03	 5.00000000E-03	 8.00000000E-02
	 7.50000000E-03	 1.00000000E-02	 8.00000000E-02
	 5.00000000E-03	 5.00000000E-03	 7.75000000E-02
	 5.00000000E-03	 7.50000000E-03	 8.00000000E-02
	 5.00000000E-03	 1.00000000E-02	 7.75000000E-02
	 1.00000000E-02	 5.00000000E-03	 8.50000000E-02
	 1.00000000E-02	 1.00000000E-02	 8.50000000E-02
[...]
POINT_DATA 1221
FIELD U 1
	U 3 1221 double
		 0.00000000E+00	 0.00000000E+00	 0.00000000E+00
		 0.00000000E+00	 0.00000000E+00	 0.00000000E+00
		 0.00000000E+00	 4.89774000E-01	 0.00000000E+00
		-4.73880000E-01	 4.73880000E-01	 0.00000000E+00
		 0.00000000E+00	 0.00000000E+00	 0.00000000E+00
		 0.00000000E+00	 0.00000000E+00	 0.00000000E+00
		 0.00000000E+00	 0.00000000E+00	 0.00000000E+00
		-4.89774000E-01	 0.00000000E+00	 0.00000000E+00
		 0.00000000E+00	 0.00000000E+00	 0.00000000E+00
		 0.00000000E+00	 2.45832000E-01	 0.00000000E+00
		-2.40695000E-01	 4.80450000E-01	 8.15375000E-02
		-2.16304000E-01	 2.16304000E-01	 0.00000000E+00
		 0.00000000E+00	 0.00000000E+00	 0.00000000E+00
		 0.00000000E+00	 0.00000000E+00	 0.00000000E+00
		 0.00000000E+00	 2.42482000E-01	 0.00000000E+00
		-4.80450000E-01	 2.40695000E-01	-8.15375000E-02
		 0.00000000E+00	 0.00000000E+00	 0.00000000E+00
		 0.00000000E+00	 0.00000000E+00	 0.00000000E+00
		-2.42482000E-01	 0.00000000E+00	 0.00000000E+00
		-2.45832000E-01	 0.00000000E+00	 0.00000000E+00
		 0.00000000E+00	 9.91918000E-01	 0.00000000E+00
		-9.94768000E-01	 9.94768000E-01	 0.00000000E+00
		 0.00000000E+00	 0.00000000E+00	 0.00000000E+00
		-9.91918000E-01	 0.00000000E+00	 0.00000000E+00
		 0.00000000E+00	 7.39201000E-01	 0.00000000E+00
		-4.96176000E-01	 9.93950000E-01	 7.24180000E-02
		-7.40451000E-01	 7.40451000E-01	 0.00000000E+00
		 0.00000000E+00	 4.96892000E-01	 0.00000000E+00
		-9.93950000E-01	 4.96176000E-01	-7.24180000E-02
		 0.00000000E+00	 0.00000000E+00	 0.00000000E+00
		-4.96892000E-01	 0.00000000E+00	 0.00000000E+00
		-7.39201000E-01	 0.00000000E+00	 0.00000000E+00
		 0.00000000E+00	 1.48763000E+00	 0.00000000E+00
		-1.48865000E+00	 1.48865000E+00	 0.00000000E+00
		 0.00000000E+00	 0.00000000E+00	 0.00000000E+00
		-1.48763000E+00	 0.00000000E+00	 0.00000000E+00
		 0.00000000E+00	 1.24210000E+00	 0.00000000E+00
		-7.44309000E-01	 1.48804000E+00	 6.99688000E-02
		-1.24369000E+00	 1.24369000E+00	 0.00000000E+00
		 0.00000000E+00	 7.43744000E-01	 0.00000000E+00
		-1.48804000E+00	 7.44309000E-01	-6.99688000E-02
		 0.00000000E+00	 0.00000000E+00	 0.00000000E+00
		-7.43744000E-01	 0.00000000E+00	 0.00000000E+00
		-1.24210000E+00	 0.00000000E+00	 0.00000000E+00
		 0.00000000E+00	 1.96096000E+00	 0.00000000E+00
		-1.96271000E+00	 1.96271000E+00	 0.00000000E+00
		 0.00000000E+00	 0.00000000E+00	 0.00000000E+00
		-1.96096000E+00	 0.00000000E+00	 0.00000000E+00
		 0.00000000E+00	 1.72729000E+00	 0.00000000E+00
		-9.81030000E-01	 1.96195000E+00	 6.66114000E-02
		-1.72867000E+00	 1.72867000E+00	 0.00000000E+00
		 0.00000000E+00	 9.80670000E-01	 0.00000000E+00
		-1.96195000E+00	 9.81030000E-01	-6.66114000E-02
		 0.00000000E+00	 0.00000000E+00	 0.00000000E+00
		-9.80670000E-01	 0.00000000E+00	 0.00000000E+00
		-1.72729000E+00	 0.00000000E+00	 0.00000000E+00
		 0.00000000E+00	 2.40739000E+00	 0.00000000E+00
		-2.40950000E+00	 2.40950000E+00	 0.00000000E+00
		 0.00000000E+00	 0.00000000E+00	 0.00000000E+00
		-2.40739000E+00	 0.00000000E+00	 0.00000000E+00
		 0.00000000E+00	 2.18798000E+00	 0.00000000E+00
		-1.20440000E+00	 2.40854000E+00	 6.21821000E-02
		-2.18992000E+00	 2.18992000E+00	 0.00000000E+00
		 0.00000000E+00	 1.20388000E+00	 0.00000000E+00
		-2.40854000E+00	 1.20440000E+00	-6.21821000E-02
		 0.00000000E+00	 0.00000000E+00	 0.00000000E+00
		-1.20388000E+00	 0.00000000E+00	 0.00000000E+00
		-2.18798000E+00	 0.00000000E+00	 0.00000000E+00
		 0.00000000E+00	 2.82029000E+00	 0.00000000E+00
		-2.82276000E+00	 2.82276000E+00	 0.00000000E+00
		 0.00000000E+00	 0.00000000E+00	 0.00000000E+00
		-2.82029000E+00	 0.00000000E+00	 0.00000000E+00
		 0.00000000E+00	 2.61839000E+00	 0.00000000E+00
		-1.41096000E+00	 2.82164000E+00	 5.69297000E-02
		-2.62069000E+00	 2.62069000E+00	 0.00000000E+00
		 0.00000000E+00	 1.41037000E+00	 0.00000000E+00
		-2.82164000E+00	 1.41096000E+00	-5.69297000E-02
		 0.00000000E+00	 0.00000000E+00	 0.00000000E+00
		-1.41037000E+00	 0.00000000E+00	 0.00000000E+00
		-2.61839000E+00	 0.00000000E+00	 0.00000000E+00
		 0.00000000E+00	 3.19398000E+00	 0.00000000E+00
		-3.19678000E+00	 3.19678000E+00	 0.00000000E+00
		 0.00000000E+00	 0.00000000E+00	 0.00000000E+00
		-3.19398000E+00	 0.00000000E+00	 0.00000000E+00
		 0.00000000E+00	 3.01237000E+00	 0.00000000E+00
		-1.59792000E+00	 3.19551000E+00	 5.08763000E-02
		-3.01501000E+00	 3.01501000E+00	 0.00000000E+00
		 0.00000000E+00	 1.59724000E+00	 0.00000000E+00
		-3.19551000E+00	 1.59792000E+00	-5.08763000E-02
		 0.00000000E+00	 0.00000000E+00	 0.00000000E+00
		-1.59724000E+00	 0.00000000E+00	 0.00000000E+00
		-3.01237000E+00	 0.00000000E+00	 0.00000000E+00
		 0.00000000E+00	 3.52326000E+00	 0.00000000E+00
		-3.52635000E+00	 3.52635000E+00	 0.00000000E+00
		 0.00000000E+00	 0.00000000E+00	 0.00000000E+00
		-3.52326000E+00	 0.00000000E+00	 0.00000000E+00
		 0.00000000E+00	 3.36447000E+00	 0.00000000E+00
		-1.76265000E+00	 3.52495000E+00	 4.41176000E-02
		-3.36742000E+00	 3.36742000E+00	 0.00000000E+00
		 0.00000000E+00	 1.76191000E+00	 0.00000000E+00
		-3.52495000E+00	 1.76265000E+00	-4.41176000E-02
		 0.00000000E+00	 0.00000000E+00	 0.00000000E+00
		-1.76191000E+00	 0.00000000E+00	 0.00000000E+00
		-3.36447000E+00	 0.00000000E+00	 0.00000000E+00
		 0.00000000E+00	 3.80356000E+00	 0.00000000E+00
		-3.80690000E+00	 3.80690000E+00	 0.00000000E+00
		 0.00000000E+00	 0.00000000E+00	 0.00000000E+00
		-3.80356000E+00	 0.00000000E+00	 0.00000000E+00
		 0.00000000E+00	 3.66980000E+00	 0.00000000E+00
		-1.90289000E+00	 3.80539000E+00	 3.67451000E-02
		-3.67301000E+00	 3.67301000E+00	 0.00000000E+00
		 0.00000000E+00	 1.90208000E+00	 0.00000000E+00
		-3.80539000E+00	 1.90289000E+00	-3.67451000E-02
		 0.00000000E+00	 0.00000000E+00	 0.00000000E+00
		-1.90208000E+00	 0.00000000E+00	 0.00000000E+00
		-3.66980000E+00	 0.00000000E+00	 0.00000000E+00
		 0.00000000E+00	 4.03098000E+00	 0.00000000E+00
		-4.03451000E+00	 4.03451000E+00	 0.00000000E+00
		 0.00000000E+00	 0.00000000E+00	 0.00000000E+00
		-4.03098000E+00	 0.00000000E+00	 0.00000000E+00
		 0.00000000E+00	 3.92410000E+00	 0.00000000E+00
		-2.01666000E+00	 4.03291000E+00	 2.88618000E-02
		-3.92754000E+00	 3.92754000E+00	 0.00000000E+00
		 0.00000000E+00	 2.01581000E+00	 0.00000000E+00
		-4.03291000E+00	 2.01666000E+00	-2.88618000E-02
		 0.00000000E+00	 0.00000000E+00	 0.00000000E+00
		-2.01581000E+00	 0.00000000E+00	 0.00000000E+00
		-3.92410000E+00	 0.00000000E+00	 0.00000000E+00
		 0.00000000E+00	 4.20236000E+00	 0.00000000E+00
		-4.20604000E+00	 4.20604000E+00	 0.00000000E+00
		 0.00000000E+00	 0.00000000E+00	 0.00000000E+00
		-4.20236000E+00	 0.00000000E+00	 0.00000000E+00
		 0.00000000E+00	 4.12384000E+00	 0.00000000E+00
		-2.10240000E+00	 4.20437000E+00	 2.05772000E-02
		-4.12746000E+00	 4.12746000E+00	 0.00000000E+00
		 0.00000000E+00	 2.10151000E+00	 0.00000000E+00
		-4.20437000E+00	 2.10240000E+00	-2.05772000E-02
		 0.00000000E+00	 0.00000000E+00	 0.00000000E+00
		-2.10151000E+00	 0.00000000E+00	 0.00000000E+00
		-4.12384000E+00	 0.00000000E+00	 0.00000000E+00
		 0.00000000E+00	 4.31530000E+00	 0.00000000E+00
		-4.31908000E+00	 4.31908000E+00	 0.00000000E+00
		 0.00000000E+00	 0.00000000E+00	 0.00000000E+00
		-4.31530000E+00	 0.00000000E+00	 0.00000000E+00
		 0.00000000E+00	 4.26625000E+00	 0.00000000E+00
		-2.15890000E+00	 4.31737000E+00	 1.20065000E-02
		-4.26999000E+00	 4.26999000E+00	 0.00000000E+00
		 0.00000000E+00	 2.15799000E+00	 0.00000000E+00
		-4.31737000E+00	 2.15890000E+00	-1.20065000E-02
		 0.00000000E+00	 0.00000000E+00	 0.00000000E+00
		-2.15799000E+00	 0.00000000E+00	 0.00000000E+00
		-4.26625000E+00	 0.00000000E+00	 0.00000000E+00
		 0.00000000E+00	 4.36825000E+00	 0.00000000E+00
		-4.37208000E+00	 4.37208000E+00	 0.00000000E+00
		 0.00000000E+00	 0.00000000E+00	 0.00000000E+00
		-4.36825000E+00	 0.00000000E+00	 0.00000000E+00
		 0.00000000E+00	 4.34934000E+00	 0.00000000E+00
		-2.18539000E+00	 4.37035000E+00	 3.26888000E-03
		-4.35316000E+00	 4.35316000E+00	 0.00000000E+00
		 0.00000000E+00	 2.18447000E+00	 0.00000000E+00
		-4.37035000E+00	 2.18539000E+00	-3.26888000E-03
		 0.00000000E+00	 0.00000000E+00	 0.00000000E+00
		-2.18447000E+00	 0.00000000E+00	 0.00000000E+00
		-4.34934000E+00	 0.00000000E+00	 0.00000000E+00
		 0.00000000E+00	 4.36047000E+00	 0.00000000E+00
		-4.36429000E+00	 4.36429000E+00	 0.00000000E+00
		 0.00000000E+00	 0.00000000E+00	 0.00000000E+00
		-4.36047000E+00	 0.00000000E+00	 0.00000000E+00
		 0.00000000E+00	 4.37196000E+00	 0.00000000E+00
		-2.18150000E+00	 4.36256000E+00	-5.51418000E-03
		-4.37580000E+00	 4.37580000E+00	 0.00000000E+00
		 0.00000000E+00	 2.18058000E+00	 0.00000000E+00
		-4.36256000E+00	 2.18150000E+00	 5.51418000E-03
		 0.00000000E+00	 0.00000000E+00	 0.00000000E+00
		-2.18058000E+00	 0.00000000E+00	 0.00000000E+00
		-4.37196000E+00	 0.00000000E+00	 0.00000000E+00
		 0.00000000E+00	 4.29206000E+00	 0.00000000E+00
		-4.29582000E+00	 4.29582000E+00	 0.00000000E+00
		 0.00000000E+00	 0.00000000E+00	 0.00000000E+00
		-4.29206000E+00	 0.00000000E+00	 0.00000000E+00
		 0.00000000E+00	 4.33380000E+00	 0.00000000E+00
		-2.14728000E+00	 4.29412000E+00	-1.42206000E-02
		-4.33760000E+00	 4.33760000E+00	 0.00000000E+00
		 0.00000000E+00	 2.14637000E+00	 0.00000000E+00
		-4.29412000E+00	 2.14728000E+00	 1.42206000E-02
		 0.00000000E+00	 0.00000000E+00	 0.00000000E+00
		-2.14637000E+00	 0.00000000E+00	 0.00000000E+00
		-4.33380000E+00	 0.00000000E+00	 0.00000000E+00
		 0.00000000E+00	 4.16398000E+00	 0.00000000E+00
		-4.16763000E+00	 4.16763000E+00	 0.00000000E+00
		 0.00000000E+00	 0.00000000E+00	 0.00000000E+00
		-4.16398000E+00	 0.00000000E+00	 0.00000000E+00
		 0.00000000E+00	 4.23539000E+00	 0.00000000E+00
		-2.08320000E+00	 4.16597000E+00	-2.27293000E-02
		-4.23910000E+00	 4.23910000E+00	 0.00000000E+00
		 0.00000000E+00	 2.08232000E+00	 0.00000000E+00
		-4.16597000E+00	 2.08320000E+00	 2.27293000E-02
		 0.00000000E+00	 0.00000000E+00	 0.00000000E+00
		-2.08232000E+00	 0.00000000E+00	 0.00000000E+00
		-4.23539000E+00	 0.00000000E+00	 0.00000000E+00
		 0.00000000E+00	 3.97801000E+00	 0.00000000E+00
		-3.98149000E+00	 3.98149000E+00	 0.00000000E+00
		 0.00000000E+00	 0.00000000E+00	 0.00000000E+00
		-3.97801000E+00	 0.00000000E+00	 0.00000000E+00
		 0.00000000E+00	 4.07808000E+00	 0.00000000E+00
		-1.99016000E+00	 3.97991000E+00	-3.09219000E-02
		-4.08166000E+00	 4.08166000E+00	 0.00000000E+00
		 0.00000000E+00	 1.98932000E+00	 0.00000000E+00
		-3.97991000E+00	 1.99016000E+00	 3.09219000E-02
		 0.00000000E+00	 0.00000000E+00	 0.00000000E+00
		-1.98932000E+00	 0.00000000E+00	 0.00000000E+00
		-4.07808000E+00	 0.00000000E+00	 0.00000000E+00
		 0.00000000E+00	 3.73672000E+00	 0.00000000E+00
		-3.74000000E+00	 3.74000000E+00	 0.00000000E+00
		 0.00000000E+00	 0.00000000E+00	 0.00000000E+00
		-3.73672000E+00	 0.00000000E+00	 0.00000000E+00
		 0.00000000E+00	 3.86408000E+00	 0.00000000E+00
		-1.86945000E+00	 3.73851000E+00	-3.86847000E-02
		-3.86747000E+00	 3.86747000E+00	 0.00000000E+00
		 0.00000000E+00	 1.86866000E+00	 0.00000000E+00
		-3.73851000E+00	 1.86945000E+00	 3.86847000E-02
		 0.00000000E+00	 0.00000000E+00	 0.00000000E+00
		-1.86866000E+00	 0.00000000E+00	 0.00000000E+00
		-3.86408000E+00	 0.00000000E+00	 0.00000000E+00
		 0.00000000E+00	 3.44349000E+00	 0.00000000E+00
		-3.44650000E+00	 3.44650000E+00	 0.00000000E+00
		 0.00000000E+00	 0.00000000E+00	 0.00000000E+00
		-3.44349000E+00	 0.00000000E+00	 0.00000000E+00
		 0.00000000E+00	 3.59636000E+00	 0.00000000E+00
		-1.72274000E+00	 3.44514000E+00	-4.59096000E-02
		-3.59951000E+00	 3.59951000E+00	 0.00000000E+00
		 0.00000000E+00	 1.72202000E+00	 0.00000000E+00
		-3.44514000E+00	 1.72274000E+00	 4.59096000E-02
		 0.00000000E+00	 0.00000000E+00	 0.00000000E+00
		-1.72202000E+00	 0.00000000E+00	 0.00000000E+00
		-3.59636000E+00	 0.00000000E+00	 0.00000000E+00
		 0.00000000E+00	 3.10238000E+00	 0.00000000E+00
		-3.10509000E+00	 3.10509000E+00	 0.00000000E+00
		 0.00000000E+00	 0.00000000E+00	 0.00000000E+00
		-3.10238000E+00	 0.00000000E+00	 0.00000000E+00
		 0.00000000E+00	 3.27863000E+00	 0.00000000E+00
		-1.55209000E+00	 3.10386000E+00	-5.24962000E-02
		-3.28151000E+00	 3.28151000E+00	 0.00000000E+00
		 0.00000000E+00	 1.55143000E+00	 0.00000000E+00
		-3.10386000E+00	 1.55209000E+00	 5.24962000E-02
		 0.00000000E+00	 0.00000000E+00	 0.00000000E+00
		-1.55143000E+00	 0.00000000E+00	 0.00000000E+00
		-3.27863000E+00	 0.00000000E+00	 0.00000000E+00
		 0.00000000E+00	 2.71813000E+00	 0.00000000E+00
		-2.72051000E+00	 2.72051000E+00	 0.00000000E+00
		 0.00000000E+00	 0.00000000E+00	 0.00000000E+00
		-2.71813000E+00	 0.00000000E+00	 0.00000000E+00
		 0.00000000E+00	 2.91532000E+00	 0.00000000E+00
		-1.35985000E+00	 2.71943000E+00	-5.83530000E-02
		-2.91788000E+00	 2.91788000E+00	 0.00000000E+00
		 0.00000000E+00	 1.35928000E+00	 0.00000000E+00
		-2.71943000E+00	 1.35985000E+00	 5.83530000E-02
		 0.00000000E+00	 0.00000000E+00	 0.00000000E+00
		-1.35928000E+00	 0.00000000E+00	 0.00000000E+00
		-2.91532000E+00	 0.00000000E+00	 0.00000000E+00
		 0.00000000E+00	 2.29610000E+00	 0.00000000E+00
		-2.29811000E+00	 2.29811000E+00	 0.00000000E+00
		 0.00000000E+00	 0.00000000E+00	 0.00000000E+00
		-2.29610000E+00	 0.00000000E+00	 0.00000000E+00
		 0.00000000E+00	 2.51148000E+00	 0.00000000E+00
		-1.14871000E+00	 2.29720000E+00	-6.33984000E-02
		-2.51368000E+00	 2.51368000E+00	 0.00000000E+00
		 0.00000000E+00	 1.14823000E+00	 0.00000000E+00
		-2.29720000E+00	 1.14871000E+00	 6.33984000E-02
		 0.00000000E+00	 0.00000000E+00	 0.00000000E+00
		-1.14823000E+00	 0.00000000E+00	 0.00000000E+00
		-2.51148000E+00	 0.00000000E+00	 0.00000000E+00
		 0.00000000E+00	 1.84214000E+00	 0.00000000E+00
		-1.84375000E+00	 1.84375000E+00	 0.00000000E+00
		 0.00000000E+00	 0.00000000E+00	 0.00000000E+00
		-1.84214000E+00	 0.00000000E+00	 0.00000000E+00
		 0.00000000E+00	 2.07272000E+00	 0.00000000E+00
		-9.21603000E-01	 1.84302000E+00	-6.75624000E-02
		-2.07454000E+00	 2.07454000E+00	 0.00000000E+00
		 0.00000000E+00	 9.21215000E-01	 0.00000000E+00
		-1.84302000E+00	 9.21603000E-01	 6.75624000E-02
		 0.00000000E+00	 0.00000000E+00	 0.00000000E+00
		-9.21215000E-01	 0.00000000E+00	 0.00000000E+00
		-2.07272000E+00	 0.00000000E+00	 0.00000000E+00
		 0.00000000E+00	 1.36257000E+00	 0.00000000E+00
		-1.36376000E+00	 1.36376000E+00	 0.00000000E+00
		 0.00000000E+00	 0.00000000E+00	 0.00000000E+00
		-1.36257000E+00	 0.00000000E+00	 0.00000000E+00
		 0.00000000E+00	 1.60514000E+00	 0.00000000E+00
		-6.81678000E-01	 1.36322000E+00	-7.07870000E-02
		-1.60655000E+00	 1.60655000E+00	 0.00000000E+00
		 0.00000000E+00	 6.81391000E-01	 0.00000000E+00
		-1.36322000E+00	 6.81678000E-01	 7.07870000E-02
		 0.00000000E+00	 0.00000000E+00	 0.00000000E+00
		-6.81391000E-01	 0.00000000E+00	 0.00000000E+00
		-1.60514000E+00	 0.00000000E+00	 0.00000000E+00
		 0.00000000E+00	 8.64052000E-01	 0.00000000E+00
		-8.64808000E-01	 8.64808000E-01	 0.00000000E+00
		 0.00000000E+00	 0.00000000E+00	 0.00000000E+00
		-8.64052000E-01	 0.00000000E+00	 0.00000000E+00
		 0.00000000E+00	 1.11525000E+00	 0.00000000E+00
		-4.32276000E-01	 8.64465000E-01	-7.30275000E-02
		-1.11623000E+00	 1.11623000E+00	 0.00000000E+00
		 0.00000000E+00	 4.32094000E-01	 0.00000000E+00
		-8.64465000E-01	 4.32276000E-01	 7.30275000E-02
		 0.00000000E+00	 0.00000000E+00	 0.00000000E+00
		-4.32094000E-01	 0.00000000E+00	 0.00000000E+00
		-1.11525000E+00	 0.00000000E+00	 0.00000000E+00
		 0.00000000E+00	 3.53523000E-01	 0.00000000E+00
		-3.53833000E-01	 3.53833000E-01	 0.00000000E+00
		 0.00000000E+00	 0.00000000E+00	 0.00000000E+00
		-3.53523000E-01	 0.00000000E+00	 0.00000000E+00
		 0.00000000E+00	 6.09848000E-01	 0.00000000E+00
		-1.76864000E-01	 3.53693000E-01	-7.42527000E-02
		-6.10383000E-01	 6.10383000E-01	 0.00000000E+00
		 0.00000000E+00	 1.76790000E-01	 0.00000000E+00
		-3.53693000E-01	 1.76864000E-01	 7.42527000E-02
		 0.00000000E+00	 0.00000000E+00	 0.00000000E+00
		-1.76790000E-01	 0.00000000E+00	 0.00000000E+00
		-6.09848000E-01	 0.00000000E+00	 0.00000000E+00
		 0.00000000E+00	-1.61920000E-01	 0.00000000E+00
		 1.62062000E-01	-1.62062000E-01	 0.00000000E+00
		 0.00000000E+00	 0.00000000E+00	 0.00000000E+00
		 1.61920000E-01	 0.00000000E+00	 0.00000000E+00
		 0.00000000E+00	 9.59686000E-02	 0.00000000E+00
		 8.10069000E-02	-1.61997000E-01	-7.44455000E-02
		-9.60528000E-02	 9.60528000E-02	 0.00000000E+00
		 0.00000000E+00	-8.09728000E-02	 0.00000000E+00
		 1.61997000E-01	-8.10069000E-02	 7.44455000E-02
		 0.00000000E+00	 0.00000000E+00	 0.00000000E+00
		 8.09728000E-02	 0.00000000E+00	 0.00000000E+00
		-9.59686000E-02	 0.00000000E+00	 0.00000000E+00
		 0.00000000E+00	-6.75112000E-01	 0.00000000E+00
		 6.75703000E-01	-6.75703000E-01	 0.00000000E+00
		 0.00000000E+00	 0.00000000E+00	 0.00000000E+00
		 6.75112000E-01	 0.00000000E+00	 0.00000000E+00
		 0.00000000E+00	-4.19245000E-01	 0.00000000E+00
		 3.37752000E-01	-6.75435000E-01	-7.36032000E-02
		 4.19613000E-01	-4.19613000E-01	 0.00000000E+00
		 0.00000000E+00	-3.37609000E-01	 0.00000000E+00
		 6.75435000E-01	-3.37752000E-01	 7.36032000E-02
		 0.00000000E+00	 0.00000000E+00	 0.00000000E+00
		 3.37609000E-01	 0.00000000E+00	 0.00000000E+00
		 4.19245000E-01	 0.00000000E+00	 0.00000000E+00
		 0.00000000E+00	-1.17892000E+00	 0.00000000E+00
		 1.17995000E+00	-1.17995000E+00	 0.00000000E+00
		 0.00000000E+00	 0.00000000E+00	 0.00000000E+00
		 1.17892000E+00	 0.00000000E+00	 0.00000000E+00
		 0.00000000E+00	-9.28630000E-01	 0.00000000E+00
		 5.89801000E-01	-1.17948000E+00	-7.17377000E-02
		 9.29444000E-01	-9.29444000E-01	 0.00000000E+00
		 0.00000000E+00	-5.89552000E-01	 0.00000000E+00
		 1.17948000E+00	-5.89801000E-01	 7.17377000E-02
		 0.00000000E+00	 0.00000000E+00	 0.00000000E+00
		 5.89552000E-01	 0.00000000E+00	 0.00000000E+00
		 9.28630000E-01	 0.00000000E+00	 0.00000000E+00
		 0.00000000E+00	-1.66633000E+00	 0.00000000E+00
		 1.66779000E+00	-1.66779000E+00	 0.00000000E+00
		 0.00000000E+00	 0.00000000E+00	 0.00000000E+00
		 1.66633000E+00	 0.00000000E+00	 0.00000000E+00
		 0.00000000E+00	-1.42510000E+00	 0.00000000E+00
		 8.33650000E-01	-1.66713000E+00	-6.88747000E-02
		 1.42635000E+00	-1.42635000E+00	 0.00000000E+00
		 0.00000000E+00	-8.33298000E-01	 0.00000000E+00
		 1.66713000E+00	-8.33650000E-01	 6.88747000E-02
		 0.00000000E+00	 0.00000000E+00	 0.00000000E+00
		 8.33298000E-01	 0.00000000E+00	 0.00000000E+00
		 1.42510000E+00	 0.00000000E+00	 0.00000000E+00
		 0.00000000E+00	-2.13058000E+00	 0.00000000E+00
		 2.13245000E+00	-2.13245000E+00	 0.00000000E+00
		 0.00000000E+00	 0.00000000E+00	 0.00000000E+00
		 2.13058000E+00	 0.00000000E+00	 0.00000000E+00
		 0.00000000E+00	-1.90176000E+00	 0.00000000E+00
		 1.06591000E+00	-2.13160000E+00	-6.50541000E-02
		 1.90343000E+00	-1.90343000E+00	 0.00000000E+00
		 0.00000000E+00	-1.06546000E+00	 0.00000000E+00
		 2.13160000E+00	-1.06591000E+00	 6.50541000E-02
		 0.00000000E+00	 0.00000000E+00	 0.00000000E+00
		 1.06546000E+00	 0.00000000E+00	 0.00000000E+00
		 1.90176000E+00	 0.00000000E+00	 0.00000000E+00
		 0.00000000E+00	-2.56521000E+00	 0.00000000E+00
		 2.56745000E+00	-2.56745000E+00	 0.00000000E+00
		 0.00000000E+00	 0.00000000E+00	 0.00000000E+00
		 2.56521000E+00	 0.00000000E+00	 0.00000000E+00
		 0.00000000E+00	-2.35198000E+00	 0.00000000E+00
		 1.28335000E+00	-2.56643000E+00	-6.03291000E-02
		 2.35405000E+00	-2.35405000E+00	 0.00000000E+00
		 0.00000000E+00	-1.28281000E+00	 0.00000000E+00
		 2.56643000E+00	-1.28335000E+00	 6.03291000E-02
		 0.00000000E+00	 0.00000000E+00	 0.00000000E+00
		 1.28281000E+00	 0.00000000E+00	 0.00000000E+00
		 2.35198000E+00	 0.00000000E+00	 0.00000000E+00
		 0.00000000E+00	-2.96417000E+00	 0.00000000E+00
		 2.96676000E+00	-2.96676000E+00	 0.00000000E+00
		 0.00000000E+00	 0.00000000E+00	 0.00000000E+00
		 2.96417000E+00	 0.00000000E+00	 0.00000000E+00
		 0.00000000E+00	-2.76950000E+00	 0.00000000E+00
		 1.48294000E+00	-2.96558000E+00	-5.47653000E-02
		 2.77193000E+00	-2.77193000E+00	 0.00000000E+00