<?xml version="1.0"?>
<VTKFile type="UnstructuredGrid" version="0.1" byte_order="LittleEndian">
	<UnstructuredGrid>
		<Piece NumberOfPoints="321" NumberOfCells="40">
			<Points>
				<DataArray type="Float64" NumberOfComponents="3" format="ascii">
					 1.00000000E-02	 1.00000000E-02	 0.00000000E+00
					 1.00000000E-02	 5.00000000E-03	 0.00000000E+00
					 1.00000000E-02	 5.00000000E-03	 1.00000000E-02
					 1.00000000E-02	 1.00000000E-02	 1.00000000E-02
					 5.00000000E-03	 1.00000000E-02	 0.00000000E+00
					 5.00000000E-03	 5.00000000E-03	 0.00000000E+00
					 5.00000000E-03	 5.00000000E-03	 1.00000000E-02
					 5.00000000E-03	 1.00000000E-02	 1.00000000E-02
					 1.00000000E-02	 7.50000000E-03	 0.00000000E+00
					 1.00000000E-02	 5.00000000E-03	 5.00000000E-03
					 1.00000000E-02	 7.50000000E-03	 1.00000000E-02
					 1.00000000E-02	 1.00000000E-02	 5.00000000E-03
					 7.50000000E-03	 1.00000000E-02	 0.00000000E+00
					 7.50000000E-03	 5.00000000E-03	 0.00000000E+00
					 7.50000000E-03	 5.00000000E-03	 1.00000000E-02
					 7.50000000E-03	 1.00000000E-02	 1.00000000E-02
					 5.00000000E-03	 7.50000000E-03	 0.00000000E+00
					 5.00000000E-03	 5.00000000E-03	 5.00000000E-03
					 5.00000000E-03	 7.50000000E-03	 1.00000000E-02
					 5.00000000E-03	 1.00000000E-02	 5.00000000E-03
					 1.00000000E-02	 5.00000000E-03	 2.00000000E-02
					 1.00000000E-02	 1.00000000E-02	 2.00000000E-02
					 5.00000000E-03	 5.00000000E-03	 2.00000000E-02
					 5.00000000E-03	 1.00000000E-02	 2.00000000E-02
					 1.00000000E-02	 5.00000000E-03	 1.50000000E-02
					 1.00000000E-02	 7.50000000E-03	 2.00000000E-02
					 1.00000000E-02	 1.00000000E-02	 1.50000000E-02
					 7.50000000E-03	 5.00000000E-03	 2.00000000E-02
					 7.50000000E-03	 1.00000000E-02	 2.00000000E-02
					 5.00000000E-03	 5.00000000E-03	 1.50000000E-02
					 5.00000000E-03	 7.50000000E-03	 2.00000000E-02
					 5.00000000E-03	 1.00000000E-02	 1.50000000E-02
					 1.00000000E-02	 5.00000000E-03	 3.00000000E-02
					 1.00000000E-02	 1.00000000E-02	 3.00000000E-02
					 5.00000000E-03	 5.00000000E-03	 3.00000000E-02
					 5.00000000E-03	 1.00000000E-02	 3.00000000E-02
					 1.00000000E-02	 5.00000000E-03	 2.50000000E-02
					 1.00000000E-02	 7.50000000E-03	 3.00000000E-02
					 1.00000000E-02	 1.00000000E-02	 2.50000000E-02
					 7.50000000E-03	 5.00000000E-03	 3.00000000E-02
					 7.50000000E-03	 1.00000000E-02	 3.00000000E-02
					 5.00000000E-03	 5.00000000E-03	 2.50000000E-02
					 5.00000000E-03	 7.50000000E-03	 3.00000000E-02
					 5.00000000E-03	 1.00000000E-02	 2.50000000E-02
					 1.00000000E-02	 5.00000000E-03	 4.00000000E-02
					 1.00000000E-02	 1.00000000E-02	 4.00000000E-02
					 5.00000000E-03	 5.00000000E-03	 4.00000000E-02
					 5.00000000E-03	 1.00000000E-02	 4.00000000E-02
					 1.00000000E-02	 5.00000000E-03	 3.50000000E-02
					 1.00000000E-02	 7.50000000E-03	 4.00000000E-02
					 1.00000000E-02	 1.00000000E-02	 3.50000000E-02
					 7.50000000E-03	 5.00000000E-03	 4.00000000E-02
					 7.50000000E-03	 1.00000000E-02	 4.00000000E-02
					 5.00000000E-03	 5.00000000E-03	 3.50000000E-02
					 5.00000000E-03	 7.50000000E-03	 4.00000000E-02
					 5.00000000E-03	 1.00000000E-02	 3.50000000E-02
					 1.00000000E-02	 5.00000000E-03	 5.00000000E-02
					 1.00000000E-02	 1.00000000E-02	 5.00000000E-02
					 5.00000000E-03	 5.00000000E-03	 5.00000000E-02
					 5.00000000E-03	 1.00000000E-02	 5.00000000E-02
					 1.00000000E-02	 5.00000000E-03	 4.50000000E-02
					 1.00000000E-02	 7.50000000E-03	 5.00000000E-02
					 1.00000000E-02	 1.00000000E-02	 4.50000000E-02
					 7.50000000E-03	 5.00000000E-03	 5.00000000E-02
					 7.50000000E-03	 1.00000000E-02	 5.00000000E-02
					 5.00000000E-03	 5.00000000E-03	 4.50000000E-02
					 5.00000000E-03	 7.50000000E-03	 5.00000000E-02
					 5.00000000E-03	 1.00000000E-02	 4.50000000E-02
					 1.00000000E-02	 5.00000000E-03	 6.00000000E-02
					 1.00000000E-02	 1.00000000E-02	 6.00000000E-02
					 5.00000000E-03	 5.00000000E-03	 6.00000000E-02
					 5.00000000E-03	 1.00000000E-02	 6.00000000E-02
					 1.00000000E-02	 5.00000000E-03	 5.50000000E-02
					 1.00000000E-02	 7.50000000E-03	 6.00000000E-02
					 1.00000000E-02	 1.00000000E-02	 5.50000000E-02
					 7.50000000E-03	 5.00000000E-03	 6.00000000E-02
					 7.50000000E-03	 1.00000000E-02	 6.00000000E-02
					 5.00000000E-03	 5.00000000E-03	 5.50000000E-02
					 5.00000000E-03	 7.50000000E-03	 6.00000000E-02
					 5.00000000E-03	 1.00000000E-02	 5.50000000E-02
					 1.00000000E-02	 5.00000000E-03	 7.00000000E-02
					 1.00000000E-02	 1.00000000E-02	 7.00000000E-02
					 5.00000000E-03	 5.00000000E-03	 7.00000000E-02
					 5.00000000E-03	 1.00000000E-02	 7.00000000E-02
					 1.00000000E-02	 5.00000000E-03	 6.50000000E-02
					 1.00000000E-02	 7.50000000E-03	 7.00000000E-02
					 1.00000000E-02	 1.00000000E-02	 6.50000000E-02
					 7.50000000E-03	 5.00000000E-03	 7.00000000E-02
					 7.50000000E-03	 1.00000000E-02	 7.00000000E-02
					 5.00000000E-03	 5.00000000E-03	 6.50000000E-02
					 5.00000000E-03	 7.50000000E-03	 7.00000000E-02
					 5.00000000E-03	 1.00000000E-02	 6.50000000E-02
					 1.00000000E-02	 5.00000000E-03	 8.00000000E-02
					 1.00000000E-02	 1.00000000E-02	 8.00000000E-02
					 5.00000000E-03	 5.00000000E-03	 8.00000000E-02
					 5.00000000E-03	 1.00000000E-02	 8.00000000E-02
					 1.00000000E-02	 5.00000000E-03	 7.50000000E-02
					 1.00000000E-02	 7.50000000E-03	 8.00000000E-02
					 1.00000000E-02	 1.00000000E-02	 7.50000000E-02
					 7.50000000E-03	 5.00000000E-03	 8.00000000E-02
					 7.50000000E-03	 1.00000000E-02	 8.00000000E-02
					 5.00000000E-03	 5.00000000E-03	 7.50000000E-02
					 5.00000000E-03	 7.50000000E-03	 8.00000000E-02
					 5.00000000E-03	 1.00000000E-02	 7.50000000E-02
					 1.00000000E-02	 5.00000000E-03	 9.00000000E-02
					 1.00000000E-02	 1.00000000E-02	 9.00000000E-02
					 5.00000000E-03	 5.00000000E-03	 9.00000000E-02
					 5.00000000E-03	 1.00000000E-02	 9.00000000E-02
					 1.00000000E-02	 5.00000000E-03	 8.50000000E-02
					 1.00000000E-02	 7.50000000E-03	 9.00000000E-02
					 1.00000000E-02	 1.00000000E-02	 8.50000000E-02
					 7.50000000E-03	 5.00000000E-03	 9.00000000E-02
					 7.50000000E-03	 1.00000000E-02	 9.00000000E-02
					 5.00000000E-03	 5.00000000E-03	 8.50000000E-02
					 5.00000000E-03	 7.50000000E-03	 9.00000000E-02
					 5.00000000E-03	 1.00000000E-02	 8.50000000E-02
					 1.00000000E-02	 5.00000000E-03	 1.00000000E-01
					 1.00000000E-02	 1.00000000E-02	 1.00000000E-01
					 5.00000000E-03	 5.00000000E-03	 1.00000000E-01
					 5.00000000E-03	 1.00000000E-02	 1.00000000E-01
					 1.00000000E-02	 5.00000000E-03	 9.50000000E-02
					 1.00000000E-02	 7.50000000E-03	 1.00000000E-01
					 1.00000000E-02	 1.00000000E-02	 9.50000000E-02
					 7.50000000E-03	 5.00000000E-03	 1.00000000E-01
					 7.50000000E-03	 1.00000000E-02	 1.00000000E-01
					 5.00000000E-03	 5.00000000E-03	 9.50000000E-02
					 5.00000000E-03	 7.50000000E-03	 1.00000000E-01
					 5.00000000E-03	 1.00000000E-02	 9.50000000E-02
					 0.00000000E+00	 1.00000000E-02	 0.00000000E+00
					 0.00000000E+00	 5.00000000E-03	 0.00000000E+00
					 0.00000000E+00	 5.00000000E-03	 1.00000000E-02
					 0.00000000E+00	 1.00000000E-02	 1.00000000E-02
					 2.50000000E-03	 1.00000000E-02	 0.00000000E+00
					 2.50000000E-03	 5.00000000E-03	 0.00000000E+00
					 2.50000000E-03	 5.00000000E-03	 1.00000000E-02
					 2.50000000E-03	 1.00000000E-02	 1.00000000E-02
					 0.00000000E+00	 7.50000000E-03	 0.00000000E+00
					 0.00000000E+00	 5.00000000E-03	 5.00000000E-03
					 0.00000000E+00	 7.50000000E-03	 1.00000000E-02
					 0.00000000E+00	 1.00000000E-02	 5.00000000E-03
					 0.00000000E+00	 5.00000000E-03	 2.00000000E-02
					 0.00000000E+00	 1.00000000E-02	 2.00000000E-02
					 2.50000000E-03	 5.00000000E-03	 2.00000000E-02
					 2.50000000E-03	 1.00000000E-02	 2.00000000E-02
					 0.00000000E+00	 5.00000000E-03	 1.50000000E-02
					 0.00000000E+00	 7.50000000E-03	 2.00000000E-02
					 0.00000000E+00	 1.00000000E-02	 1.50000000E-02
					 0.00000000E+00	 5.00000000E-03	 3.00000000E-02
					 0.00000000E+00	 1.00000000E-02	 3.00000000E-02
					 2.50000000E-03	 5.00000000E-03	 3.00000000E-02
					 2.50000000E-03	 1.00000000E-02	 3.00000000E-02
					 0.00000000E+00	 5.00000000E-03	 2.50000000E-02
					 0.00000000E+00	 7.50000000E-03	 3.00000000E-02
					 0.00000000E+00	 1.00000000E-02	 2.50000000E-02
					 0.00000000E+00	 5.00000000E-03	 4.00000000E-02
					 0.00000000E+00	 1.00000000E-02	 4.00000000E-02
					 2.50000000E-03	 5.00000000E-03	 4.00000000E-02
					 2.50000000E-03	 1.00000000E-02	 4.00000000E-02
					 0.00000000E+00	 5.00000000E-03	 3.50000000E-02
					 0.00000000E+00	 7.50000000E-03	 4.00000000E-02
					 0.00000000E+00	 1.00000000E-02	 3.50000000E-02
					 0.00000000E+00	 5.00000000E-03	 5.00000000E-02
					 0.00000000E+00	 1.00000000E-02	 5.00000000E-02
					 2.50000000E-03	 5.00000000E-03	 5.00000000E-02
					 2.50000000E-03	 1.00000000E-02	 5.00000000E-02
					 0.00000000E+00	 5.00000000E-03	 4.50000000E-02
					 0.00000000E+00	 7.50000000E-03	 5.00000000E-02
					 0.00000000E+00	 1.00000000E-02	 4.50000000E-02
					 0.00000000E+00	 5.00000000E-03	 6.00000000E-02
					 0.00000000E+00	 1.00000000E-02	 6.00000000E-02
					 2.50000000E-03	 5.00000000E-03	 6.00000000E-02
					 2.50000000E-03	 1.00000000E-02	 6.00000000E-02
					 0.00000000E+00	 5.00000000E-03	 5.50000000E-02
					 0.00000000E+00	 7.50000000E-03	 6.00000000E-02
					 0.00000000E+00	 1.00000000E-02	 5.50000000E-02
					 0.00000000E+00	 5.00000000E-03	 7.00000000E-02
					 0.00000000E+00	 1.00000000E-02	 7.00000000E-02
					 2.50000000E-03	 5.00000000E-03	 7.00000000E-02
					 2.50000000E-03	 1.00000000E-02	 7.00000000E-02
					 0.00000000E+00	 5.00000000E-03	 6.50000000E-02
					 0.00000000E+00	 7.50000000E-03	 7.00000000E-02
					 0.00000000E+00	 1.00000000E-02	 6.50000000E-02
					 0.00000000E+00	 5.00000000E-03	 8.00000000E-02
					 0.00000000E+00	 1.00000000E-02	 8.00000000E-02
[...]
			<PointData>
				<DataArray type="Float32" Name="U" NumberOfComponents="3" ComponentName0="D1" ComponentName1="D2" ComponentName2="D3" format="ascii">
					 0.00000000E+00	 0.00000000E+00	 0.00000000E+00
					 0.00000000E+00	 0.00000000E+00	 0.00000000E+00
					-7.28465000E-01	 1.24180000E-01	 5.31732000E-01
					-6.90013000E-01	 7.49134000E-02	 4.26643000E-01
					 0.00000000E+00	 0.00000000E+00	 0.00000000E+00
					 0.00000000E+00	 0.00000000E+00	 0.00000000E+00
					-7.04696000E-01	 1.28922000E-01	 0.00000000E+00
					-6.78775000E-01	 1.33271000E-01	-9.72790000E-02
					 0.00000000E+00	 0.00000000E+00	 0.00000000E+00
					-2.59004000E-01	 3.31204000E-02	 2.79841000E-01
					-7.19417000E-01	 9.80402000E-02	 4.84049000E-01
					-2.08978000E-01	-3.86041000E-02	 2.33218000E-01
					 0.00000000E+00	 0.00000000E+00	 0.00000000E+00
					 0.00000000E+00	 0.00000000E+00	 0.00000000E+00
					-7.05323000E-01	 1.28380000E-01	 2.51767000E-01
					-6.73753000E-01	 1.06069000E-01	 1.48949000E-01
					 0.00000000E+00	 0.00000000E+00	 0.00000000E+00
					-2.15139000E-01	 3.93591000E-02	 0.00000000E+00
					-7.01731000E-01	 1.29037000E-01	-4.60602000E-02
					-1.81038000E-01	 4.73841000E-02	-5.11963000E-02
					-2.16562000E+00	 3.94900000E-01	 7.39843000E-01
					-2.16032000E+00	 3.87954000E-01	 6.00443000E-01
					-2.16225000E+00	 3.95578000E-01	 0.00000000E+00
					-2.15854000E+00	 3.96194000E-01	-1.35352000E-01
					-1.39802000E+00	 2.49677000E-01	 6.73557000E-01
					-2.16296000E+00	 3.91363000E-01	 6.75044000E-01
					-1.37671000E+00	 2.21662000E-01	 5.45730000E-01
					-2.16422000E+00	 3.95267000E-01	 3.60232000E-01
					-2.15953000E+00	 3.91884000E-01	 2.19979000E-01
					-1.38060000E+00	 2.52577000E-01	 0.00000000E+00
					-2.16055000E+00	 3.95939000E-01	-6.59035000E-02
					-1.36475000E+00	 2.55765000E-01	-1.23226000E-01
					-3.69110000E+00	 6.81470000E-01	 6.43813000E-01
					-3.71450000E+00	 7.12875000E-01	 5.22692000E-01
					-3.70811000E+00	 6.78389000E-01	 0.00000000E+00
					-3.72495000E+00	 6.75278000E-01	-1.17784000E-01
					-2.95564000E+00	 5.43247000E-01	 7.24607000E-01
					-3.69856000E+00	 6.97935000E-01	 5.87093000E-01
					-2.96557000E+00	 5.56366000E-01	 5.88184000E-01
					-3.70377000E+00	 6.79173000E-01	 3.14033000E-01
					-3.72389000E+00	 6.93215000E-01	 1.92508000E-01
					-2.96256000E+00	 5.41992000E-01	 0.00000000E+00
					-3.71240000E+00	 6.77596000E-01	-5.74514000E-02
					-2.96941000E+00	 5.40726000E-01	-1.32565000E-01
					-4.74148000E+00	 8.79015000E-01	 3.06930000E-01
					-4.78514000E+00	 9.37334000E-01	 2.48797000E-01
					-4.77327000E+00	 8.73257000E-01	 0.00000000E+00
					-4.80474000E+00	 8.67441000E-01	-5.61520000E-02
					-4.30515000E+00	 7.96687000E-01	 4.98732000E-01
					-4.75504000E+00	 9.09652000E-01	 2.80156000E-01
					-4.33973000E+00	 8.42820000E-01	 4.04774000E-01
					-4.76567000E+00	 8.74655000E-01	 1.48733000E-01
					-4.80317000E+00	 9.00712000E-01	 9.03307000E-02
					-4.32980000E+00	 7.92126000E-01	 0.00000000E+00
					-4.78091000E+00	 8.71867000E-01	-2.72103000E-02
					-4.35473000E+00	 7.87615000E-01	-9.12418000E-02
					-4.91902000E+00	 9.13956000E-01	-1.75191000E-01
					-4.97190000E+00	 9.84557000E-01	-1.43612000E-01
					-4.95753000E+00	 9.06967000E-01	 0.00000000E+00
					-4.99573000E+00	 8.99922000E-01	 3.20507000E-02
					-4.95611000E+00	 9.19737000E-01	 7.64920000E-02
					-4.93557000E+00	 9.51033000E-01	-1.58879000E-01
					-5.00557000E+00	 9.85649000E-01	 6.12561000E-02
					-4.94817000E+00	 9.08683000E-01	-8.86761000E-02
					-4.99365000E+00	 9.40269000E-01	-5.71450000E-02
					-4.99159000E+00	 9.13197000E-01	 0.00000000E+00
					-4.96691000E+00	 9.05255000E-01	 1.62231000E-02
					-5.02733000E+00	 9.06707000E-01	-1.39940000E-02
					-4.04293000E+00	 7.53119000E-01	-6.90875000E-01
					-4.09363000E+00	 8.20778000E-01	-5.63539000E-01
					-4.07989000E+00	 7.46404000E-01	 0.00000000E+00
					-4.11659000E+00	 7.39643000E-01	 1.26394000E-01
					-4.61486000E+00	 8.58243000E-01	-4.35538000E-01
					-4.05881000E+00	 7.88654000E-01	-6.28348000E-01
					-4.66776000E+00	 9.28734000E-01	-3.55566000E-01
					-4.07089000E+00	 7.48055000E-01	-3.43145000E-01
					-4.11454000E+00	 7.78344000E-01	-2.15652000E-01
					-4.65290000E+00	 8.51236000E-01	 0.00000000E+00
					-4.08891000E+00	 7.44758000E-01	 6.27775000E-02
					-4.69120000E+00	 8.44276000E-01	 7.96805000E-02
					-2.15965000E+00	 4.05532000E-01	-1.13653000E+00
					-2.19880000E+00	 4.57724000E-01	-9.26682000E-01
					-2.18822000E+00	 4.00330000E-01	 0.00000000E+00
					-2.21666000E+00	 3.95102000E-01	 2.07926000E-01
					-3.21616000E+00	 6.00489000E-01	-9.27045000E-01
					-2.17196000E+00	 4.32943000E-01	-1.03390000E+00
					-3.26187000E+00	 6.61372000E-01	-7.55892000E-01
					-2.18120000E+00	 4.01616000E-01	-5.63612000E-01
					-2.21497000E+00	 4.25011000E-01	-3.53460000E-01
					-3.24914000E+00	 5.94422000E-01	 0.00000000E+00
					-2.19525000E+00	 3.99045000E-01	 1.03111000E-01
					-3.28231000E+00	 5.88388000E-01	 1.69600000E-01
					 4.96941000E-01	-8.48570000E-02	-1.43975000E+00
					 4.74386000E-01	-5.48939000E-02	-1.17416000E+00
					 4.80401000E-01	-8.78882000E-02	 0.00000000E+00
					 4.63833000E-01	-9.09141000E-02	 2.63398000E-01
					-9.08147000E-01	 1.74428000E-01	-1.30730000E+00
					 4.89772000E-01	-6.91190000E-02	-1.30961000E+00
					-9.39236000E-01	 2.15806000E-01	-1.06590000E+00
					 4.84561000E-01	-8.71271000E-02	-7.14523000E-01
					 4.64996000E-01	-7.36426000E-02	-4.48563000E-01
					-9.30756000E-01	 1.70279000E-01	 0.00000000E+00
					 4.76242000E-01	-8.86491000E-02	 1.30720000E-01
					-9.53431000E-01	 1.66143000E-01	 2.39167000E-01
					 3.59097000E+00	-6.54967000E-01	-1.57982000E+00
					 3.58392000E+00	-6.45830000E-01	-1.28920000E+00
					 3.58568000E+00	-6.55991000E-01	 0.00000000E+00
					 3.58009000E+00	-6.56959000E-01	 2.89024000E-01
					 2.01109000E+00	-3.63997000E-01	-1.52770000E+00
					 3.58856000E+00	-6.50165000E-01	-1.43639000E+00
					 1.99678000E+00	-3.44997000E-01	-1.24612000E+00
					 3.58723000E+00	-6.55708000E-01	-7.86091000E-01
					 3.58085000E+00	-6.51463000E-01	-4.95241000E-01
					 2.00030000E+00	-3.65950000E-01	 0.00000000E+00
					 3.58414000E+00	-6.56274000E-01	 1.43813000E-01
					 1.98963000E+00	-3.67924000E-01	 2.79489000E-01
					 6.80665000E+00	-1.24504000E+00	-1.60262000E+00
					 6.80649000E+00	-1.24581000E+00	-1.30844000E+00
					 6.80611000E+00	-1.24516000E+00	 0.00000000E+00
					 6.80547000E+00	-1.24526000E+00	 2.93195000E-01
					 5.19860000E+00	-9.50279000E-01	-1.59933000E+00
					 6.80635000E+00	-1.24538000E+00	-1.45593000E+00
					 5.19624000E+00	-9.47258000E-01	-1.30569000E+00
					 6.80665000E+00	-1.24508000E+00	-8.00876000E-01
					 6.80621000E+00	-1.24542000E+00	-5.06925000E-01
					 5.19633000E+00	-9.50655000E-01	 0.00000000E+00
					 6.80566000E+00	-1.24526000E+00	 1.46518000E-01
					 5.19427000E+00	-9.51069000E-01	 2.92593000E-01
					 0.00000000E+00	 0.00000000E+00	 0.00000000E+00
					 0.00000000E+00	 0.00000000E+00	 0.00000000E+00
					-7.28465000E-01	 1.24180000E-01	-5.31732000E-01
					-7.09442000E-01	 1.81113000E-01	-6.17703000E-01
					 0.00000000E+00	 0.00000000E+00	 0.00000000E+00
					 0.00000000E+00	 0.00000000E+00	 0.00000000E+00
					-7.05323000E-01	 1.28380000E-01	-2.51767000E-01
					-6.83301000E-01	 1.58931000E-01	-3.42509000E-01
					 0.00000000E+00	 0.00000000E+00	 0.00000000E+00
					-2.59004000E-01	 3.31204000E-02	-2.79841000E-01
					-7.29088000E-01	 1.50229000E-01	-5.73960000E-01
					-2.38065000E-01	 1.20389000E-01	-3.37658000E-01
					-2.16562000E+00	 3.94900000E-01	-7.39843000E-01
					-2.16307000E+00	 4.02998000E-01	-8.69335000E-01
					-2.16422000E+00	 3.95267000E-01	-3.60232000E-01
					-2.16093000E+00	 3.99796000E-01	-4.90763000E-01
					-1.39802000E+00	 2.49677000E-01	-6.73557000E-01
					-2.16441000E+00	 3.99053000E-01	-8.05073000E-01
					-1.38814000E+00	 2.84159000E-01	-7.90120000E-01
					-3.69110000E+00	 6.81470000E-01	-6.43813000E-01
					-3.70188000E+00	 6.43931000E-01	-7.56765000E-01
					-3.70377000E+00	 6.79173000E-01	-3.14033000E-01
					-3.71758000E+00	 6.58921000E-01	-4.28093000E-01
					-2.95564000E+00	 5.43247000E-01	-7.24607000E-01
					-3.69229000E+00	 6.63462000E-01	-7.00630000E-01
					-2.96033000E+00	 5.27762000E-01	-8.51586000E-01
					-4.74148000E+00	 8.79015000E-01	-3.06930000E-01
					-4.76170000E+00	 8.09234000E-01	-3.60215000E-01
					-4.76567000E+00	 8.74655000E-01	-1.48733000E-01
					-4.79146000E+00	 8.37001000E-01	-2.02644000E-01
					-4.30515000E+00	 7.96687000E-01	-4.98732000E-01
					-4.74339000E+00	 8.45659000E-01	-3.33755000E-01
					-4.32123000E+00	 7.41678000E-01	-5.86041000E-01
					-4.91902000E+00	 9.13956000E-01	 1.75191000E-01
					-4.94352000E+00	 8.29441000E-01	 2.07924000E-01
					-4.94817000E+00	 9.08683000E-01	 8.86761000E-02
					-4.97947000E+00	 8.63044000E-01	 1.21249000E-01
					-4.95611000E+00	 9.19737000E-01	-7.64920000E-02
					-4.92144000E+00	 8.73522000E-01	 1.91516000E-01
					-4.97911000E+00	 8.41022000E-01	-8.86880000E-02
					-4.04293000E+00	 7.53119000E-01	 6.90875000E-01
					-4.06643000E+00	 6.72082000E-01	 8.15905000E-01
					-4.07089000E+00	 7.48055000E-01	 3.43145000E-01
					-4.10094000E+00	 7.04272000E-01	 4.68458000E-01
					-4.61486000E+00	 8.58243000E-01	 4.35538000E-01
					-4.04526000E+00	 7.14346000E-01	 7.53504000E-01
					-4.63945000E+00	 7.73996000E-01	 5.14796000E-01
					-2.15965000E+00	 4.05532000E-01	 1.13653000E+00
					-2.17780000E+00	 3.42964000E-01	 1.34167000E+00
					-2.18120000E+00	 4.01616000E-01	 5.63612000E-01
					-2.20448000E+00	 3.67781000E-01	 7.69340000E-01
					-3.21616000E+00	 6.00489000E-01	 9.27045000E-01
					-2.16149000E+00	 3.75583000E-01	 1.23932000E+00
					-3.23741000E+00	 5.27653000E-01	 1.09440000E+00
					 4.96941000E-01	-8.48570000E-02	 1.43975000E+00
					 4.86460000E-01	-1.20890000E-01	 1.69997000E+00
					 4.84561000E-01	-8.71271000E-02	 7.14523000E-01
					 4.71034000E-01	-1.06668000E-01	 9.75404000E-01
					-9.08147000E-01	 1.74428000E-01	 1.30730000E+00
					 4.95814000E-01	-1.02125000E-01	 1.57012000E+00
					-9.22589000E-01	 1.24810000E-01	 1.54324000E+00
					 3.59097000E+00	-6.54967000E-01	 1.57982000E+00
					 3.58765000E+00	-6.66189000E-01	 1.86653000E+00
					 3.58723000E+00	-6.55708000E-01	 7.86091000E-01
					 3.58272000E+00	-6.61923000E-01	 1.07331000E+00
					 2.01109000E+00	-3.63997000E-01	 1.52770000E+00
					 3.59048000E+00	-6.60390000E-01	 1.72335000E+00
					 2.00447000E+00	-3.87021000E-01	 1.80416000E+00
					 6.80665000E+00	-1.24504000E+00	 1.60262000E+00
					 6.80627000E+00	-1.24461000E+00	 1.89439000E+00
					 6.80665000E+00	-1.24508000E+00	 8.00876000E-01
					 6.80613000E+00	-1.24497000E+00	 1.09320000E+00
					 5.19860000E+00	-9.50279000E-01	 1.59933000E+00
					 6.80627000E+00	-1.24496000E+00	 1.74867000E+00
					 5.19752000E+00	-9.54252000E-01	 1.89041000E+00
					 0.00000000E+00	 0.00000000E+00	 0.00000000E+00
					-7.09442000E-01	 1.81113000E-01	 6.17703000E-01
					 0.00000000E+00	 0.00000000E+00	 0.00000000E+00
					-6.78775000E-01	 1.33271000E-01	 9.72790000E-02
					 0.00000000E+00	 0.00000000E+00	 0.00000000E+00
					-2.38065000E-01	 1.20389000E-01	 3.37658000E-01
					-7.29088000E-01	 1.50229000E-01	 5.73960000E-01
					 0.00000000E+00	 0.00000000E+00	 0.00000000E+00
					-6.83301000E-01	 1.58931000E-01	 3.42509000E-01
					 0.00000000E+00	 0.00000000E+00	 0.00000000E+00
					-1.81038000E-01	 4.73841000E-02	 5.11963000E-02
					-7.01731000E-01	 1.29037000E-01	 4.60602000E-02
					-2.16307000E+00	 4.02998000E-01	 8.69335000E-01
					-2.15854000E+00	 3.96194000E-01	 1.35352000E-01
					-1.38814000E+00	 2.84159000E-01	 7.90120000E-01
					-2.16441000E+00	 3.99053000E-01	 8.05073000E-01
					-2.16093000E+00	 3.99796000E-01	 4.90763000E-01
					-1.36475000E+00	 2.55765000E-01	 1.23226000E-01
					-2.16055000E+00	 3.95939000E-01	 6.59035000E-02
					-3.70188000E+00	 6.43931000E-01	 7.56765000E-01
					-3.72495000E+00	 6.75278000E-01	 1.17784000E-01
					-2.96033000E+00	 5.27762000E-01	 8.51586000E-01
					-3.69229000E+00	 6.63462000E-01	 7.00630000E-01
					-3.71758000E+00	 6.58921000E-01	 4.28093000E-01
					-2.96941000E+00	 5.40726000E-01	 1.32565000E-01
					-3.71240000E+00	 6.77596000E-01	 5.74514000E-02
					-4.76170000E+00	 8.09234000E-01	 3.60215000E-01
					-4.80474000E+00	 8.67441000E-01	 5.61520000E-02
					-4.32123000E+00	 7.41678000E-01	 5.86041000E-01
					-4.74339000E+00	 8.45659000E-01	 3.33755000E-01
					-4.79146000E+00	 8.37001000E-01	 2.02644000E-01
					-4.35473000E+00	 7.87615000E-01	 9.12418000E-02
					-4.78091000E+00	 8.71867000E-01	 2.72103000E-02
					-4.94352000E+00	 8.29441000E-01	-2.07924000E-01
					-4.99573000E+00	 8.99922000E-01	-3.20507000E-02
					-4.97911000E+00	 8.41022000E-01	 8.86880000E-02
					-4.92144000E+00	 8.73522000E-01	-1.91516000E-01
					-4.97947000E+00	 8.63044000E-01	-1.21249000E-01
					-5.02733000E+00	 9.06707000E-01	 1.39940000E-02
					-4.96691000E+00	 9.05255000E-01	-1.62231000E-02
					-4.06643000E+00	 6.72082000E-01	-8.15905000E-01
					-4.11659000E+00	 7.39643000E-01	-1.26394000E-01
					-4.63945000E+00	 7.73996000E-01	-5.14796000E-01
					-4.04526000E+00	 7.14346000E-01	-7.53504000E-01
					-4.10094000E+00	 7.04272000E-01	-4.68458000E-01
					-4.69120000E+00	 8.44276000E-01	-7.96805000E-02
					-4.08891000E+00	 7.44758000E-01	-6.27775000E-02
					-2.17780000E+00	 3.42964000E-01	-1.34167000E+00
					-2.21666000E+00	 3.95102000E-01	-2.07926000E-01
					-3.23741000E+00	 5.27653000E-01	-1.09440000E+00
					-2.16149000E+00	 3.75583000E-01	-1.23932000E+00
					-2.20448000E+00	 3.67781000E-01	-7.69340000E-01
					-3.28231000E+00	 5.88388000E-01	-1.69600000E-01
					-2.19525000E+00	 3.99045000E-01	-1.03111000E-01
					 4.86460000E-01	-1.20890000E-01	-1.69997000E+00
					 4.63833000E-01	-9.09141000E-02	-2.63398000E-01
					-9.22589000E-01	 1.24810000E-01	-1.54324000E+00
					 4.95814000E-01	-1.02125000E-01	-1.57012000E+00
					 4.71034000E-01	-1.06668000E-01	-9.75404000E-01
					-9.53431000E-01	 1.66143000E-01	-2.39167000E-01
					 4.76242000E-01	-8.86491000E-02	-1.30720000E-01
					 3.58765000E+00	-6.66189000E-01	-1.86653000E+00
					 3.58009000E+00	-6.56959000E-01	-2.89024000E-01
					 2.00447000E+00	-3.87021000E-01	-1.80416000E+00
					 3.59048000E+00	-6.60390000E-01	-1.72335000E+00
					 3.58272000E+00	-6.61923000E-01	-1.07331000E+00
					 1.98963000E+00	-3.67924000E-01	-2.79489000E-01
					 3.58414000E+00	-6.56274000E-01	-1.43813000E-01
					 6.80627000E+00	-1.24461000E+00	-1.89439000E+00
					 6.80547000E+00	-1.24526000E+00	-2.93195000E-01
					 5.19752000E+00	-9.54252000E-01	-1.89041000E+00
					 6.80627000E+00	-1.24496000E+00	-1.74867000E+00
					 6.80613000E+00	-1.24497000E+00	-1.09320000E+00
					 5.19427000E+00	-9.51069000E-01	-2.92593000E-01
					 6.80566000E+00	-1.24526000E+00	-1.46518000E-01
					 0.00000000E+00	 0.00000000E+00	 0.00000000E+00
					-6.90013000E-01	 7.49134000E-02	-4.26643000E-01
					 0.00000000E+00	 0.00000000E+00	 0.00000000E+00
					-6.73753000E-01	 1.06069000E-01	-1.48949000E-01
					 0.00000000E+00	 0.00000000E+00	 0.00000000E+00
					-2.08978000E-01	-3.86041000E-02	-2.33218000E-01
					-7.19417000E-01	 9.80402000E-02	-4.84049000E-01
					-2.16032000E+00	 3.87954000E-01	-6.00443000E-01
					-2.15953000E+00	 3.91884000E-01	-2.19979000E-01
					-1.37671000E+00	 2.21662000E-01	-5.45730000E-01
					-2.16296000E+00	 3.91363000E-01	-6.75044000E-01
					-3.71450000E+00	 7.12875000E-01	-5.22692000E-01
					-3.72389000E+00	 6.93215000E-01	-1.92508000E-01
					-2.96557000E+00	 5.56366000E-01	-5.88184000E-01
					-3.69856000E+00	 6.97935000E-01	-5.87093000E-01
					-4.78514000E+00	 9.37334000E-01	-2.48797000E-01
					-4.80317000E+00	 9.00712000E-01	-9.03307000E-02
					-4.33973000E+00	 8.42820000E-01	-4.04774000E-01
					-4.75504000E+00	 9.09652000E-01	-2.80156000E-01
					-4.97190000E+00	 9.84557000E-01	 1.43612000E-01
					-4.99365000E+00	 9.40269000E-01	 5.71450000E-02
					-5.00557000E+00	 9.85649000E-01	-6.12561000E-02
					-4.93557000E+00	 9.51033000E-01	 1.58879000E-01
					-4.09363000E+00	 8.20778000E-01	 5.63539000E-01
					-4.11454000E+00	 7.78344000E-01	 2.15652000E-01
					-4.66776000E+00	 9.28734000E-01	 3.55566000E-01
					-4.05881000E+00	 7.88654000E-01	 6.28348000E-01
					-2.19880000E+00	 4.57724000E-01	 9.26682000E-01
					-2.21497000E+00	 4.25011000E-01	 3.53460000E-01
					-3.26187000E+00	 6.61372000E-01	 7.55892000E-01
					-2.17196000E+00	 4.32943000E-01	 1.03390000E+00
					 4.74386000E-01	-5.48939000E-02	 1.17416000E+00
					 4.64996000E-01	-7.36426000E-02	 4.48563000E-01
					-9.39236000E-01	 2.15806000E-01	 1.06590000E+00
					 4.89772000E-01	-6.91190000E-02	 1.30961000E+00
					 3.58392000E+00	-6.45830000E-01	 1.28920000E+00
					 3.58085000E+00	-6.51463000E-01	 4.95241000E-01
					 1.99678000E+00	-3.44997000E-01	 1.24612000E+00
					 3.58856000E+00	-6.50165000E-01	 1.43639000E+00
					 6.80649000E+00	-1.24581000E+00	 1.30844000E+00
					 6.80621000E+00	-1.24542000E+00	 5.06925000E-01
					 5.19624000E+00	-9.47258000E-01	 1.30569000E+00
					 6.80635000E+00	-1.24538000E+00	 1.45593000E+00
				</DataArray>
				<DataArray type="Float32" Name="S" NumberOfComponents="10" ComponentName0="xx" ComponentName1="yy" ComponentName2="zz" ComponentName3="xy" ComponentName4="yz" ComponentName5="zx" ComponentName6="Mises" ComponentName7="Min Principal" ComponentName8="Mid Principal" ComponentName9="Max Principal" format="ascii">
					 6.13317000E+12	 6.13317000E+12	 1.43106000E+13	 3.58099000E+04	-1.85229000E+12	-1.17835000E+12	 9.01824940E+12	 5.58107935E+12	 6.13316997E+12	 1.48626907E+13
					 7.11941000E+12	 7.11940000E+12	 1.66118000E+13	-1.93936000E+04	 6.70420000E+10	-2.48403000E+12	 1.04225842E+13	 6.50824868E+12	 7.11940001E+12	 1.72229613E+13
					-7.42188000E+10	 4.91950000E+11	 8.89291000E+12	-3.92462000E+10	 5.41790000E+11	-1.53198000E+11	 8.75263825E+12	-7.85079022E+10	 4.58760570E+11	 8.93038853E+12
					-1.54540000E+11	 1.86666000E+11	 6.83036000E+12	 2.08355000E+11	 6.25816000E+11	-6.58962000E+11	 7.00926707E+12	-3.58757457E+11	 2.75262987E+11	 6.94598047E+12
					-1.30248000E+12	-1.30248000E+12	-3.03908000E+12	 1.06006000E+05	 4.54447000E+11	-3.66455000E+11	 2.00953069E+12	-3.21708600E+12	-1.30247990E+12	-1.12447410E+12
					 3.05853000E-02	 3.14286000E-02	 7.30286000E-02	-1.00955000E-03	 2.30298000E+11	-1.25882000E+12	 2.21652766E+12	-1.27971284E+12	 3.07617188E-02	 1.27971284E+12
					 8.28552000E-02	 2.14157000E-02	 1.53366000E-01	 1.50795000E-02	 4.41981000E+11	-2.41589000E+12	 4.25389411E+12	-2.45598691E+12	 2.89934794E-02	 2.45598691E+12
					-9.00009000E+10	 1.35781000E+10	-1.62693000E+12	 2.14522000E+11	 2.80272000E+10	-2.96145000E+12	 5.38359055E+12	-3.92397995E+12	 8.96048918E+09	 2.21166666E+12
					 6.68524000E+12	 6.68524000E+12	 1.55991000E+13	-1.58336000E+06	-9.04781000E+11	-1.91350000E+12	 9.63832106E+12	 6.20817087E+12	 6.68524122E+12	 1.60761679E+13
					 7.84842000E+11	 3.90557000E+11	 1.15193000E+13	 7.43759000E+10	 2.50219000E+11	-9.07804000E+11	 1.10586271E+13	 3.59422188E+11	 7.34473041E+11	 1.16008038E+13
					-1.43579000E+11	 2.51137000E+11	 7.87819000E+12	-2.51205000E+09	 5.72652000E+11	-3.69286000E+11	 7.92030204E+12	-1.62059871E+11	 2.10063230E+11	 7.93774464E+12
					 7.21144000E+11	 9.14495000E+10	 9.20351000E+12	-3.15971000E+11	-3.05145000E+11	-4.70558000E+11	 8.88433876E+12	-6.30983477E+10	 8.40635360E+11	 9.23856649E+12
					 2.22476000E+12	 2.22477000E+12	 5.19128000E+12	-3.65912000E+06	-6.82944000E+11	-6.86567000E+11	 3.40786906E+12	 1.93662431E+12	 2.22476869E+12	 5.47941701E+12
					 3.38893000E+12	 3.38893000E+12	 7.90771000E+12	 4.13376000E+05	 1.63460000E+11	-1.78060000E+12	 5.47824235E+12	 2.76698366E+12	 3.38893008E+12	 8.52965626E+12
					 5.08217000E+11	 4.51644000E+11	 4.57027000E+12	-1.90990000E+08	 4.85954000E+11	-1.28582000E+12	 4.73304667E+12	 7.96050017E+10	 4.59413301E+11	 4.99111270E+12