<?xml version="1.0"?>
<VTKFile type="UnstructuredGrid" version="0.1" byte_order="LittleEndian">
	<UnstructuredGrid>
		<Piece NumberOfPoints="1221" NumberOfCells="160">
			<Points>
				<DataArray type="Float64" NumberOfComponents="3" format="ascii">
					 1.00000000E-02	 1.00000000E-02	 0.00000000E+00
					 1.00000000E-02	 5.00000000E-03	 0.00000000E+00
					 1.00000000E-02	 5.00000000E-03	 5.00000000E-03
					 1.00000000E-02	 1.00000000E-02	 5.00000000E-03
					 5.00000000E-03	 1.00000000E-02	 0.00000000E+00
					 5.00000000E-03	 5.00000000E-03	 0.00000000E+00
					 5.00000000E-03	 5.00000000E-03	 5.00000000E-03
					 5.00000000E-03	 1.00000000E-02	 5.00000000E-03
					 1.00000000E-02	 7.50000000E-03	 0.00000000E+00
					 1.00000000E-02	 5.00000000E-03	 2.50000000E-03
					 1.00000000E-02	 7.50000000E-03	 5.00000000E-03
					 1.00000000E-02	 1.00000000E-02	 2.50000000E-03
					 7.50000000E-03	 1.00000000E-02	 0.00000000E+00
					 7.50000000E-03	 5.00000000E-03	 0.00000000E+00
					 7.50000000E-03	 5.00000000E-03	 5.00000000E-03
					 7.50000000E-03	 1.00000000E-02	 5.00000000E-03
					 5.00000000E-03	 7.50000000E-03	 0.00000000E+00
					 5.00000000E-03	 5.00000000E-03	 2.50000000E-03
					 5.00000000E-03	 7.50000000E-03	 5.00000000E-03
					 5.00000000E-03	 1.00000000E-02	 2.50000000E-03
					 1.00000000E-02	 5.00000000E-03	 1.00000000E-02
					 1.00000000E-02	 1.00000000E-02	 1.00000000E-02
					 5.00000000E-03	 5.00000000E-03	 1.00000000E-02
					 5.00000000E-03	 1.00000000E-02	 1.00000000E-02
					 1.00000000E-02	 5.00000000E-03	 7.50000000E-03
					 1.00000000E-02	 7.50000000E-03	 1.00000000E-02
					 1.00000000E-02	 1.00000000E-02	 7.50000000E-03
					 7.50000000E-03	 5.00000000E-03	 1.00000000E-02
					 7.50000000E-03	 1.00000000E-02	 1.00000000E-02
					 5.00000000E-03	 5.00000000E-03	 7.50000000E-03
					 5.00000000E-03	 7.50000000E-03	 1.00000000E-02
					 5.00000000E-03	 1.00000000E-02	 7.50000000E-03
					 1.00000000E-02	 5.00000000E-03	 1.50000000E-02
					 1.00000000E-02	 1.00000000E-02	 1.50000000E-02
					 5.00000000E-03	 5.00000000E-03	 1.50000000E-02
					 5.00000000E-03	 1.00000000E-02	 1.50000000E-02
					 1.00000000E-02	 5.00000000E-03	 1.25000000E-02
					 1.00000000E-02	 7.50000000E-03	 1.50000000E-02
					 1.00000000E-02	 1.00000000E-02	 1.25000000E-02
					 7.50000000E-03	 5.00000000E-03	 1.50000000E-02
					 7.50000000E-03	 1.00000000E-02	 1.50000000E-02
					 5.00000000E-03	 5.00000000E-03	 1.25000000E-02
					 5.00000000E-03	 7.50000000E-03	 1.50000000E-02
					 5.00000000E-03	 1.00000000E-02	 1.25000000E-02
					 1.00000000E-02	 5.00000000E-03	 2.00000000E-02
					 1.00000000E-02	 1.00000000E-02	 2.00000000E-02
					 5.00000000E-03	 5.00000000E-03	 2.00000000E-02
					 5.00000000E-03	 1.00000000E-02	 2.00000000E-02
					 1.00000000E-02	 5.00000000E-03	 1.75000000E-02
					 1.00000000E-02	 7.50000000E-03	 2.00000000E-02
					 1.00000000E-02	 1.00000000E-02	 1.75000000E-02
					 7.50000000E-03	 5.00000000E-03	 2.00000000E-02
					 7.50000000E-03	 1.00000000E-02	 2.00000000E-02
					 5.00000000E-03	 5.00000000E-03	 1.75000000E-02
					 5.00000000E-03	 7.50000000E-03	 2.00000000E-02
					 5.00000000E-03	 1.00000000E-02	 1.75000000E-02
					 1.00000000E-02	 5.00000000E-03	 2.50000000E-02
					 1.00000000E-02	 1.00000000E-02	 2.50000000E-02
					 5.00000000E-03	 5.00000000E-03	 2.50000000E-02
					 5.00000000E-03	 1.00000000E-02	 2.50000000E-02
					 1.00000000E-02	 5.00000000E-03	 2.25000000E-02
					 1.00000000E-02	 7.50000000E-03	 2.50000000E-02
					 1.00000000E-02	 1.00000000E-02	 2.25000000E-02
					 7.50000000E-03	 5.00000000E-03	 2.50000000E-02
					 7.50000000E-03	 1.00000000E-02	 2.50000000E-02
					 5.00000000E-03	 5.00000000E-03	 2.25000000E-02
					 5.00000000E-03	 7.50000000E-03	 2.50000000E-02
					 5.00000000E-03	 1.00000000E-02	 2.25000000E-02
					 1.00000000E-02	 5.00000000E-03	 3.00000000E-02
					 1.00000000E-02	 1.00000000E-02	 3.00000000E-02
					 5.00000000E-03	 5.00000000E-03	 3.00000000E-02
					 5.00000000E-03	 1.00000000E-02	 3.00000000E-02
					 1.00000000E-02	 5.00000000E-03	 2.75000000E-02
					 1.00000000E-02	 7.50000000E-03	 3.00000000E-02
					 1.00000000E-02	 1.00000000E-02	 2.75000000E-02
					 7.50000000E-03	 5.00000000E-03	 3.00000000E-02
					 7.50000000E-03	 1.00000000E-02	 3.00000000E-02
					 5.00000000E-03	 5.00000000E-03	 2.75000000E-02
					 5.00000000E-03	 7.50000000E-03	 3.00000000E-02
					 5.00000000E-03	 1.00000000E-02	 2.75000000E-02
					 1.00000000E-02	 5.00000000E-03	 3.50000000E-02
					 1.00000000E-02	 1.00000000E-02	 3.50000000E-02
					 5.00000000E-03	 5.00000000E-03	 3.50000000E-02
					 5.00000000E-03	 1.00000000E-02	 3.50000000E-02
					 1.00000000E-02	 5.00000000E-03	 3.25000000E-02
					 1.00000000E-02	 7.50000000E-03	 3.50000000E-02
					 1.00000000E-02	 1.00000000E-02	 3.25000000E-02
					 7.50000000E-03	 5.00000000E-03	 3.50000000E-02
					 7.50000000E-03	 1.00000000E-02	 3.50000000E-02
					 5.00000000E-03	 5.00000000E-03	 3.25000000E-02
					 5.00000000E-03	 7.50000000E-03	 3.50000000E-02
					 5.00000000E-03	 1.00000000E-02	 3.25000000E-02
					 1.00000000E-02	 5.00000000E-03	 4.00000000E-02
					 1.00000000E-02	 1.00000000E-02	 4.00000000E-02
					 5.00000000E-03	 5.00000000E-03	 4.00000000E-02
					 5.00000000E-03	 1.00000000E-02	 4.00000000E-02
					 1.00000000E-02	 5.00000000E-03	 3.75000000E-02
					 1.00000000E-02	 7.50000000E-03	 4.00000000E-02
					 1.00000000E-02	 1.00000000E-02	 3.75000000E-02
					 7.50000000E-03	 5.00000000E-03	 4.00000000E-02
					 7.50000000E-03	 1.00000000E-02	 4.00000000E-02
					 5.00000000E-03	 5.00000000E-03	 3.75000000E-02
					 5.00000000E-03	 7.50000000E-03	 4.00000000E-02
					 5.00000000E-03	 1.00000000E-02	 3.75000000E-02
					 1.00000000E-02	 5.00000000E-03	 4.50000000E-02
					 1.00000000E-02	 1.00000000E-02	 4.50000000E-02
					 5.00000000E-03	 5.00000000E-03	 4.50000000E-02
					 5.00000000E-03	 1.00000000E-02	 4.50000000E-02
					 1.00000000E-02	 5.00000000E-03	 4.25000000E-02
					 1.00000000E-02	 7.50000000E-03	 4.50000000E-02
					 1.00000000E-02	 1.00000000E-02	 4.25000000E-02
					 7.50000000E-03	 5.00000000E-03	 4.50000000E-02
					 7.50000000E-03	 1.00000000E-02	 4.50000000E-02
					 5.00000000E-03	 5.00000000E-03	 4.25000000E-02
					 5.00000000E-03	 7.50000000E-03	 4.50000000E-02
					 5.00000000E-03	 1.00000000E-02	 4.25000000E-02
					 1.00000000E-02	 5.00000000E-03	 5.00000000E-02
					 1.00000000E-02	 1.00000000E-02	 5.00000000E-02
					 5.00000000E-03	 5.00000000E-03	 5.00000000E-02
					 5.00000000E-03	 1.00000000E-02	 5.00000000E-02
					 1.00000000E-02	 5.00000000E-03	 4.75000000E-02
					 1.00000000E-02	 7.50000000E-03	 5.00000000E-02
					 1.00000000E-02	 1.00000000E-02	 4.75000000E-02
					 7.50000000E-03	 5.00000000E-03	 5.00000000E-02
					 7.50000000E-03	 1.00000000E-02	 5.00000000E-02
					 5.00000000E-03	 5.00000000E-03	 4.75000000E-02
					 5.00000000E-03	 7.50000000E-03	 5.00000000E-02
					 5.00000000E-03	 1.00000000E-02	 4.75000000E-02
					 1.00000000E-02	 5.00000000E-03	 5.50000000E-02
					 1.00000000E-02	 1.00000000E-02	 5.50000000E-02
					 5.00000000E-03	 5.00000000E-03	 5.50000000E-02
					 5.00000000E-03	 1.00000000E-02	 5.50000000E-02
					 1.00000000E-02	 5.00000000E-03	 5.25000000E-02
					 1.00000000E-02	 7.50000000E-03	 5.50000000E-02
					 1.00000000E-02	 1.00000000E-02	 5.25000000E-02
					 7.50000000E-03	 5.00000000E-03	 5.50000000E-02
					 7.50000000E-03	 1.00000000E-02	 5.50000000E-02
					 5.00000000E-03	 5.00000000E-03	 5.25000000E-02
					 5.00000000E-03	 7.50000000E-03	 5.50000000E-02
					 5.00000000E-03	 1.00000000E-02	 5.25000000E-02
					 1.00000000E-02	 5.00000000E-03	 6.00000000E-02
					 1.00000000E-02	 1.00000000E-02	 6.00000000E-02
					 5.00000000E-03	 5.00000000E-03	 6.00000000E-02
					 5.00000000E-03	 1.00000000E-02	 6.00000000E-02
					 1.00000000E-02	 5.00000000E-03	 5.75000000E-02
					 1.00000000E-02	 7.50000000E-03	 6.00000000E-02
					 1.00000000E-02	 1.00000000E-02	 5.75000000E-02
					 7.50000000E-03	 5.00000000E-03	 6.00000000E-02
					 7.50000000E-03	 1.00000000E-02	 6.00000000E-02
					 5.00000000E-03	 5.00000000E-03	 5.75000000E-02
					 5.00000000E-03	 7.50000000E-03	 6.00000000E-02
					 5.00000000E-03	 1.00000000E-02	 5.75000000E-02
					 1.00000000E-02	 5.00000000E-03	 6.50000000E-02
					 1.00000000E-02	 1.00000000E-02	 6.50000000E-02
					 5.00000000E-03	 5.00000000E-03	 6.50000000E-02
					 5.00000000E-03	 1.00000000E-02	 6.50000000E-02
					 1.00000000E-02	 5.00000000E-03	 6.25000000E-02
					 1.00000000E-02	 7.50000000E-03	 6.50000000E-02
					 1.00000000E-02	 1.00000000E-02	 6.25000000E-02
					 7.50000000E-03	 5.00000000E-03	 6.50000000E-02
					 7.50000000E-03	 1.00000000E-02	 6.50000000E-02
					 5.00000000E-03	 5.00000000E-03	 6.25000000E-02
					 5.00000000E-03	 7.50000000E-03	 6.50000000E-02
					 5.00000000E-03	 1.00000000E-02	 6.25000000E-02
					 1.00000000E-02	 5.00000000E-03	 7.00000000E-02
					 1.00000000E-02	 1.00000000E-02	 7.00000000E-02
					 5.00000000E-03	 5.00000000E-03	 7.00000000E-02
					 5.00000000E-03	 1.00000000E-02	 7.00000000E-02
					 1.00000000E-02	 5.00000000E-03	 6.75000000E-02
					 1.00000000E-02	 7.50000000E-03	 7.00000000E-02
					 1.00000000E-02	 1.00000000E-02	 6.75000000E-02
					 7.50000000E-03	 5.00000000E-03	 7.00000000E-02
					 7.50000000E-03	 1.00000000E-02	 7.00000000E-02
					 5.00000000E-03	 5.00000000E-03	 6.75000000E-02
					 5.00000000E-03	 7.50000000E-03	 7.00000000E-02
					 5.00000000E-03	 1.00000000E-02	 6.75000000E-02
					 1.00000000E-02	 5.00000000E-03	 7.50000000E-02
					 1.00000000E-02	 1.00000000E-02	 7.50000000E-02
					 5.00000000E-03	 5.00000000E-03	 7.50000000E-02
					 5.00000000E-03	 1.00000000E-02	 7.50000000E-02
					 1.00000000E-02	 5.00000000E-03	 7.25000000E-02
					 1.00000000E-02	 7.50000000E-03	 7.50000000E-02
					 1.00000000E-02	 1.00000000E-02	 7.25000000E-02
[...]
			<PointData>
				<DataArray type="Float32" Name="U" NumberOfComponents="3" ComponentName0="D1" ComponentName1="D2" ComponentName2="D3" format="ascii">
					 0.00000000E+00	 0.00000000E+00	 0.00000000E+00
					 0.00000000E+00	 0.00000000E+00	 0.00000000E+00
					-9.61098000E-02	 6.35941000E-02	 1.16879000E-01
					-5.25592000E-02	 4.65795000E-02	 6.24459000E-03
					 0.00000000E+00	 0.00000000E+00	 0.00000000E+00
					 0.00000000E+00	 0.00000000E+00	 0.00000000E+00
					-7.98535000E-02	 7.55641000E-02	 0.00000000E+00
					-6.72040000E-02	 9.09472000E-02	-1.10601000E-01
					 0.00000000E+00	 0.00000000E+00	 0.00000000E+00
					-4.02037000E-02	 1.14008000E-02	 5.58514000E-02
					-7.87205000E-02	 5.09138000E-02	 6.43068000E-02
					-4.01051000E-03	 9.72712000E-04	 3.15627000E-03
					 0.00000000E+00	 0.00000000E+00	 0.00000000E+00
					 0.00000000E+00	 0.00000000E+00	 0.00000000E+00
					-8.19917000E-02	 7.37746000E-02	 5.38345000E-02
					-5.53671000E-02	 7.29076000E-02	-5.51678000E-02
					 0.00000000E+00	 0.00000000E+00	 0.00000000E+00
					-2.23429000E-02	 2.11427000E-02	 0.00000000E+00
					-7.79625000E-02	 7.75875000E-02	-5.09427000E-02
					-1.20480000E-02	 3.80441000E-02	-5.28513000E-02
					-2.80773000E-01	 2.42722000E-01	 2.11031000E-01
					-2.45391000E-01	 2.29648000E-01	 1.12784000E-02
					-2.68461000E-01	 2.54040000E-01	 0.00000000E+00
					-2.56501000E-01	 2.65691000E-01	-1.99696000E-01
					-1.77266000E-01	 1.41180000E-01	 1.67229000E-01
					-2.66006000E-01	 2.33402000E-01	 1.16238000E-01
					-1.36502000E-01	 1.26227000E-01	 8.93576000E-03
					-2.72007000E-01	 2.51127000E-01	 1.01990000E-01
					-2.48031000E-01	 2.50430000E-01	-9.94670000E-02
					-1.62235000E-01	 1.53521000E-01	 0.00000000E+00
					-2.65383000E-01	 2.57396000E-01	-9.65119000E-02
					-1.49194000E-01	 1.67744000E-01	-1.58246000E-01
					-5.47279000E-01	 5.01864000E-01	 2.80105000E-01
					-5.22946000E-01	 4.93098000E-01	 1.49517000E-02
					-5.38785000E-01	 5.09844000E-01	 0.00000000E+00
					-5.30352000E-01	 5.17882000E-01	-2.65059000E-01
					-4.05510000E-01	 3.64145000E-01	 2.48836000E-01
					-5.37202000E-01	 4.95441000E-01	 1.52160000E-01
					-3.75646000E-01	 3.53303000E-01	 1.32763000E-02
					-5.40825000E-01	 5.07896000E-01	 1.36789000E-01
					-5.24490000E-01	 5.07465000E-01	-1.29853000E-01
					-3.95164000E-01	 3.73938000E-01	 0.00000000E+00
					-5.36727000E-01	 5.11775000E-01	-1.29441000E-01
					-3.84815000E-01	 3.83728000E-01	-2.35470000E-01
					-8.68711000E-01	 8.13251000E-01	 3.23401000E-01
					-8.55357000E-01	 8.08445000E-01	 1.72829000E-02
					-8.64071000E-01	 8.17657000E-01	 0.00000000E+00
					-8.59415000E-01	 8.22048000E-01	-3.06029000E-01
					-7.02661000E-01	 6.52556000E-01	 3.04875000E-01
					-8.63171000E-01	 8.09774000E-01	 1.74862000E-01
					-6.83876000E-01	 6.45784000E-01	 1.62856000E-02
					-8.65275000E-01	 8.16537000E-01	 1.58503000E-01
					-8.56252000E-01	 8.16321000E-01	-1.49057000E-01
					-6.96122000E-01	 6.58729000E-01	 0.00000000E+00
					-8.62888000E-01	 8.18796000E-01	-1.49989000E-01
					-6.89598000E-01	 6.64917000E-01	-2.88498000E-01
					-1.22018000E+00	 1.15262000E+00	 3.41860000E-01
					-1.21728000E+00	 1.15168000E+00	 1.82793000E-02
					-1.21912000E+00	 1.15363000E+00	 0.00000000E+00
					-1.21805000E+00	 1.15464000E+00	-3.23497000E-01
					-1.04228000E+00	 9.80917000E-01	 3.35594000E-01
					-1.21895000E+00	 1.15191000E+00	 1.84311000E-01
					-1.03422000E+00	 9.78079000E-01	 1.79397000E-02
					-1.21941000E+00	 1.15337000E+00	 1.67939000E-01
					-1.21741000E+00	 1.15336000E+00	-1.57003000E-01
					-1.03943000E+00	 9.83601000E-01	 0.00000000E+00
					-1.21884000E+00	 1.15391000E+00	-1.58918000E-01
					-1.03660000E+00	 9.86293000E-01	-3.17567000E-01
					-1.57710000E+00	 1.49668000E+00	 3.37046000E-01
					-1.58389000E+00	 1.49930000E+00	 1.80279000E-02
					-1.57937000E+00	 1.49453000E+00	 0.00000000E+00
					-1.58164000E+00	 1.49238000E+00	-3.18942000E-01
					-1.39942000E+00	 1.32545000E+00	 3.42208000E-01
					-1.57987000E+00	 1.49855000E+00	 1.81419000E-01
					-1.40146000E+00	 1.32633000E+00	 1.83013000E-02
					-1.57884000E+00	 1.49506000E+00	 1.65783000E-01
					-1.58336000E+00	 1.49524000E+00	-1.54479000E-01
					-1.40005000E+00	 1.32484000E+00	 0.00000000E+00
					-1.57993000E+00	 1.49403000E+00	-1.56878000E-01
					-1.40068000E+00	 1.32425000E+00	-3.23826000E-01
					-1.91679000E+00	 1.82381000E+00	 3.10901000E-01
					-1.93231000E+00	 1.82964000E+00	 1.66324000E-02
					-1.92206000E+00	 1.81882000E+00	 0.00000000E+00
					-1.92733000E+00	 1.81383000E+00	-2.94201000E-01
					-1.75044000E+00	 1.66362000E+00	 3.26453000E-01
					-1.92316000E+00	 1.82800000E+00	 1.67196000E-01
					-1.76172000E+00	 1.66790000E+00	 1.74630000E-02
					-1.92079000E+00	 1.82005000E+00	 1.53031000E-01
					-1.93117000E+00	 1.82041000E+00	-1.42337000E-01
					-1.75424000E+00	 1.66001000E+00	 0.00000000E+00
					-1.92337000E+00	 1.81762000E+00	-1.44811000E-01
					-1.75805000E+00	 1.65641000E+00	-3.08917000E-01
					-2.21878000E+00	 2.11449000E+00	 2.65914000E-01
					-2.24186000E+00	 2.12310000E+00	 1.42266000E-02
					-2.22666000E+00	 2.10705000E+00	 0.00000000E+00
					-2.23452000E+00	 2.09960000E+00	-2.51631000E-01
					-2.07368000E+00	 1.97480000E+00	 2.90552000E-01
					-2.22827000E+00	 2.12070000E+00	 1.42962000E-01
					-2.09312000E+00	 1.98209000E+00	 1.55444000E-02
					-2.22474000E+00	 2.10889000E+00	 1.30917000E-01
					-2.24020000E+00	 2.10941000E+00	-1.21698000E-01
					-2.08028000E+00	 1.96854000E+00	 0.00000000E+00
					-2.22861000E+00	 2.10524000E+00	-1.23884000E-01
					-2.08690000E+00	 1.96229000E+00	-2.74945000E-01
					-2.46538000E+00	 2.35187000E+00	 2.05032000E-01
					-2.49464000E+00	 2.36275000E+00	 1.09683000E-02
					-2.47538000E+00	 2.34241000E+00	 0.00000000E+00
					-2.48537000E+00	 2.33295000E+00	-1.94019000E-01
					-2.35000000E+00	 2.24076000E+00	 2.37229000E-01
					-2.47742000E+00	 2.35972000E+00	 1.10283000E-01
					-2.37633000E+00	 2.25059000E+00	 1.26915000E-02
					-2.47294000E+00	 2.34476000E+00	 1.00905000E-01
					-2.49255000E+00	 2.34540000E+00	-9.38910000E-02
					-2.35897000E+00	 2.23225000E+00	 0.00000000E+00
					-2.47786000E+00	 2.34011000E+00	-9.54850000E-02
					-2.36796000E+00	 2.22377000E+00	-2.24486000E-01
					-2.64209000E+00	 2.52212000E+00	 1.31604000E-01
					-2.67601000E+00	 2.53472000E+00	 7.03719000E-03
					-2.65369000E+00	 2.51114000E+00	 0.00000000E+00
					-2.66528000E+00	 2.50017000E+00	-1.24535000E-01
					-2.56325000E+00	 2.44609000E+00	 1.69641000E-01
					-2.65605000E+00	 2.53120000E+00	 7.09394000E-02
					-2.59502000E+00	 2.45792000E+00	 9.07365000E-03
					-2.65086000E+00	 2.51387000E+00	 6.46596000E-02
					-2.67359000E+00	 2.51460000E+00	-6.04261000E-02
					-2.57408000E+00	 2.43581000E+00	 0.00000000E+00
					-2.65657000E+00	 2.50846000E+00	-6.11863000E-02
					-2.58494000E+00	 2.42557000E+00	-1.60529000E-01
					-2.73799000E+00	 2.61484000E+00	 4.92869000E-02
					-2.77493000E+00	 2.62855000E+00	 2.62931000E-03
					-2.75063000E+00	 2.60288000E+00	 0.00000000E+00
					-2.76327000E+00	 2.59092000E+00	-4.66394000E-02
					-2.70069000E+00	 2.57865000E+00	 9.13047000E-02
					-2.75320000E+00	 2.62472000E+00	 2.68765000E-02
					-2.73630000E+00	 2.59189000E+00	 4.87931000E-03
					-2.74754000E+00	 2.60585000E+00	 2.39946000E-02
					-2.77231000E+00	 2.60664000E+00	-2.29567000E-02
					-2.71284000E+00	 2.56712000E+00	 0.00000000E+00
					-2.75377000E+00	 2.59995000E+00	-2.27057000E-02
					-2.72502000E+00	 2.55562000E+00	-8.64002000E-02
					-2.74602000E+00	 2.62330000E+00	-3.80631000E-02
					-2.78429000E+00	 2.63750000E+00	-2.04863000E-03
					-2.75912000E+00	 2.61091000E+00	 0.00000000E+00
					-2.77221000E+00	 2.59851000E+00	 3.60185000E-02
					-2.75328000E+00	 2.62984000E+00	 5.98984000E-03
					-2.76177000E+00	 2.63354000E+00	-1.98514000E-02
					-2.79108000E+00	 2.64389000E+00	 3.10635000E-04
					-2.75591000E+00	 2.61399000E+00	-1.91770000E-02
					-2.78157000E+00	 2.61480000E+00	 1.67730000E-02
					-2.76619000E+00	 2.61760000E+00	 0.00000000E+00
					-2.76237000E+00	 2.60787000E+00	 1.81469000E-02
					-2.77913000E+00	 2.60539000E+00	-5.66810000E-03
					-2.66309000E+00	 2.54460000E+00	-1.26511000E-01
					-2.70100000E+00	 2.55865000E+00	-6.78575000E-03
					-2.67607000E+00	 2.53232000E+00	 0.00000000E+00
					-2.68904000E+00	 2.52004000E+00	 1.19716000E-01
					-2.71597000E+00	 2.59485000E+00	-8.23921000E-02
					-2.67870000E+00	 2.55473000E+00	-6.71486000E-02
					-2.75424000E+00	 2.60906000E+00	-4.42275000E-03
					-2.67289000E+00	 2.53537000E+00	-6.29047000E-02
					-2.69831000E+00	 2.53618000E+00	 5.69830000E-02
					-2.72904000E+00	 2.58245000E+00	 0.00000000E+00
					-2.67929000E+00	 2.52931000E+00	 5.95257000E-02
					-2.74214000E+00	 2.57008000E+00	 7.79663000E-02
					-2.49015000E+00	 2.37964000E+00	-2.12176000E-01
					-2.52604000E+00	 2.39294000E+00	-1.13740000E-02
					-2.50244000E+00	 2.36802000E+00	 0.00000000E+00
					-2.51472000E+00	 2.35639000E+00	 2.00779000E-01
					-2.58767000E+00	 2.47267000E+00	-1.69917000E-01
					-2.50493000E+00	 2.38924000E+00	-1.12946000E-01
					-2.62474000E+00	 2.48643000E+00	-9.11051000E-03
					-2.49943000E+00	 2.37091000E+00	-1.05264000E-01
					-2.52349000E+00	 2.37167000E+00	 9.59158000E-02
					-2.60034000E+00	 2.46066000E+00	 0.00000000E+00
					-2.50549000E+00	 2.36517000E+00	 9.96095000E-02
					-2.61303000E+00	 2.44867000E+00	 1.60790000E-01
					-2.23203000E+00	 2.13307000E+00	-2.91357000E-01
					-2.26435000E+00	 2.14505000E+00	-1.56151000E-02
					-2.24309000E+00	 2.12260000E+00	 0.00000000E+00
					-2.25416000E+00	 2.11213000E+00	 2.75706000E-01
					-2.37130000E+00	 2.26611000E+00	-2.52778000E-01
					-2.24534000E+00	 2.14172000E+00	-1.55272000E-01
					-2.40557000E+00	 2.27883000E+00	-1.35486000E-02
					-2.24038000E+00	 2.12521000E+00	-1.44421000E-01
					-2.26206000E+00	 2.12589000E+00	 1.31896000E-01
					-2.38301000E+00	 2.25500000E+00	 0.00000000E+00
					-2.24584000E+00	 2.12004000E+00	 1.36663000E-01
					-2.39474000E+00	 2.24392000E+00	 2.39199000E-01
					-1.89718000E+00	 1.81301000E+00	-3.60663000E-01
					-1.92455000E+00	 1.82315000E+00	-1.93273000E-02
					-1.90655000E+00	 1.80414000E+00	 0.00000000E+00
					-1.91592000E+00	 1.79527000E+00	 3.41290000E-01
					-2.07354000E+00	 1.98157000E+00	-3.27414000E-01
					-1.90845000E+00	 1.82033000E+00	-1.92319000E-01
					-2.10353000E+00	 1.99271000E+00	-1.75463000E-02
					-1.90425000E+00	 1.80634000E+00	-1.78695000E-01
					-1.92261000E+00	 1.80692000E+00	 1.63389000E-01
					-2.08378000E+00	 1.97185000E+00	 0.00000000E+00
					-1.90888000E+00	 1.80197000E+00	 1.69096000E-01
					-2.09406000E+00	 1.96216000E+00	 3.09826000E-01
					-1.49733000E+00	 1.43067000E+00	-4.17129000E-01
					-1.51859000E+00	 1.43856000E+00	-2.23516000E-02
					-1.50461000E+00	 1.42379000E+00	 0.00000000E+00
					-1.51189000E+00	 1.41690000E+00	 3.94723000E-01
					-1.70454000E+00	 1.62879000E+00	-3.90634000E-01
					-1.50609000E+00	 1.43636000E+00	-2.22507000E-01
					-1.72897000E+00	 1.63787000E+00	-2.09324000E-02
					-1.50283000E+00	 1.42550000E+00	-2.06616000E-01
					-1.51708000E+00	 1.42595000E+00	 1.89052000E-01
					-1.71288000E+00	 1.62088000E+00	 0.00000000E+00
					-1.50642000E+00	 1.42210000E+00	 1.95518000E-01
					-1.72125000E+00	 1.61298000E+00	 3.69650000E-01
					-1.04700000E+00	 9.99960000E-01	-4.58318000E-01
					-1.06121000E+00	 1.00523000E+00	-2.45576000E-02
					-1.05186000E+00	 9.95360000E-01	 0.00000000E+00
					-1.05672000E+00	 9.90757000E-01	 4.33699000E-01
					-1.27748000E+00	 1.22039000E+00	-4.39724000E-01
					-1.05285000E+00	 1.00376000E+00	-2.44536000E-01
					-1.29531000E+00	 1.22702000E+00	-2.35617000E-02
					-1.05067000E+00	 9.96502000E-01	-2.26977000E-01
					-1.06020000E+00	 9.96806000E-01	 2.07780000E-01
					-1.28357000E+00	 1.21462000E+00	 0.00000000E+00
					-1.05307000E+00	 9.94234000E-01	 2.14785000E-01
					-1.28967000E+00	 1.20886000E+00	 4.16104000E-01
					-5.62863000E-01	 5.36841000E-01	-4.82404000E-01
					-5.69380000E-01	 5.39267000E-01	-2.58472000E-02
					-5.65089000E-01	 5.34735000E-01	 0.00000000E+00
					-5.67314000E-01	 5.32628000E-01	 4.56491000E-01
					-8.08048000E-01	 7.71379000E-01	-4.72546000E-01
					-5.65544000E-01	 5.38589000E-01	-2.57433000E-01
					-8.18468000E-01	 7.75256000E-01	-2.53193000E-02
					-5.64547000E-01	 5.35257000E-01	-2.38872000E-01
					-5.68913000E-01	 5.35400000E-01	 2.18749000E-01
					-8.11603000E-01	 7.68007000E-01	 0.00000000E+00
					-5.65641000E-01	 5.34222000E-01	 2.26041000E-01
					-8.15167000E-01	 7.64643000E-01	 4.47163000E-01
					-6.31454000E-02	 5.87497000E-02	-4.88234000E-01
					-6.16200000E-02	 5.81998000E-02	-2.61588000E-02
					-6.26152000E-02	 5.92517000E-02	 0.00000000E+00
					-6.20846000E-02	 5.97535000E-02	 4.62008000E-01
					-3.13774000E-01	 2.98535000E-01	-4.87603000E-01
					-6.25130000E-02	 5.83503000E-02	-2.60585000E-01
					-3.16292000E-01	 2.99484000E-01	-2.61252000E-02
					-6.27493000E-02	 5.91258000E-02	-2.41730000E-01
					-6.17208000E-02	 5.90998000E-02	 2.21435000E-01
					-3.14626000E-01	 2.97726000E-01	 0.00000000E+00
					-6.24820000E-02	 5.93787000E-02	 2.28745000E-01
					-3.15482000E-01	 2.96920000E-01	 4.61411000E-01
					 4.33121000E-01	-4.16100000E-01	-4.75362000E-01
					 4.42726000E-01	-4.19639000E-01	-2.54683000E-02
					 4.36421000E-01	-4.12978000E-01	 0.00000000E+00
					 4.39720000E-01	-4.09855000E-01	 4.49827000E-01
					 1.86621000E-01	-1.80228000E-01	-4.84092000E-01
					 4.37082000E-01	-4.18657000E-01	-2.53755000E-01
					 1.92200000E-01	-1.82279000E-01	-2.59363000E-02
					 4.35607000E-01	-4.13755000E-01	-2.35328000E-01
					 4.42055000E-01	-4.13951000E-01	 2.15640000E-01
					 1.88539000E-01	-1.78411000E-01	 0.00000000E+00
					 4.37242000E-01	-4.12208000E-01	 2.22687000E-01
					 1.90459000E-01	-1.76597000E-01	 4.58089000E-01
					 9.06817000E-01	-8.69418000E-01	-4.44059000E-01
					 9.24233000E-01	-8.75846000E-01	-2.37903000E-02
					 9.12795000E-01	-8.63763000E-01	 0.00000000E+00
					 9.18770000E-01	-8.58107000E-01	 4.20206000E-01
					 6.73971000E-01	-6.46570000E-01	-4.61928000E-01
					 9.13997000E-01	-8.74060000E-01	-2.37089000E-01
					 6.87528000E-01	-6.51577000E-01	-2.47480000E-02
					 9.11323000E-01	-8.65170000E-01	-2.19800000E-01
					 9.23011000E-01	-8.65529000E-01	 2.01486000E-01
					 6.78618000E-01	-6.42165000E-01	 0.00000000E+00
					 9.14282000E-01	-8.62371000E-01	 2.07993000E-01
					 6.83273000E-01	-6.37768000E-01	 4.37115000E-01
					 1.33947000E+00	-1.28353000E+00	-3.95295000E-01
					 1.36413000E+00	-1.29264000E+00	-2.11767000E-02
					 1.34793000E+00	-1.27553000E+00	 0.00000000E+00
					 1.35639000E+00	-1.26752000E+00	 3.74062000E-01
					 1.12939000E+00	-1.08243000E+00	-4.21734000E-01
					 1.34964000E+00	-1.29011000E+00	-2.11107000E-01
					 1.15051000E+00	-1.09023000E+00	-2.25936000E-02
					 1.34585000E+00	-1.27752000E+00	-1.95625000E-01
					 1.36240000E+00	-1.27803000E+00	 1.79417000E-01
					 1.13662000E+00	-1.07557000E+00	 0.00000000E+00
					 1.35004000E+00	-1.27356000E+00	 1.85116000E-01
					 1.14387000E+00	-1.06872000E+00	 3.99080000E-01
					 1.71396000E+00	-1.64206000E+00	-3.30693000E-01
					 1.74503000E+00	-1.65354000E+00	-1.77145000E-02
					 1.72462000E+00	-1.63198000E+00	 0.00000000E+00
					 1.73527000E+00	-1.62189000E+00	 3.12930000E-01
					 1.53499000E+00	-1.47069000E+00	-3.64815000E-01
					 1.72677000E+00	-1.65035000E+00	-1.76676000E-01
					 1.56297000E+00	-1.48103000E+00	-1.95431000E-02
					 1.72200000E+00	-1.63449000E+00	-1.63605000E-01
					 1.74285000E+00	-1.63513000E+00	 1.50169000E-01
					 1.54457000E+00	-1.46160000E+00	 0.00000000E+00
					 1.72727000E+00	-1.62950000E+00	 1.54816000E-01
					 1.55417000E+00	-1.45254000E+00	 3.45219000E-01
					 2.01512000E+00	-1.93052000E+00	-2.52458000E-01
					 2.05154000E+00	-1.94397000E+00	-1.35217000E-02
					 2.02761000E+00	-1.91870000E+00	 0.00000000E+00
					 2.04010000E+00	-1.90687000E+00	 2.38897000E-01
					 1.87456000E+00	-1.79585000E+00	-2.93094000E-01
					 2.03013000E+00	-1.94023000E+00	-1.34975000E-01
					 1.90844000E+00	-1.80838000E+00	-1.56994000E-02
					 2.02454000E+00	-1.92164000E+00	-1.24830000E-01
					 2.04898000E+00	-1.92239000E+00	 1.14745000E-01
					 1.88617000E+00	-1.78485000E+00	 0.00000000E+00
					 2.03072000E+00	-1.91579000E+00	 1.18124000E-01
					 1.89779000E+00	-1.77387000E+00	 2.77350000E-01
					 2.23033000E+00	-2.13683000E+00	-1.63280000E-01
					 2.27085000E+00	-2.15179000E+00	-8.74237000E-03
					 2.24423000E+00	-2.12368000E+00	 0.00000000E+00
					 2.25813000E+00	-2.11053000E+00	 1.54509000E-01
					 2.13415000E+00	-2.04457000E+00	-2.09031000E-01
					 2.24703000E+00	-2.14764000E+00	-8.74419000E-02
					 2.17277000E+00	-2.05885000E+00	-1.11943000E-02
					 2.24081000E+00	-2.12695000E+00	-8.06309000E-02
					 2.26800000E+00	-2.12779000E+00	 7.43658000E-02
					 2.14738000E+00	-2.03203000E+00	 0.00000000E+00
					 2.24769000E+00	-2.12045000E+00	 7.62998000E-02
					 2.16063000E+00	-2.01952000E+00	 1.97803000E-01
					 2.34995000E+00	-2.25178000E+00	-6.62231000E-02
					 2.39317000E+00	-2.26775000E+00	-3.54075000E-03
					 2.36478000E+00	-2.23775000E+00	 0.00000000E+00
					 2.37960000E+00	-2.22372000E+00	 6.26659000E-02
					 2.30258000E+00	-2.20616000E+00	-1.15520000E-01
					 2.36777000E+00	-2.26331000E+00	-3.57145000E-02
					 2.34460000E+00	-2.22170000E+00	-6.18274000E-03
					 2.36113000E+00	-2.24124000E+00	-3.25238000E-02
					 2.39014000E+00	-2.24214000E+00	 3.04253000E-02
					 2.31697000E+00	-2.19251000E+00	 0.00000000E+00
					 2.36847000E+00	-2.23430000E+00	 3.07768000E-02
					 2.33139000E+00	-2.17889000E+00	 1.09315000E-01
					 2.36761000E+00	-2.26931000E+00	 3.54054000E-02
					 2.41208000E+00	-2.28573000E+00	 1.90610000E-03
					 2.38287000E+00	-2.25487000E+00	 0.00000000E+00
					 2.39813000E+00	-2.24044000E+00	-3.35036000E-02
					 2.37180000E+00	-2.27295000E+00	-1.57626000E-02
					 2.38594000E+00	-2.28117000E+00	 1.84394000E-02
					 2.41581000E+00	-2.28922000E+00	-8.36307000E-04
					 2.37912000E+00	-2.25847000E+00	 1.78566000E-02
					 2.40896000E+00	-2.25938000E+00	-1.55745000E-02
					 2.38687000E+00	-2.25866000E+00	 0.00000000E+00
					 2.38667000E+00	-2.25132000E+00	-1.68974000E-02
					 2.40197000E+00	-2.24440000E+00	 1.49159000E-02
					 2.28043000E+00	-2.18667000E+00	 1.38199000E-01
					 2.32467000E+00	-2.20300000E+00	 7.41570000E-03
					 2.29562000E+00	-2.17231000E+00	 0.00000000E+00
					 2.31080000E+00	-2.15794000E+00	-1.30775000E-01
					 2.33718000E+00	-2.24053000E+00	 8.68665000E-02
					 2.29867000E+00	-2.19847000E+00	 7.31982000E-02
					 2.38170000E+00	-2.25698000E+00	 4.66429000E-03
					 2.29188000E+00	-2.17588000E+00	 6.88257000E-02
					 2.32157000E+00	-2.17679000E+00	-6.20848000E-02
					 2.35243000E+00	-2.22607000E+00	 0.00000000E+00
					 2.29940000E+00	-2.16877000E+00	-6.51287000E-02
					 2.36771000E+00	-2.21164000E+00	-8.22004000E-02
					 2.08902000E+00	-2.00449000E+00	 2.38798000E-01
					 2.13162000E+00	-2.02020000E+00	 1.28081000E-02
					 2.10365000E+00	-1.99065000E+00	 0.00000000E+00
					 2.11827000E+00	-1.97681000E+00	-2.25970000E-01
					 2.19760000E+00	-2.10783000E+00	 1.88966000E-01
					 2.10659000E+00	-2.01583000E+00	 1.26765000E-01
					 2.24116000E+00	-2.12393000E+00	 1.01369000E-02
					 2.10005000E+00	-1.99409000E+00	 1.18723000E-01
					 2.12864000E+00	-1.99497000E+00	-1.07578000E-01
					 2.21253000E+00	-2.09368000E+00	 0.00000000E+00
					 2.10729000E+00	-1.98724000E+00	-1.12346000E-01
					 2.22748000E+00	-2.07955000E+00	-1.78815000E-01
					 1.79737000E+00	-1.72660000E+00	 3.34041000E-01
					 1.83701000E+00	-1.74120000E+00	 1.79141000E-02
					 1.81099000E+00	-1.71371000E+00	 0.00000000E+00
					 1.82461000E+00	-1.70082000E+00	-3.16098000E-01
					 1.95536000E+00	-1.87712000E+00	 2.87257000E-01
					 1.81372000E+00	-1.73715000E+00	 1.77449000E-01