<?xml version="1.0"?>
<VTKFile type="UnstructuredGrid" version="0.1" byte_order="LittleEndian">
	<UnstructuredGrid>
		<Piece NumberOfPoints="1221" NumberOfCells="160">
			<Points>
				<DataArray type="Float64" NumberOfComponents="3" format="ascii">
					 1.00000000E-02	 1.00000000E-02	 0.00000000E+00
					 1.00000000E-02	 5.00000000E-03	 0.00000000E+00
					 1.00000000E-02	 5.00000000E-03	 5.00000000E-03
					 1.00000000E-02	 1.00000000E-02	 5.00000000E-03
					 5.00000000E-03	 1.00000000E-02	 0.00000000E+00
					 5.00000000E-03	 5.00000000E-03	 0.00000000E+00
					 5.00000000E-03	 5.00000000E-03	 5.00000000E-03
					 5.00000000E-03	 1.00000000E-02	 5.00000000E-03
					 1.00000000E-02	 7.50000000E-03	 0.00000000E+00
					 1.00000000E-02	 5.00000000E-03	 2.50000000E-03
					 1.00000000E-02	 7.50000000E-03	 5.00000000E-03
					 1.00000000E-02	 1.00000000E-02	 2.50000000E-03
					 7.50000000E-03	 1.00000000E-02	 0.00000000E+00
					 7.50000000E-03	 5.00000000E-03	 0.00000000E+00
					 7.50000000E-03	 5.00000000E-03	 5.00000000E-03
					 7.50000000E-03	 1.00000000E-02	 5.00000000E-03
					 5.00000000E-03	 7.50000000E-03	 0.00000000E+00
					 5.00000000E-03	 5.00000000E-03	 2.50000000E-03
					 5.00000000E-03	 7.50000000E-03	 5.00000000E-03
					 5.00000000E-03	 1.00000000E-02	 2.50000000E-03
					 1.00000000E-02	 5.00000000E-03	 1.00000000E-02
					 1.00000000E-02	 1.00000000E-02	 1.00000000E-02
					 5.00000000E-03	 5.00000000E-03	 1.00000000E-02
					 5.00000000E-03	 1.00000000E-02	 1.00000000E-02
					 1.00000000E-02	 5.00000000E-03	 7.50000000E-03
					 1.00000000E-02	 7.50000000E-03	 1.00000000E-02
					 1.00000000E-02	 1.00000000E-02	 7.50000000E-03
					 7.50000000E-03	 5.00000000E-03	 1.00000000E-02
					 7.50000000E-03	 1.00000000E-02	 1.00000000E-02
					 5.00000000E-03	 5.00000000E-03	 7.50000000E-03
					 5.00000000E-03	 7.50000000E-03	 1.00000000E-02
					 5.00000000E-03	 1.00000000E-02	 7.50000000E-03
					 1.00000000E-02	 5.00000000E-03	 1.50000000E-02
					 1.00000000E-02	 1.00000000E-02	 1.50000000E-02
					 5.00000000E-03	 5.00000000E-03	 1.50000000E-02
					 5.00000000E-03	 1.00000000E-02	 1.50000000E-02
					 1.00000000E-02	 5.00000000E-03	 1.25000000E-02
					 1.00000000E-02	 7.50000000E-03	 1.50000000E-02
					 1.00000000E-02	 1.00000000E-02	 1.25000000E-02
					 7.50000000E-03	 5.00000000E-03	 1.50000000E-02
					 7.50000000E-03	 1.00000000E-02	 1.50000000E-02
					 5.00000000E-03	 5.00000000E-03	 1.25000000E-02
					 5.00000000E-03	 7.50000000E-03	 1.50000000E-02
					 5.00000000E-03	 1.00000000E-02	 1.25000000E-02
					 1.00000000E-02	 5.00000000E-03	 2.00000000E-02
					 1.00000000E-02	 1.00000000E-02	 2.00000000E-02
					 5.00000000E-03	 5.00000000E-03	 2.00000000E-02
					 5.00000000E-03	 1.00000000E-02	 2.00000000E-02
					 1.00000000E-02	 5.00000000E-03	 1.75000000E-02
					 1.00000000E-02	 7.50000000E-03	 2.00000000E-02
					 1.00000000E-02	 1.00000000E-02	 1.75000000E-02
					 7.50000000E-03	 5.00000000E-03	 2.00000000E-02
					 7.50000000E-03	 1.00000000E-02	 2.00000000E-02
					 5.00000000E-03	 5.00000000E-03	 1.75000000E-02
					 5.00000000E-03	 7.50000000E-03	 2.00000000E-02
					 5.00000000E-03	 1.00000000E-02	 1.75000000E-02
					 1.00000000E-02	 5.00000000E-03	 2.50000000E-02
					 1.00000000E-02	 1.00000000E-02	 2.50000000E-02
					 5.00000000E-03	 5.00000000E-03	 2.50000000E-02
					 5.00000000E-03	 1.00000000E-02	 2.50000000E-02
					 1.00000000E-02	 5.00000000E-03	 2.25000000E-02
					 1.00000000E-02	 7.50000000E-03	 2.50000000E-02
					 1.00000000E-02	 1.00000000E-02	 2.25000000E-02
					 7.50000000E-03	 5.00000000E-03	 2.50000000E-02
					 7.50000000E-03	 1.00000000E-02	 2.50000000E-02
					 5.00000000E-03	 5.00000000E-03	 2.25000000E-02
					 5.00000000E-03	 7.50000000E-03	 2.50000000E-02
					 5.00000000E-03	 1.00000000E-02	 2.25000000E-02
					 1.00000000E-02	 5.00000000E-03	 3.00000000E-02
					 1.00000000E-02	 1.00000000E-02	 3.00000000E-02
					 5.00000000E-03	 5.00000000E-03	 3.00000000E-02
					 5.00000000E-03	 1.00000000E-02	 3.00000000E-02
					 1.00000000E-02	 5.00000000E-03	 2.75000000E-02
					 1.00000000E-02	 7.50000000E-03	 3.00000000E-02
					 1.00000000E-02	 1.00000000E-02	 2.75000000E-02
					 7.50000000E-03	 5.00000000E-03	 3.00000000E-02
					 7.50000000E-03	 1.00000000E-02	 3.00000000E-02
					 5.00000000E-03	 5.00000000E-03	 2.75000000E-02
					 5.00000000E-03	 7.50000000E-03	 3.00000000E-02
					 5.00000000E-03	 1.00000000E-02	 2.75000000E-02
					 1.00000000E-02	 5.00000000E-03	 3.50000000E-02
					 1.00000000E-02	 1.00000000E-02	 3.50000000E-02
					 5.00000000E-03	 5.00000000E-03	 3.50000000E-02
					 5.00000000E-03	 1.00000000E-02	 3.50000000E-02
					 1.00000000E-02	 5.00000000E-03	 3.25000000E-02
					 1.00000000E-02	 7.50000000E-03	 3.50000000E-02
					 1.00000000E-02	 1.00000000E-02	 3.25000000E-02
					 7.50000000E-03	 5.00000000E-03	 3.50000000E-02
					 7.50000000E-03	 1.00000000E-02	 3.50000000E-02
					 5.00000000E-03	 5.00000000E-03	 3.25000000E-02
					 5.00000000E-03	 7.50000000E-03	 3.50000000E-02
					 5.00000000E-03	 1.00000000E-02	 3.25000000E-02
					 1.00000000E-02	 5.00000000E-03	 4.00000000E-02
					 1.00000000E-02	 1.00000000E-02	 4.00000000E-02
					 5.00000000E-03	 5.00000000E-03	 4.00000000E-02
					 5.00000000E-03	 1.00000000E-02	 4.00000000E-02
					 1.00000000E-02	 5.00000000E-03	 3.75000000E-02
					 1.00000000E-02	 7.50000000E-03	 4.00000000E-02
					 1.00000000E-02	 1.00000000E-02	 3.75000000E-02
					 7.50000000E-03	 5.00000000E-03	 4.00000000E-02
					 7.50000000E-03	 1.00000000E-02	 4.00000000E-02
					 5.00000000E-03	 5.00000000E-03	 3.75000000E-02
					 5.00000000E-03	 7.50000000E-03	 4.00000000E-02
					 5.00000000E-03	 1.00000000E-02	 3.75000000E-02
					 1.00000000E-02	 5.00000000E-03	 4.50000000E-02
					 1.00000000E-02	 1.00000000E-02	 4.50000000E-02
					 5.00000000E-03	 5.00000000E-03	 4.50000000E-02
					 5.00000000E-03	 1.00000000E-02	 4.50000000E-02
					 1.00000000E-02	 5.00000000E-03	 4.25000000E-02
					 1.00000000E-02	 7.50000000E-03	 4.50000000E-02
					 1.00000000E-02	 1.00000000E-02	 4.25000000E-02
					 7.50000000E-03	 5.00000000E-03	 4.50000000E-02
					 7.50000000E-03	 1.00000000E-02	 4.50000000E-02
					 5.00000000E-03	 5.00000000E-03	 4.25000000E-02
					 5.00000000E-03	 7.50000000E-03	 4.50000000E-02
					 5.00000000E-03	 1.00000000E-02	 4.25000000E-02
					 1.00000000E-02	 5.00000000E-03	 5.00000000E-02
					 1.00000000E-02	 1.00000000E-02	 5.00000000E-02
					 5.00000000E-03	 5.00000000E-03	 5.00000000E-02
					 5.00000000E-03	 1.00000000E-02	 5.00000000E-02
					 1.00000000E-02	 5.00000000E-03	 4.75000000E-02
					 1.00000000E-02	 7.50000000E-03	 5.00000000E-02
					 1.00000000E-02	 1.00000000E-02	 4.75000000E-02
					 7.50000000E-03	 5.00000000E-03	 5.00000000E-02
					 7.50000000E-03	 1.00000000E-02	 5.00000000E-02
					 5.00000000E-03	 5.00000000E-03	 4.75000000E-02
					 5.00000000E-03	 7.50000000E-03	 5.00000000E-02
					 5.00000000E-03	 1.00000000E-02	 4.75000000E-02
					 1.00000000E-02	 5.00000000E-03	 5.50000000E-02
					 1.00000000E-02	 1.00000000E-02	 5.50000000E-02
					 5.00000000E-03	 5.00000000E-03	 5.50000000E-02
					 5.00000000E-03	 1.00000000E-02	 5.50000000E-02
					 1.00000000E-02	 5.00000000E-03	 5.25000000E-02
					 1.00000000E-02	 7.50000000E-03	 5.50000000E-02
					 1.00000000E-02	 1.00000000E-02	 5.25000000E-02
					 7.50000000E-03	 5.00000000E-03	 5.50000000E-02
					 7.50000000E-03	 1.00000000E-02	 5.50000000E-02
					 5.00000000E-03	 5.00000000E-03	 5.25000000E-02
					 5.00000000E-03	 7.50000000E-03	 5.50000000E-02
					 5.00000000E-03	 1.00000000E-02	 5.25000000E-02
					 1.00000000E-02	 5.00000000E-03	 6.00000000E-02
					 1.00000000E-02	 1.00000000E-02	 6.00000000E-02
					 5.00000000E-03	 5.00000000E-03	 6.00000000E-02
					 5.00000000E-03	 1.00000000E-02	 6.00000000E-02
					 1.00000000E-02	 5.00000000E-03	 5.75000000E-02
					 1.00000000E-02	 7.50000000E-03	 6.00000000E-02
					 1.00000000E-02	 1.00000000E-02	 5.75000000E-02
					 7.50000000E-03	 5.00000000E-03	 6.00000000E-02
					 7.50000000E-03	 1.00000000E-02	 6.00000000E-02
					 5.00000000E-03	 5.00000000E-03	 5.75000000E-02
					 5.00000000E-03	 7.50000000E-03	 6.00000000E-02
					 5.00000000E-03	 1.00000000E-02	 5.75000000E-02
					 1.00000000E-02	 5.00000000E-03	 6.50000000E-02
					 1.00000000E-02	 1.00000000E-02	 6.50000000E-02
					 5.00000000E-03	 5.00000000E-03	 6.50000000E-02
					 5.00000000E-03	 1.00000000E-02	 6.50000000E-02
					 1.00000000E-02	 5.00000000E-03	 6.25000000E-02
					 1.00000000E-02	 7.50000000E-03	 6.50000000E-02
					 1.00000000E-02	 1.00000000E-02	 6.25000000E-02
					 7.50000000E-03	 5.00000000E-03	 6.50000000E-02
					 7.50000000E-03	 1.00000000E-02	 6.50000000E-02
					 5.00000000E-03	 5.00000000E-03	 6.25000000E-02
					 5.00000000E-03	 7.50000000E-03	 6.50000000E-02
					 5.00000000E-03	 1.00000000E-02	 6.25000000E-02
					 1.00000000E-02	 5.00000000E-03	 7.00000000E-02
					 1.00000000E-02	 1.00000000E-02	 7.00000000E-02
					 5.00000000E-03	 5.00000000E-03	 7.00000000E-02
					 5.00000000E-03	 1.00000000E-02	 7.00000000E-02
					 1.00000000E-02	 5.00000000E-03	 6.75000000E-02
					 1.00000000E-02	 7.50000000E-03	 7.00000000E-02
					 1.00000000E-02	 1.00000000E-02	 6.75000000E-02
					 7.50000000E-03	 5.00000000E-03	 7.00000000E-02
					 7.50000000E-03	 1.00000000E-02	 7.00000000E-02
					 5.00000000E-03	 5.00000000E-03	 6.75000000E-02
					 5.00000000E-03	 7.50000000E-03	 7.00000000E-02
					 5.00000000E-03	 1.00000000E-02	 6.75000000E-02
					 1.00000000E-02	 5.00000000E-03	 7.50000000E-02
					 1.00000000E-02	 1.00000000E-02	 7.50000000E-02
					 5.00000000E-03	 5.00000000E-03	 7.50000000E-02
					 5.00000000E-03	 1.00000000E-02	 7.50000000E-02
					 1.00000000E-02	 5.00000000E-03	 7.25000000E-02
					 1.00000000E-02	 7.50000000E-03	 7.50000000E-02
					 1.00000000E-02	 1.00000000E-02	 7.25000000E-02
[...]
			<PointData>
				<DataArray type="Float32" Name="U" NumberOfComponents="3" ComponentName0="D1" ComponentName1="D2" ComponentName2="D3" format="ascii">
					 0.00000000E+00	 0.00000000E+00	 0.00000000E+00
					 0.00000000E+00	 0.00000000E+00	 0.00000000E+00
					 0.00000000E+00	-8.12597000E-01	 0.00000000E+00
					 7.87297000E-01	-7.87297000E-01	 0.00000000E+00
					 0.00000000E+00	 0.00000000E+00	 0.00000000E+00
					 0.00000000E+00	 0.00000000E+00	 0.00000000E+00
					 0.00000000E+00	 0.00000000E+00	 0.00000000E+00
					 8.12597000E-01	 0.00000000E+00	 0.00000000E+00
					 0.00000000E+00	 0.00000000E+00	 0.00000000E+00
					 0.00000000E+00	-4.09089000E-01	 0.00000000E+00
					 3.99711000E-01	-7.97709000E-01	-1.34708000E-01
					 3.60387000E-01	-3.60387000E-01	 0.00000000E+00
					 0.00000000E+00	 0.00000000E+00	 0.00000000E+00
					 0.00000000E+00	 0.00000000E+00	 0.00000000E+00
					 0.00000000E+00	-4.02398000E-01	 0.00000000E+00
					 7.97709000E-01	-3.99711000E-01	 1.34708000E-01
					 0.00000000E+00	 0.00000000E+00	 0.00000000E+00
					 0.00000000E+00	 0.00000000E+00	 0.00000000E+00
					 4.02398000E-01	 0.00000000E+00	 0.00000000E+00
					 4.09089000E-01	 0.00000000E+00	 0.00000000E+00
					 0.00000000E+00	-1.62605000E+00	 0.00000000E+00
					 1.63331000E+00	-1.63331000E+00	 0.00000000E+00
					 0.00000000E+00	 0.00000000E+00	 0.00000000E+00
					 1.62605000E+00	 0.00000000E+00	 0.00000000E+00
					 0.00000000E+00	-1.22032000E+00	 0.00000000E+00
					 8.14215000E-01	-1.63081000E+00	-1.15164000E-01
					 1.22429000E+00	-1.22429000E+00	 0.00000000E+00
					 0.00000000E+00	-8.14811000E-01	 0.00000000E+00
					 1.63081000E+00	-8.14215000E-01	 1.15164000E-01
					 0.00000000E+00	 0.00000000E+00	 0.00000000E+00
					 8.14811000E-01	 0.00000000E+00	 0.00000000E+00
					 1.22032000E+00	 0.00000000E+00	 0.00000000E+00
					 0.00000000E+00	-2.38909000E+00	 0.00000000E+00
					 2.39442000E+00	-2.39442000E+00	 0.00000000E+00
					 0.00000000E+00	 0.00000000E+00	 0.00000000E+00
					 2.38909000E+00	 0.00000000E+00	 0.00000000E+00
					 0.00000000E+00	-2.01759000E+00	 0.00000000E+00
					 1.19657000E+00	-2.39177000E+00	-1.03963000E-01
					 2.02335000E+00	-2.02335000E+00	 0.00000000E+00
					 0.00000000E+00	-1.19476000E+00	 0.00000000E+00
					 2.39177000E+00	-1.19657000E+00	 1.03963000E-01
					 0.00000000E+00	 0.00000000E+00	 0.00000000E+00
					 1.19476000E+00	 0.00000000E+00	 0.00000000E+00
					 2.01759000E+00	 0.00000000E+00	 0.00000000E+00
					 0.00000000E+00	-3.05723000E+00	 0.00000000E+00
					 3.06471000E+00	-3.06471000E+00	 0.00000000E+00
					 0.00000000E+00	 0.00000000E+00	 0.00000000E+00
					 3.05723000E+00	 0.00000000E+00	 0.00000000E+00
					 0.00000000E+00	-2.73635000E+00	 0.00000000E+00
					 1.53104000E+00	-3.06138000E+00	-8.88634000E-02
					 2.74280000E+00	-2.74280000E+00	 0.00000000E+00
					 0.00000000E+00	-1.52935000E+00	 0.00000000E+00
					 3.06138000E+00	-1.53104000E+00	 8.88634000E-02
					 0.00000000E+00	 0.00000000E+00	 0.00000000E+00
					 1.52935000E+00	 0.00000000E+00	 0.00000000E+00
					 2.73635000E+00	 0.00000000E+00	 0.00000000E+00
					 0.00000000E+00	-3.60815000E+00	 0.00000000E+00
					 3.61691000E+00	-3.61691000E+00	 0.00000000E+00
					 0.00000000E+00	 0.00000000E+00	 0.00000000E+00
					 3.60815000E+00	 0.00000000E+00	 0.00000000E+00
					 0.00000000E+00	-3.34885000E+00	 0.00000000E+00
					 1.80698000E+00	-3.61293000E+00	-7.00971000E-02
					 3.35706000E+00	-3.35706000E+00	 0.00000000E+00
					 0.00000000E+00	-1.80486000E+00	 0.00000000E+00
					 3.61293000E+00	-1.80698000E+00	 7.00971000E-02
					 0.00000000E+00	 0.00000000E+00	 0.00000000E+00
					 1.80486000E+00	 0.00000000E+00	 0.00000000E+00
					 3.34885000E+00	 0.00000000E+00	 0.00000000E+00
					 0.00000000E+00	-4.01989000E+00	 0.00000000E+00
					 4.02965000E+00	-4.02965000E+00	 0.00000000E+00
					 0.00000000E+00	 0.00000000E+00	 0.00000000E+00
					 4.01989000E+00	 0.00000000E+00	 0.00000000E+00
					 0.00000000E+00	-3.83252000E+00	 0.00000000E+00
					 2.01317000E+00	-4.02524000E+00	-4.86977000E-02
					 3.84185000E+00	-3.84185000E+00	 0.00000000E+00
					 0.00000000E+00	-2.01083000E+00	 0.00000000E+00
					 4.02524000E+00	-2.01317000E+00	 4.86977000E-02
					 0.00000000E+00	 0.00000000E+00	 0.00000000E+00
					 2.01083000E+00	 0.00000000E+00	 0.00000000E+00
					 3.83252000E+00	 0.00000000E+00	 0.00000000E+00
					 0.00000000E+00	-4.27673000E+00	 0.00000000E+00
					 4.28711000E+00	-4.28711000E+00	 0.00000000E+00
					 0.00000000E+00	 0.00000000E+00	 0.00000000E+00
					 4.27673000E+00	 0.00000000E+00	 0.00000000E+00
					 0.00000000E+00	-4.16842000E+00	 0.00000000E+00
					 2.14180000E+00	-4.28241000E+00	-2.54060000E-02
					 4.17859000E+00	-4.17859000E+00	 0.00000000E+00
					 0.00000000E+00	-2.13931000E+00	 0.00000000E+00
					 4.28241000E+00	-2.14180000E+00	 2.54060000E-02
					 0.00000000E+00	 0.00000000E+00	 0.00000000E+00
					 2.13931000E+00	 0.00000000E+00	 0.00000000E+00
					 4.16842000E+00	 0.00000000E+00	 0.00000000E+00
					 0.00000000E+00	-4.36873000E+00	 0.00000000E+00
					 4.37934000E+00	-4.37934000E+00	 0.00000000E+00
					 0.00000000E+00	 0.00000000E+00	 0.00000000E+00
					 4.36873000E+00	 0.00000000E+00	 0.00000000E+00
					 0.00000000E+00	-4.34369000E+00	 0.00000000E+00
					 2.18787000E+00	-4.37453000E+00	-1.13845000E-03
					 4.35428000E+00	-4.35428000E+00	 0.00000000E+00
					 0.00000000E+00	-2.18533000E+00	 0.00000000E+00
					 4.37453000E+00	-2.18787000E+00	 1.13845000E-03
					 0.00000000E+00	 0.00000000E+00	 0.00000000E+00
					 2.18533000E+00	 0.00000000E+00	 0.00000000E+00
					 4.34369000E+00	 0.00000000E+00	 0.00000000E+00
					 0.00000000E+00	-4.29236000E+00	 0.00000000E+00
					 4.30278000E+00	-4.30278000E+00	 0.00000000E+00
					 0.00000000E+00	 0.00000000E+00	 0.00000000E+00
					 4.29236000E+00	 0.00000000E+00	 0.00000000E+00
					 0.00000000E+00	-4.35154000E+00	 0.00000000E+00
					 2.14962000E+00	-4.29806000E+00	 2.31737000E-02
					 4.36215000E+00	-4.36215000E+00	 0.00000000E+00
					 0.00000000E+00	-2.14712000E+00	 0.00000000E+00
					 4.29806000E+00	-2.14962000E+00	-2.31737000E-02
					 0.00000000E+00	 0.00000000E+00	 0.00000000E+00
					 2.14712000E+00	 0.00000000E+00	 0.00000000E+00
					 4.35154000E+00	 0.00000000E+00	 0.00000000E+00
					 0.00000000E+00	-4.05055000E+00	 0.00000000E+00
					 4.06039000E+00	-4.06039000E+00	 0.00000000E+00
					 0.00000000E+00	 0.00000000E+00	 0.00000000E+00
					 4.05055000E+00	 0.00000000E+00	 0.00000000E+00
					 0.00000000E+00	-4.19168000E+00	 0.00000000E+00
					 2.02853000E+00	-4.05593000E+00	 4.65926000E-02
					 4.20190000E+00	-4.20190000E+00	 0.00000000E+00
					 0.00000000E+00	-2.02617000E+00	 0.00000000E+00
					 4.05593000E+00	-2.02853000E+00	-4.65926000E-02
					 0.00000000E+00	 0.00000000E+00	 0.00000000E+00
					 2.02617000E+00	 0.00000000E+00	 0.00000000E+00
					 4.19168000E+00	 0.00000000E+00	 0.00000000E+00
					 0.00000000E+00	-3.65264000E+00	 0.00000000E+00
					 3.66151000E+00	-3.66151000E+00	 0.00000000E+00
					 0.00000000E+00	 0.00000000E+00	 0.00000000E+00
					 3.65264000E+00	 0.00000000E+00	 0.00000000E+00
					 0.00000000E+00	-3.87027000E+00	 0.00000000E+00
					 1.82925000E+00	-3.65749000E+00	 6.82158000E-02
					 3.87971000E+00	-3.87971000E+00	 0.00000000E+00
					 0.00000000E+00	-1.82712000E+00	 0.00000000E+00
					 3.65749000E+00	-1.82925000E+00	-6.82158000E-02
					 0.00000000E+00	 0.00000000E+00	 0.00000000E+00
					 1.82712000E+00	 0.00000000E+00	 0.00000000E+00
					 3.87027000E+00	 0.00000000E+00	 0.00000000E+00
					 0.00000000E+00	-3.11395000E+00	 0.00000000E+00
					 3.12151000E+00	-3.12151000E+00	 0.00000000E+00
					 0.00000000E+00	 0.00000000E+00	 0.00000000E+00
					 3.11395000E+00	 0.00000000E+00	 0.00000000E+00
					 0.00000000E+00	-3.39970000E+00	 0.00000000E+00
					 1.55947000E+00	-3.11808000E+00	 8.72098000E-02
					 3.40799000E+00	-3.40799000E+00	 0.00000000E+00
					 0.00000000E+00	-1.55766000E+00	 0.00000000E+00
					 3.11808000E+00	-1.55947000E+00	-8.72098000E-02
					 0.00000000E+00	 0.00000000E+00	 0.00000000E+00
					 1.55766000E+00	 0.00000000E+00	 0.00000000E+00
					 3.39970000E+00	 0.00000000E+00	 0.00000000E+00
					 0.00000000E+00	-2.45524000E+00	 0.00000000E+00
					 2.46121000E+00	-2.46121000E+00	 0.00000000E+00
					 0.00000000E+00	 0.00000000E+00	 0.00000000E+00
					 2.45524000E+00	 0.00000000E+00	 0.00000000E+00
					 0.00000000E+00	-2.79810000E+00	 0.00000000E+00
					 1.22959000E+00	-2.45851000E+00	 1.02843000E-01
					 2.80492000E+00	-2.80492000E+00	 0.00000000E+00
					 0.00000000E+00	-1.22816000E+00	 0.00000000E+00
					 2.45851000E+00	-1.22959000E+00	-1.02843000E-01
					 0.00000000E+00	 0.00000000E+00	 0.00000000E+00
					 1.22816000E+00	 0.00000000E+00	 0.00000000E+00
					 2.79810000E+00	 0.00000000E+00	 0.00000000E+00
					 0.00000000E+00	-1.70191000E+00	 0.00000000E+00
					 1.70605000E+00	-1.70605000E+00	 0.00000000E+00
					 0.00000000E+00	 0.00000000E+00	 0.00000000E+00
					 1.70191000E+00	 0.00000000E+00	 0.00000000E+00
					 0.00000000E+00	-2.08866000E+00	 0.00000000E+00
					 8.52323000E-01	-1.70417000E+00	 1.14512000E-01
					 2.09375000E+00	-2.09375000E+00	 0.00000000E+00
					 0.00000000E+00	-8.51332000E-01	 0.00000000E+00
					 1.70417000E+00	-8.52323000E-01	-1.14512000E-01
					 0.00000000E+00	 0.00000000E+00	 0.00000000E+00
					 8.51332000E-01	 0.00000000E+00	 0.00000000E+00
					 2.08866000E+00	 0.00000000E+00	 0.00000000E+00
					 0.00000000E+00	-8.82989000E-01	 0.00000000E+00
					 8.85133000E-01	-8.85133000E-01	 0.00000000E+00
					 0.00000000E+00	 0.00000000E+00	 0.00000000E+00
					 8.82989000E-01	 0.00000000E+00	 0.00000000E+00
					 0.00000000E+00	-1.29872000E+00	 0.00000000E+00
					 4.42203000E-01	-8.84162000E-01	 1.21768000E-01
					 1.30188000E+00	-1.30188000E+00	 0.00000000E+00
					 0.00000000E+00	-4.41689000E-01	 0.00000000E+00
					 8.84162000E-01	-4.42203000E-01	-1.21768000E-01
					 0.00000000E+00	 0.00000000E+00	 0.00000000E+00
					 4.41689000E-01	 0.00000000E+00	 0.00000000E+00
					 1.29872000E+00	 0.00000000E+00	 0.00000000E+00
					 0.00000000E+00	-3.00334000E-02	 0.00000000E+00
					 3.01064000E-02	-3.01064000E-02	 0.00000000E+00
					 0.00000000E+00	 0.00000000E+00	 0.00000000E+00
					 3.00334000E-02	 0.00000000E+00	 0.00000000E+00
					 0.00000000E+00	-4.58725000E-01	 0.00000000E+00
					 1.50408000E-02	-3.00733000E-02	 1.24331000E-01
					 4.59843000E-01	-4.59843000E-01	 0.00000000E+00
					 0.00000000E+00	-1.50233000E-02	 0.00000000E+00
					 3.00733000E-02	-1.50408000E-02	-1.24331000E-01
					 0.00000000E+00	 0.00000000E+00	 0.00000000E+00
					 1.50233000E-02	 0.00000000E+00	 0.00000000E+00
					 4.58725000E-01	 0.00000000E+00	 0.00000000E+00
					 0.00000000E+00	 8.24079000E-01	 0.00000000E+00
					-8.26081000E-01	 8.26081000E-01	 0.00000000E+00
					 0.00000000E+00	 0.00000000E+00	 0.00000000E+00
					-8.24079000E-01	 0.00000000E+00	 0.00000000E+00
					 0.00000000E+00	 3.98948000E-01	 0.00000000E+00
					-4.12701000E-01	 8.25174000E-01	 1.22102000E-01
					-3.99921000E-01	 3.99921000E-01	 0.00000000E+00
					 0.00000000E+00	 4.12221000E-01	 0.00000000E+00
					-8.25174000E-01	 4.12701000E-01	-1.22102000E-01
					 0.00000000E+00	 0.00000000E+00	 0.00000000E+00
					-4.12221000E-01	 0.00000000E+00	 0.00000000E+00
					-3.98948000E-01	 0.00000000E+00	 0.00000000E+00
					 0.00000000E+00	 1.64643000E+00	 0.00000000E+00
					-1.65043000E+00	 1.65043000E+00	 0.00000000E+00
					 0.00000000E+00	 0.00000000E+00	 0.00000000E+00
					-1.64643000E+00	 0.00000000E+00	 0.00000000E+00
					 0.00000000E+00	 1.24124000E+00	 0.00000000E+00
					-8.24537000E-01	 1.64862000E+00	 1.15167000E-01
					-1.24427000E+00	 1.24427000E+00	 0.00000000E+00
					 0.00000000E+00	 8.23579000E-01	 0.00000000E+00
					-1.64862000E+00	 8.24537000E-01	-1.15167000E-01
					 0.00000000E+00	 0.00000000E+00	 0.00000000E+00
					-8.23579000E-01	 0.00000000E+00	 0.00000000E+00
					-1.24124000E+00	 0.00000000E+00	 0.00000000E+00
					 0.00000000E+00	 2.40533000E+00	 0.00000000E+00
					-2.41117000E+00	 2.41117000E+00	 0.00000000E+00
					 0.00000000E+00	 0.00000000E+00	 0.00000000E+00
					-2.40533000E+00	 0.00000000E+00	 0.00000000E+00
					 0.00000000E+00	 2.03570000E+00	 0.00000000E+00
					-1.20460000E+00	 2.40852000E+00	 1.03794000E-01
					-2.04067000E+00	 2.04067000E+00	 0.00000000E+00
					 0.00000000E+00	 1.20319000E+00	 0.00000000E+00
					-2.40852000E+00	 1.20460000E+00	-1.03794000E-01
					 0.00000000E+00	 0.00000000E+00	 0.00000000E+00
					-1.20319000E+00	 0.00000000E+00	 0.00000000E+00
					-2.03570000E+00	 0.00000000E+00	 0.00000000E+00
					 0.00000000E+00	 3.07152000E+00	 0.00000000E+00
					-3.07898000E+00	 3.07898000E+00	 0.00000000E+00
					 0.00000000E+00	 0.00000000E+00	 0.00000000E+00
					-3.07152000E+00	 0.00000000E+00	 0.00000000E+00
					 0.00000000E+00	 2.75170000E+00	 0.00000000E+00
					-1.53823000E+00	 3.07560000E+00	 8.84200000E-02
					-2.75841000E+00	 2.75841000E+00	 0.00000000E+00
					 0.00000000E+00	 1.53644000E+00	 0.00000000E+00
					-3.07560000E+00	 1.53823000E+00	-8.84200000E-02
					 0.00000000E+00	 0.00000000E+00	 0.00000000E+00
					-1.53644000E+00	 0.00000000E+00	 0.00000000E+00
					-2.75170000E+00	 0.00000000E+00	 0.00000000E+00
					 0.00000000E+00	 3.61934000E+00	 0.00000000E+00
					-3.62813000E+00	 3.62813000E+00	 0.00000000E+00
					 0.00000000E+00	 0.00000000E+00	 0.00000000E+00
					-3.61934000E+00	 0.00000000E+00	 0.00000000E+00
					 0.00000000E+00	 3.36165000E+00	 0.00000000E+00
					-1.81257000E+00	 3.62415000E+00	 6.96384000E-02
					-3.36985000E+00	 3.36985000E+00	 0.00000000E+00
					 0.00000000E+00	 1.81047000E+00	 0.00000000E+00
					-3.62415000E+00	 1.81257000E+00	-6.96384000E-02
					 0.00000000E+00	 0.00000000E+00	 0.00000000E+00
					-1.81047000E+00	 0.00000000E+00	 0.00000000E+00
					-3.36165000E+00	 0.00000000E+00	 0.00000000E+00
					 0.00000000E+00	 4.02766000E+00	 0.00000000E+00
					-4.03744000E+00	 4.03744000E+00	 0.00000000E+00
					 0.00000000E+00	 0.00000000E+00	 0.00000000E+00
					-4.02766000E+00	 0.00000000E+00	 0.00000000E+00
					 0.00000000E+00	 3.84204000E+00	 0.00000000E+00
					-2.01706000E+00	 4.03301000E+00	 4.81730000E-02
					-3.85141000E+00	 3.85141000E+00	 0.00000000E+00
					 0.00000000E+00	 2.01472000E+00	 0.00000000E+00
					-4.03301000E+00	 2.01706000E+00	-4.81730000E-02
					 0.00000000E+00	 0.00000000E+00	 0.00000000E+00
					-2.01472000E+00	 0.00000000E+00	 0.00000000E+00
					-3.84204000E+00	 0.00000000E+00	 0.00000000E+00
					 0.00000000E+00	 4.28076000E+00	 0.00000000E+00
					-4.29115000E+00	 4.29115000E+00	 0.00000000E+00
					 0.00000000E+00	 0.00000000E+00	 0.00000000E+00
					-4.28076000E+00	 0.00000000E+00	 0.00000000E+00
					 0.00000000E+00	 4.17435000E+00	 0.00000000E+00
					-2.14381000E+00	 4.28644000E+00	 2.48509000E-02
					-4.18453000E+00	 4.18453000E+00	 0.00000000E+00
					 0.00000000E+00	 2.14132000E+00	 0.00000000E+00
					-4.28644000E+00	 2.14381000E+00	-2.48509000E-02
					 0.00000000E+00	 0.00000000E+00	 0.00000000E+00
					-2.14132000E+00	 0.00000000E+00	 0.00000000E+00
					-4.17435000E+00	 0.00000000E+00	 0.00000000E+00
					 0.00000000E+00	 4.36887000E+00	 0.00000000E+00
					-4.37947000E+00	 4.37947000E+00	 0.00000000E+00
					 0.00000000E+00	 0.00000000E+00	 0.00000000E+00
					-4.36887000E+00	 0.00000000E+00	 0.00000000E+00
					 0.00000000E+00	 4.34578000E+00	 0.00000000E+00
					-2.18794000E+00	 4.37467000E+00	 5.71082000E-04
					-4.35638000E+00	 4.35638000E+00	 0.00000000E+00
					 0.00000000E+00	 2.18540000E+00	 0.00000000E+00
					-4.37467000E+00	 2.18794000E+00	-5.71082000E-04
					 0.00000000E+00	 0.00000000E+00	 0.00000000E+00
					-2.18540000E+00	 0.00000000E+00	 0.00000000E+00
					-4.34578000E+00	 0.00000000E+00	 0.00000000E+00
					 0.00000000E+00	 4.28860000E+00	 0.00000000E+00
					-4.29901000E+00	 4.29901000E+00	 0.00000000E+00
					 0.00000000E+00	 0.00000000E+00	 0.00000000E+00
					-4.28860000E+00	 0.00000000E+00	 0.00000000E+00
					 0.00000000E+00	 4.34972000E+00	 0.00000000E+00
					-2.14774000E+00	 4.29429000E+00	-2.37308000E-02
					-4.36033000E+00	 4.36033000E+00	 0.00000000E+00
					 0.00000000E+00	 2.14524000E+00	 0.00000000E+00
					-4.29429000E+00	 2.14774000E+00	 2.37308000E-02
					 0.00000000E+00	 0.00000000E+00	 0.00000000E+00
					-2.14524000E+00	 0.00000000E+00	 0.00000000E+00
					-4.34972000E+00	 0.00000000E+00	 0.00000000E+00
					 0.00000000E+00	 4.04304000E+00	 0.00000000E+00
					-4.05286000E+00	 4.05286000E+00	 0.00000000E+00
					 0.00000000E+00	 0.00000000E+00	 0.00000000E+00
					-4.04304000E+00	 0.00000000E+00	 0.00000000E+00
					 0.00000000E+00	 4.18602000E+00	 0.00000000E+00
					-2.02477000E+00	 4.04841000E+00	-4.71180000E-02
					-4.19622000E+00	 4.19622000E+00	 0.00000000E+00
					 0.00000000E+00	 2.02241000E+00	 0.00000000E+00
					-4.04841000E+00	 2.02477000E+00	 4.71180000E-02
					 0.00000000E+00	 0.00000000E+00	 0.00000000E+00
					-2.02241000E+00	 0.00000000E+00	 0.00000000E+00
					-4.18602000E+00	 0.00000000E+00	 0.00000000E+00
					 0.00000000E+00	 3.64166000E+00	 0.00000000E+00
					-3.65051000E+00	 3.65051000E+00	 0.00000000E+00
					 0.00000000E+00	 0.00000000E+00	 0.00000000E+00
					-3.64166000E+00	 0.00000000E+00	 0.00000000E+00
					 0.00000000E+00	 3.86098000E+00	 0.00000000E+00
					-1.82376000E+00	 3.64650000E+00	-6.86893000E-02
					-3.87040000E+00	 3.87040000E+00	 0.00000000E+00
					 0.00000000E+00	 1.82164000E+00	 0.00000000E+00
					-3.64650000E+00	 1.82376000E+00	 6.86893000E-02
					 0.00000000E+00	 0.00000000E+00	 0.00000000E+00
					-1.82164000E+00	 0.00000000E+00	 0.00000000E+00
					-3.86098000E+00	 0.00000000E+00	 0.00000000E+00
					 0.00000000E+00	 3.09993000E+00	 0.00000000E+00
					-3.10746000E+00	 3.10746000E+00	 0.00000000E+00
					 0.00000000E+00	 0.00000000E+00	 0.00000000E+00
					-3.09993000E+00	 0.00000000E+00	 0.00000000E+00
					 0.00000000E+00	 3.38714000E+00	 0.00000000E+00
					-1.55246000E+00	 3.10405000E+00	-8.76133000E-02
					-3.39540000E+00	 3.39540000E+00	 0.00000000E+00
					 0.00000000E+00	 1.55065000E+00	 0.00000000E+00
					-3.10405000E+00	 1.55246000E+00	 8.76133000E-02
					 0.00000000E+00	 0.00000000E+00	 0.00000000E+00
					-1.55065000E+00	 0.00000000E+00	 0.00000000E+00
					-3.38714000E+00	 0.00000000E+00	 0.00000000E+00
					 0.00000000E+00	 2.43873000E+00	 0.00000000E+00
					-2.44465000E+00	 2.44465000E+00	 0.00000000E+00
					 0.00000000E+00	 0.00000000E+00	 0.00000000E+00
					-2.43873000E+00	 0.00000000E+00	 0.00000000E+00
					 0.00000000E+00	 2.78276000E+00	 0.00000000E+00
					-1.22132000E+00	 2.44197000E+00	-1.03161000E-01
					-2.78955000E+00	 2.78955000E+00	 0.00000000E+00
					 0.00000000E+00	 1.21990000E+00	 0.00000000E+00
					-2.44197000E+00	 1.22132000E+00	 1.03161000E-01
					 0.00000000E+00	 0.00000000E+00	 0.00000000E+00
					-1.21990000E+00	 0.00000000E+00	 0.00000000E+00
					-2.78276000E+00	 0.00000000E+00	 0.00000000E+00
					 0.00000000E+00	 1.68354000E+00	 0.00000000E+00
					-1.68763000E+00	 1.68763000E+00	 0.00000000E+00
					 0.00000000E+00	 0.00000000E+00	 0.00000000E+00
					-1.68354000E+00	 0.00000000E+00	 0.00000000E+00
					 0.00000000E+00	 2.07113000E+00	 0.00000000E+00
					-8.43120000E-01	 1.68577000E+00	-1.14732000E-01
					-2.07618000E+00	 2.07618000E+00	 0.00000000E+00
					 0.00000000E+00	 8.42140000E-01	 0.00000000E+00
					-1.68577000E+00	 8.43120000E-01	 1.14732000E-01
					 0.00000000E+00	 0.00000000E+00	 0.00000000E+00
					-8.42140000E-01	 0.00000000E+00	 0.00000000E+00
					-2.07113000E+00	 0.00000000E+00	 0.00000000E+00
					 0.00000000E+00	 8.63458000E-01	 0.00000000E+00
					-8.65555000E-01	 8.65555000E-01	 0.00000000E+00
					 0.00000000E+00	 0.00000000E+00	 0.00000000E+00
					-8.63458000E-01	 0.00000000E+00	 0.00000000E+00
					 0.00000000E+00	 1.27967000E+00	 0.00000000E+00
					-4.32422000E-01	 8.64605000E-01	-1.21881000E-01