<?xml version="1.0"?>
<VTKFile type="UnstructuredGrid" version="0.1" byte_order="LittleEndian">
	<UnstructuredGrid>
		<Piece NumberOfPoints="1221" NumberOfCells="160">
			<Points>
				<DataArray type="Float64" NumberOfComponents="3" format="ascii">
					 1.00000000E-02	 1.00000000E-02	 0.00000000E+00
					 1.00000000E-02	 5.00000000E-03	 0.00000000E+00
					 1.00000000E-02	 5.00000000E-03	 5.00000000E-03
					 1.00000000E-02	 1.00000000E-02	 5.00000000E-03
					 5.00000000E-03	 1.00000000E-02	 0.00000000E+00
					 5.00000000E-03	 5.00000000E-03	 0.00000000E+00
					 5.00000000E-03	 5.00000000E-03	 5.00000000E-03
					 5.00000000E-03	 1.00000000E-02	 5.00000000E-03
					 1.00000000E-02	 7.50000000E-03	 0.00000000E+00
					 1.00000000E-02	 5.00000000E-03	 2.50000000E-03
					 1.00000000E-02	 7.50000000E-03	 5.00000000E-03
					 1.00000000E-02	 1.00000000E-02	 2.50000000E-03
					 7.50000000E-03	 1.00000000E-02	 0.00000000E+00
					 7.50000000E-03	 5.00000000E-03	 0.00000000E+00
					 7.50000000E-03	 5.00000000E-03	 5.00000000E-03
					 7.50000000E-03	 1.00000000E-02	 5.00000000E-03
					 5.00000000E-03	 7.50000000E-03	 0.00000000E+00
					 5.00000000E-03	 5.00000000E-03	 2.50000000E-03
					 5.00000000E-03	 7.50000000E-03	 5.00000000E-03
					 5.00000000E-03	 1.00000000E-02	 2.50000000E-03
					 1.00000000E-02	 5.00000000E-03	 1.00000000E-02
					 1.00000000E-02	 1.00000000E-02	 1.00000000E-02
					 5.00000000E-03	 5.00000000E-03	 1.00000000E-02
					 5.00000000E-03	 1.00000000E-02	 1.00000000E-02
					 1.00000000E-02	 5.00000000E-03	 7.50000000E-03
					 1.00000000E-02	 7.50000000E-03	 1.00000000E-02
					 1.00000000E-02	 1.00000000E-02	 7.50000000E-03
					 7.50000000E-03	 5.00000000E-03	 1.00000000E-02
					 7.50000000E-03	 1.00000000E-02	 1.00000000E-02
					 5.00000000E-03	 5.00000000E-03	 7.50000000E-03
					 5.00000000E-03	 7.50000000E-03	 1.00000000E-02
					 5.00000000E-03	 1.00000000E-02	 7.50000000E-03
					 1.00000000E-02	 5.00000000E-03	 1.50000000E-02
					 1.00000000E-02	 1.00000000E-02	 1.50000000E-02
					 5.00000000E-03	 5.00000000E-03	 1.50000000E-02
					 5.00000000E-03	 1.00000000E-02	 1.50000000E-02
					 1.00000000E-02	 5.00000000E-03	 1.25000000E-02
					 1.00000000E-02	 7.50000000E-03	 1.50000000E-02
					 1.00000000E-02	 1.00000000E-02	 1.25000000E-02
					 7.50000000E-03	 5.00000000E-03	 1.50000000E-02
					 7.50000000E-03	 1.00000000E-02	 1.50000000E-02
					 5.00000000E-03	 5.00000000E-03	 1.25000000E-02
					 5.00000000E-03	 7.50000000E-03	 1.50000000E-02
					 5.00000000E-03	 1.00000000E-02	 1.25000000E-02
					 1.00000000E-02	 5.00000000E-03	 2.00000000E-02
					 1.00000000E-02	 1.00000000E-02	 2.00000000E-02
					 5.00000000E-03	 5.00000000E-03	 2.00000000E-02
					 5.00000000E-03	 1.00000000E-02	 2.00000000E-02
					 1.00000000E-02	 5.00000000E-03	 1.75000000E-02
					 1.00000000E-02	 7.50000000E-03	 2.00000000E-02
					 1.00000000E-02	 1.00000000E-02	 1.75000000E-02
					 7.50000000E-03	 5.00000000E-03	 2.00000000E-02
					 7.50000000E-03	 1.00000000E-02	 2.00000000E-02
					 5.00000000E-03	 5.00000000E-03	 1.75000000E-02
					 5.00000000E-03	 7.50000000E-03	 2.00000000E-02
					 5.00000000E-03	 1.00000000E-02	 1.75000000E-02
					 1.00000000E-02	 5.00000000E-03	 2.50000000E-02
					 1.00000000E-02	 1.00000000E-02	 2.50000000E-02
					 5.00000000E-03	 5.00000000E-03	 2.50000000E-02
					 5.00000000E-03	 1.00000000E-02	 2.50000000E-02
					 1.00000000E-02	 5.00000000E-03	 2.25000000E-02
					 1.00000000E-02	 7.50000000E-03	 2.50000000E-02
					 1.00000000E-02	 1.00000000E-02	 2.25000000E-02
					 7.50000000E-03	 5.00000000E-03	 2.50000000E-02
					 7.50000000E-03	 1.00000000E-02	 2.50000000E-02
					 5.00000000E-03	 5.00000000E-03	 2.25000000E-02
					 5.00000000E-03	 7.50000000E-03	 2.50000000E-02
					 5.00000000E-03	 1.00000000E-02	 2.25000000E-02
					 1.00000000E-02	 5.00000000E-03	 3.00000000E-02
					 1.00000000E-02	 1.00000000E-02	 3.00000000E-02
					 5.00000000E-03	 5.00000000E-03	 3.00000000E-02
					 5.00000000E-03	 1.00000000E-02	 3.00000000E-02
					 1.00000000E-02	 5.00000000E-03	 2.75000000E-02
					 1.00000000E-02	 7.50000000E-03	 3.00000000E-02
					 1.00000000E-02	 1.00000000E-02	 2.75000000E-02
					 7.50000000E-03	 5.00000000E-03	 3.00000000E-02
					 7.50000000E-03	 1.00000000E-02	 3.00000000E-02
					 5.00000000E-03	 5.00000000E-03	 2.75000000E-02
					 5.00000000E-03	 7.50000000E-03	 3.00000000E-02
					 5.00000000E-03	 1.00000000E-02	 2.75000000E-02
					 1.00000000E-02	 5.00000000E-03	 3.50000000E-02
					 1.00000000E-02	 1.00000000E-02	 3.50000000E-02
					 5.00000000E-03	 5.00000000E-03	 3.50000000E-02
					 5.00000000E-03	 1.00000000E-02	 3.50000000E-02
					 1.00000000E-02	 5.00000000E-03	 3.25000000E-02
					 1.00000000E-02	 7.50000000E-03	 3.50000000E-02
					 1.00000000E-02	 1.00000000E-02	 3.25000000E-02
					 7.50000000E-03	 5.00000000E-03	 3.50000000E-02
					 7.50000000E-03	 1.00000000E-02	 3.50000000E-02
					 5.00000000E-03	 5.00000000E-03	 3.25000000E-02
					 5.00000000E-03	 7.50000000E-03	 3.50000000E-02
					 5.00000000E-03	 1.00000000E-02	 3.25000000E-02
					 1.00000000E-02	 5.00000000E-03	 4.00000000E-02
					 1.00000000E-02	 1.00000000E-02	 4.00000000E-02
					 5.00000000E-03	 5.00000000E-03	 4.00000000E-02
					 5.00000000E-03	 1.00000000E-02	 4.00000000E-02
					 1.00000000E-02	 5.00000000E-03	 3.75000000E-02
					 1.00000000E-02	 7.50000000E-03	 4.00000000E-02
					 1.00000000E-02	 1.00000000E-02	 3.75000000E-02
					 7.50000000E-03	 5.00000000E-03	 4.00000000E-02
					 7.50000000E-03	 1.00000000E-02	 4.00000000E-02
					 5.00000000E-03	 5.00000000E-03	 3.75000000E-02
					 5.00000000E-03	 7.50000000E-03	 4.00000000E-02
					 5.00000000E-03	 1.00000000E-02	 3.75000000E-02
					 1.00000000E-02	 5.00000000E-03	 4.50000000E-02
					 1.00000000E-02	 1.00000000E-02	 4.50000000E-02
					 5.00000000E-03	 5.00000000E-03	 4.50000000E-02
					 5.00000000E-03	 1.00000000E-02	 4.50000000E-02
					 1.00000000E-02	 5.00000000E-03	 4.25000000E-02
					 1.00000000E-02	 7.50000000E-03	 4.50000000E-02
					 1.00000000E-02	 1.00000000E-02	 4.25000000E-02
					 7.50000000E-03	 5.00000000E-03	 4.50000000E-02
					 7.50000000E-03	 1.00000000E-02	 4.50000000E-02
					 5.00000000E-03	 5.00000000E-03	 4.25000000E-02
					 5.00000000E-03	 7.50000000E-03	 4.50000000E-02
					 5.00000000E-03	 1.00000000E-02	 4.25000000E-02
					 1.00000000E-02	 5.00000000E-03	 5.00000000E-02
					 1.00000000E-02	 1.00000000E-02	 5.00000000E-02
					 5.00000000E-03	 5.00000000E-03	 5.00000000E-02
					 5.00000000E-03	 1.00000000E-02	 5.00000000E-02
					 1.00000000E-02	 5.00000000E-03	 4.75000000E-02
					 1.00000000E-02	 7.50000000E-03	 5.00000000E-02
					 1.00000000E-02	 1.00000000E-02	 4.75000000E-02
					 7.50000000E-03	 5.00000000E-03	 5.00000000E-02
					 7.50000000E-03	 1.00000000E-02	 5.00000000E-02
					 5.00000000E-03	 5.00000000E-03	 4.75000000E-02
					 5.00000000E-03	 7.50000000E-03	 5.00000000E-02
					 5.00000000E-03	 1.00000000E-02	 4.75000000E-02
					 1.00000000E-02	 5.00000000E-03	 5.50000000E-02
					 1.00000000E-02	 1.00000000E-02	 5.50000000E-02
					 5.00000000E-03	 5.00000000E-03	 5.50000000E-02
					 5.00000000E-03	 1.00000000E-02	 5.50000000E-02
					 1.00000000E-02	 5.00000000E-03	 5.25000000E-02
					 1.00000000E-02	 7.50000000E-03	 5.50000000E-02
					 1.00000000E-02	 1.00000000E-02	 5.25000000E-02
					 7.50000000E-03	 5.00000000E-03	 5.50000000E-02
					 7.50000000E-03	 1.00000000E-02	 5.50000000E-02
					 5.00000000E-03	 5.00000000E-03	 5.25000000E-02
					 5.00000000E-03	 7.50000000E-03	 5.50000000E-02
					 5.00000000E-03	 1.00000000E-02	 5.25000000E-02
					 1.00000000E-02	 5.00000000E-03	 6.00000000E-02
					 1.00000000E-02	 1.00000000E-02	 6.00000000E-02
					 5.00000000E-03	 5.00000000E-03	 6.00000000E-02
					 5.00000000E-03	 1.00000000E-02	 6.00000000E-02
					 1.00000000E-02	 5.00000000E-03	 5.75000000E-02
					 1.00000000E-02	 7.50000000E-03	 6.00000000E-02
					 1.00000000E-02	 1.00000000E-02	 5.75000000E-02
					 7.50000000E-03	 5.00000000E-03	 6.00000000E-02
					 7.50000000E-03	 1.00000000E-02	 6.00000000E-02
					 5.00000000E-03	 5.00000000E-03	 5.75000000E-02
					 5.00000000E-03	 7.50000000E-03	 6.00000000E-02
					 5.00000000E-03	 1.00000000E-02	 5.75000000E-02
					 1.00000000E-02	 5.00000000E-03	 6.50000000E-02
					 1.00000000E-02	 1.00000000E-02	 6.50000000E-02
					 5.00000000E-03	 5.00000000E-03	 6.50000000E-02
					 5.00000000E-03	 1.00000000E-02	 6.50000000E-02
					 1.00000000E-02	 5.00000000E-03	 6.25000000E-02
					 1.00000000E-02	 7.50000000E-03	 6.50000000E-02
					 1.00000000E-02	 1.00000000E-02	 6.25000000E-02
					 7.50000000E-03	 5.00000000E-03	 6.50000000E-02
					 7.50000000E-03	 1.00000000E-02	 6.50000000E-02
					 5.00000000E-03	 5.00000000E-03	 6.25000000E-02
					 5.00000000E-03	 7.50000000E-03	 6.50000000E-02
					 5.00000000E-03	 1.00000000E-02	 6.25000000E-02
					 1.00000000E-02	 5.00000000E-03	 7.00000000E-02
					 1.00000000E-02	 1.00000000E-02	 7.00000000E-02
					 5.00000000E-03	 5.00000000E-03	 7.00000000E-02
					 5.00000000E-03	 1.00000000E-02	 7.00000000E-02
					 1.00000000E-02	 5.00000000E-03	 6.75000000E-02
					 1.00000000E-02	 7.50000000E-03	 7.00000000E-02
					 1.00000000E-02	 1.00000000E-02	 6.75000000E-02
					 7.50000000E-03	 5.00000000E-03	 7.00000000E-02
					 7.50000000E-03	 1.00000000E-02	 7.00000000E-02
					 5.00000000E-03	 5.00000000E-03	 6.75000000E-02
					 5.00000000E-03	 7.50000000E-03	 7.00000000E-02
					 5.00000000E-03	 1.00000000E-02	 6.75000000E-02
					 1.00000000E-02	 5.00000000E-03	 7.50000000E-02
					 1.00000000E-02	 1.00000000E-02	 7.50000000E-02
					 5.00000000E-03	 5.00000000E-03	 7.50000000E-02
					 5.00000000E-03	 1.00000000E-02	 7.50000000E-02
					 1.00000000E-02	 5.00000000E-03	 7.25000000E-02
					 1.00000000E-02	 7.50000000E-03	 7.50000000E-02
					 1.00000000E-02	 1.00000000E-02	 7.25000000E-02
[...]
			<PointData>
				<DataArray type="Float32" Name="U" NumberOfComponents="3" ComponentName0="D1" ComponentName1="D2" ComponentName2="D3" format="ascii">
					 0.00000000E+00	 0.00000000E+00	 0.00000000E+00
					 0.00000000E+00	 0.00000000E+00	 0.00000000E+00
					 9.87136000E-02	-3.39698000E-01	-9.82872000E-02
					-5.84344000E-03	-3.56981000E-01	 3.19678000E-01
					 0.00000000E+00	 0.00000000E+00	 0.00000000E+00
					 0.00000000E+00	 0.00000000E+00	 0.00000000E+00
					 8.73858000E-02	-3.76665000E-01	 0.00000000E+00
					 7.88094000E-02	-4.25493000E-01	 4.23655000E-01
					 0.00000000E+00	 0.00000000E+00	 0.00000000E+00
					 4.29622000E-02	-9.20646000E-02	-4.94059000E-02
					 5.03831000E-02	-3.31046000E-01	 8.16947000E-02
					-6.02702000E-02	-1.26451000E-01	 1.69339000E-01
					 0.00000000E+00	 0.00000000E+00	 0.00000000E+00
					 0.00000000E+00	 0.00000000E+00	 0.00000000E+00
					 8.83108000E-02	-3.72167000E-01	-4.22829000E-02
					 3.57425000E-02	-4.06013000E-01	 3.78751000E-01
					 0.00000000E+00	 0.00000000E+00	 0.00000000E+00
					 2.90831000E-02	-1.25359000E-01	 0.00000000E+00
					 8.63423000E-02	-3.80652000E-01	 1.82255000E-01
					 2.13589000E-02	-1.85183000E-01	 2.12958000E-01
					 2.57994000E-01	-1.06692000E+00	-1.53472000E-01
					 2.08046000E-01	-1.07950000E+00	 5.00889000E-01
					 2.52615000E-01	-1.08886000E+00	 0.00000000E+00
					 2.47524000E-01	-1.11205000E+00	 6.61519000E-01
					 1.72307000E-01	-6.70691000E-01	-1.31213000E-01
					 2.33610000E-01	-1.06899000E+00	 1.43669000E-01
					 9.22093000E-02	-6.89821000E-01	 4.27505000E-01
					 2.54474000E-01	-1.08300000E+00	-7.13085000E-02
					 2.25924000E-01	-1.10070000E+00	 5.94401000E-01
					 1.63064000E-01	-7.02865000E-01	 0.00000000E+00
					 2.51253000E-01	-1.09688000E+00	 3.07366000E-01
					 1.55599000E-01	-7.42706000E-01	 5.65576000E-01
					 4.49804000E-01	-1.94266000E+00	-1.68016000E-01
					 4.56288000E-01	-1.94301000E+00	 5.47968000E-01
					 4.50227000E-01	-1.94065000E+00	 0.00000000E+00
					 4.50695000E-01	-1.93882000E+00	 7.24209000E-01
					 3.52567000E-01	-1.49922000E+00	-1.65672000E-01
					 4.52540000E-01	-1.94334000E+00	 1.64264000E-01
					 3.31325000E-01	-1.50609000E+00	 5.39885000E-01
					 4.50132000E-01	-1.94121000E+00	-7.93696000E-02
					 4.53678000E-01	-1.94002000E+00	 6.47152000E-01
					 3.50182000E-01	-1.50941000E+00	 0.00000000E+00
					 4.50358000E-01	-1.94024000E+00	 3.42112000E-01
					 3.47816000E-01	-1.51970000E+00	 7.14110000E-01
					 6.32320000E-01	-2.77247000E+00	-1.45475000E-01
					 6.87419000E-01	-2.76167000E+00	 4.75084000E-01
					 6.37774000E-01	-2.74905000E+00	 0.00000000E+00
					 6.43210000E-01	-2.72553000E+00	 6.27051000E-01
					 5.44544000E-01	-2.37351000E+00	-1.60896000E-01
					 6.57960000E-01	-2.77350000E+00	 1.44009000E-01
					 5.76519000E-01	-2.36818000E+00	 5.25217000E-01
					 6.36583000E-01	-2.75466000E+00	-6.89747000E-02
					 6.66726000E-01	-2.73709000E+00	 5.60001000E-01
					 5.47564000E-01	-2.36021000E+00	 0.00000000E+00
					 6.39078000E-01	-2.74391000E+00	 2.97307000E-01
					 5.50652000E-01	-2.34719000E+00	 6.93520000E-01
					 7.70886000E-01	-3.40149000E+00	-9.31286000E-02
					 8.62157000E-01	-3.38266000E+00	 3.03901000E-01
					 7.80015000E-01	-3.36216000E+00	 0.00000000E+00
					 7.89140000E-01	-3.32281000E+00	 4.01419000E-01
					 7.09037000E-01	-3.12009000E+00	-1.22383000E-01
					 8.13542000E-01	-3.40248000E+00	 9.14207000E-02
					 7.83711000E-01	-3.10527000E+00	 3.99602000E-01
					 7.77911000E-01	-3.37177000E+00	-4.40411000E-02
					 8.28001000E-01	-3.34209000E+00	 3.58670000E-01
					 7.16403000E-01	-3.08796000E+00	 0.00000000E+00
					 7.82246000E-01	-3.35309000E+00	 1.89834000E-01
					 7.23856000E-01	-3.05621000E+00	 5.27515000E-01
					 8.39010000E-01	-3.71358000E+00	-2.08148000E-02
					 9.51148000E-01	-3.68999000E+00	 6.69724000E-02
					 8.50280000E-01	-3.66502000E+00	 0.00000000E+00
					 8.61545000E-01	-3.61645000E+00	 8.97196000E-02
					 8.15008000E-01	-3.60216000E+00	-5.87525000E-02
					 8.91510000E-01	-3.71457000E+00	 1.69029000E-02
					 9.18451000E-01	-3.58093000E+00	 1.91296000E-01
					 8.47663000E-01	-3.67691000E+00	-9.28817000E-03
					 9.09243000E-01	-3.64020000E+00	 8.09872000E-02
					 8.25300000E-01	-3.55735000E+00	 0.00000000E+00
					 8.53037000E-01	-3.65374000E+00	 4.00355000E-02
					 8.35696000E-01	-3.51299000E+00	 2.53245000E-01
					 8.21651000E-01	-3.64255000E+00	 6.02397000E-02
					 9.37962000E-01	-3.61790000E+00	-1.98812000E-01
					 8.33360000E-01	-3.59209000E+00	 0.00000000E+00
					 8.45067000E-01	-3.54162000E+00	-2.59655000E-01
					 8.41518000E-01	-3.72759000E+00	 1.93564000E-02
					 8.76140000E-01	-3.64347000E+00	-6.73975000E-02
					 9.57541000E-01	-3.70345000E+00	-6.47330000E-02
					 8.30628000E-01	-3.60446000E+00	 2.97842000E-02
					 8.94520000E-01	-3.56629000E+00	-2.30075000E-01
					 8.53101000E-01	-3.67718000E+00	 0.00000000E+00
					 8.36230000E-01	-3.58031000E+00	-1.28381000E-01
					 8.64795000E-01	-3.62725000E+00	-8.34333000E-02
					 7.16075000E-01	-3.17695000E+00	 1.38362000E-01
					 8.20165000E-01	-3.15481000E+00	-4.55076000E-01
					 7.26563000E-01	-3.13176000E+00	 0.00000000E+00
					 7.37048000E-01	-3.08655000E+00	-5.96393000E-01
					 7.79606000E-01	-3.45727000E+00	 1.00343000E-01
					 7.64853000E-01	-3.17773000E+00	-1.48996000E-01
					 8.91477000E-01	-3.43386000E+00	-3.30335000E-01
					 7.24111000E-01	-3.14284000E+00	 6.74985000E-02
					 7.81298000E-01	-3.10863000E+00	-5.29807000E-01
					 7.90792000E-01	-3.40861000E+00	 0.00000000E+00
					 7.29135000E-01	-3.12119000E+00	-2.90944000E-01
					 8.02081000E-01	-3.36039000E+00	-4.32514000E-01
					 5.31735000E-01	-2.35935000E+00	 2.02729000E-01
					 6.09301000E-01	-2.34285000E+00	-6.66245000E-01
					 5.39551000E-01	-2.32567000E+00	 0.00000000E+00
					 5.47366000E-01	-2.29198000E+00	-8.73839000E-01
					 6.32745000E-01	-2.80723000E+00	 1.72807000E-01
					 5.68086000E-01	-2.35993000E+00	-2.16331000E-01
					 7.24929000E-01	-2.78790000E+00	-5.68046000E-01
					 5.37723000E-01	-2.33393000E+00	 9.85884000E-02
					 5.80339000E-01	-2.30843000E+00	-7.76738000E-01
					 6.41967000E-01	-2.76712000E+00	 0.00000000E+00
					 5.41468000E-01	-2.31779000E+00	-4.24953000E-01
					 6.51274000E-01	-2.72737000E+00	-7.44862000E-01
					 2.88719000E-01	-1.27955000E+00	 2.44548000E-01
					 3.29139000E-01	-1.27100000E+00	-8.03424000E-01
					 2.92787000E-01	-1.26202000E+00	 0.00000000E+00
					 2.96854000E-01	-1.24449000E+00	-1.05409000E+00
					 4.15976000E-01	-1.84488000E+00	 2.26805000E-01
					 3.07653000E-01	-1.27988000E+00	-2.60024000E-01
					 4.75861000E-01	-1.83234000E+00	-7.45186000E-01
					 2.91839000E-01	-1.26632000E+00	 1.18779000E-01
					 3.14041000E-01	-1.25306000E+00	-9.37177000E-01
					 4.21965000E-01	-1.81882000E+00	 0.00000000E+00
					 2.93784000E-01	-1.25793000E+00	-5.11980000E-01
					 4.28008000E-01	-1.79301000E+00	-9.77614000E-01
					 1.50169000E-02	-6.24441000E-02	 2.58040000E-01
					 1.25332000E-02	-6.30982000E-02	-8.47625000E-01
					 1.47523000E-02	-6.35881000E-02	 0.00000000E+00
					 1.44869000E-02	-6.47285000E-02	-1.11225000E+00
					 1.53747000E-01	-6.79334000E-01	 2.54951000E-01
					 1.38283000E-02	-6.24971000E-02	-2.73907000E-01
					 1.73043000E-01	-6.75380000E-01	-8.37484000E-01
					 1.48220000E-02	-6.32973000E-02	 1.25259000E-01
					 1.34444000E-02	-6.41839000E-02	-9.88991000E-01
					 1.55666000E-01	-6.70978000E-01	 0.00000000E+00
					 1.46849000E-02	-6.38885000E-02	-5.39913000E-01
					 1.57605000E-01	-6.62707000E-01	-1.09893000E+00
					-2.57108000E-01	 1.14812000E+00	 2.41083000E-01
					-3.02769000E-01	 1.13818000E+00	-7.91867000E-01
					-2.61734000E-01	 1.12817000E+00	 0.00000000E+00
					-2.66361000E-01	 1.10823000E+00	-1.03916000E+00
					-1.23321000E-01	 5.52833000E-01	 2.53242000E-01
					-2.78550000E-01	 1.14833000E+00	-2.55693000E-01
					-1.47662000E-01	 5.47540000E-01	-8.31784000E-01
					-2.60639000E-01	 1.13308000E+00	 1.16994000E-01
					-2.85748000E-01	 1.11795000E+00	-9.24051000E-01
					-1.25780000E-01	 5.42157000E-01	 0.00000000E+00
					-2.62874000E-01	 1.12345000E+00	-5.04289000E-01
					-1.28256000E-01	 5.31559000E-01	-1.09157000E+00
					-4.95220000E-01	 2.20756000E+00	 1.95420000E-01
					-5.78874000E-01	 2.18945000E+00	-6.41862000E-01
					-5.03685000E-01	 2.17107000E+00	 0.00000000E+00
					-5.12150000E-01	 2.13458000E+00	-8.42332000E-01
					-3.82353000E-01	 1.70510000E+00	 2.21490000E-01
					-5.34484000E-01	 2.20801000E+00	-2.07197000E-01
					-4.47837000E-01	 1.69108000E+00	-7.27458000E-01
					-5.01686000E-01	 2.18004000E+00	 9.48241000E-02
					-5.47678000E-01	 2.15238000E+00	-7.49043000E-01
					-3.88941000E-01	 1.67648000E+00	 0.00000000E+00
					-5.05767000E-01	 2.16245000E+00	-4.08727000E-01
					-3.95582000E-01	 1.64808000E+00	-9.54705000E-01
					-6.70788000E-01	 2.98874000E+00	 1.26407000E-01
					-7.82476000E-01	 2.96460000E+00	-4.15197000E-01
					-6.82085000E-01	 2.94004000E+00	 0.00000000E+00
					-6.93383000E-01	 2.89135000E+00	-5.44861000E-01
					-5.92376000E-01	 2.63946000E+00	 1.63303000E-01
					-7.23203000E-01	 2.98936000E+00	-1.34060000E-01
					-6.91325000E-01	 2.61833000E+00	-5.36346000E-01
					-6.79420000E-01	 2.95202000E+00	 6.13423000E-02
					-7.40821000E-01	 2.91510000E+00	-4.84509000E-01
					-6.02322000E-01	 2.59623000E+00	 0.00000000E+00
					-6.84864000E-01	 2.92856000E+00	-2.64408000E-01
					-6.12350000E-01	 2.55336000E+00	-7.03898000E-01
					-7.62763000E-01	 3.39785000E+00	 4.23327000E-02
					-8.89005000E-01	 3.37059000E+00	-1.39083000E-01
					-7.75530000E-01	 3.34282000E+00	 0.00000000E+00
					-7.88297000E-01	 3.28779000E+00	-1.82470000E-01
					-7.28200000E-01	 3.24367000E+00	 8.56105000E-02
					-8.22003000E-01	 3.39857000E+00	-4.50331000E-02
					-8.48737000E-01	 3.21796000E+00	-2.81198000E-01
					-7.72519000E-01	 3.35635000E+00	 2.05647000E-02
					-8.41919000E-01	 3.31463000E+00	-1.62226000E-01
					-7.40313000E-01	 3.19102000E+00	 0.00000000E+00
					-7.78669000E-01	 3.32985000E+00	-8.86414000E-02
					-7.52526000E-01	 3.13881000E+00	-3.69013000E-01
					-7.60208000E-01	 3.38616000E+00	-4.66191000E-02
					-8.85679000E-01	 3.35907000E+00	 1.53040000E-01
					-7.72896000E-01	 3.33147000E+00	 0.00000000E+00
					-7.85584000E-01	 3.27678000E+00	 2.00946000E-01
					-7.73577000E-01	 3.44532000E+00	-2.20892000E-03
					-8.19085000E-01	 3.38687000E+00	 4.91243000E-02
					-9.01102000E-01	 3.41814000E+00	 7.19429000E-03
					-7.69905000E-01	 3.34492000E+00	-2.25733000E-02
					-8.38880000E-01	 3.30346000E+00	 1.78762000E-01
					-7.86390000E-01	 3.38963000E+00	 0.00000000E+00
					-7.76016000E-01	 3.31858000E+00	 9.72994000E-02
					-7.99310000E-01	 3.33440000E+00	 9.52125000E-03
					-6.63681000E-01	 2.95610000E+00	-1.29633000E-01
					-7.73109000E-01	 2.93248000E+00	 4.25657000E-01
					-6.74746000E-01	 2.90841000E+00	 0.00000000E+00
					-6.85812000E-01	 2.86071000E+00	 5.58765000E-01
					-7.23230000E-01	 3.22090000E+00	-8.94934000E-02
					-7.15030000E-01	 2.95673000E+00	 1.36982000E-01
					-8.42240000E-01	 3.19554000E+00	 2.93824000E-01
					-6.72138000E-01	 2.92014000E+00	-6.28292000E-02
					-7.32294000E-01	 2.88398000E+00	 4.96989000E-01
					-7.35187000E-01	 3.16893000E+00	 0.00000000E+00
					-6.77467000E-01	 2.89716000E+00	 2.70817000E-01
					-7.47244000E-01	 3.11739000E+00	 3.85750000E-01
					-4.85190000E-01	 2.16114000E+00	-1.96597000E-01
					-5.65245000E-01	 2.14385000E+00	 6.45568000E-01
					-4.93285000E-01	 2.12624000E+00	 0.00000000E+00
					-5.01381000E-01	 2.09135000E+00	 8.47405000E-01
					-5.83539000E-01	 2.59877000E+00	-1.65619000E-01
					-5.22756000E-01	 2.16159000E+00	 2.07851000E-01
					-6.79540000E-01	 2.57831000E+00	 5.43806000E-01
					-4.91377000E-01	 2.13482000E+00	-9.53020000E-02
					-5.35386000E-01	 2.10837000E+00	 7.53692000E-01
					-5.93184000E-01	 2.55684000E+00	 0.00000000E+00
					-4.95276000E-01	 2.11802000E+00	 4.10787000E-01
					-6.02910000E-01	 2.51527000E+00	 7.13878000E-01
					-2.46739000E-01	 1.09923000E+00	-2.39353000E-01
					-2.87675000E-01	 1.09039000E+00	 7.85983000E-01
					-2.50879000E-01	 1.08138000E+00	 0.00000000E+00
					-2.55020000E-01	 1.06354000E+00	 1.03170000E+00
					-3.71776000E-01	 1.65581000E+00	-2.21310000E-01
					-2.65949000E-01	 1.09946000E+00	 2.53111000E-01
					-4.33074000E-01	 1.64275000E+00	 7.26687000E-01
					-2.49903000E-01	 1.08577000E+00	-1.16037000E-01
					-2.72407000E-01	 1.07224000E+00	 9.17595000E-01
					-3.77935000E-01	 1.62904000E+00	 0.00000000E+00
					-2.51897000E-01	 1.07717000E+00	 5.00164000E-01
					-3.84146000E-01	 1.60249000E+00	 9.53928000E-01
					 2.23585000E-02	-9.90989000E-02	-2.52704000E-01
					 2.55001000E-02	-9.84337000E-02	 8.29835000E-01
					 2.26747000E-02	-9.77363000E-02	 0.00000000E+00
					 2.29908000E-02	-9.63733000E-02	 1.08925000E+00
					-1.14003000E-01	 5.08053000E-01	-2.49786000E-01
					 2.38301000E-02	-9.91242000E-02	 2.67266000E-01
					-1.33146000E-01	 5.03964000E-01	 8.20203000E-01
					 2.26009000E-02	-9.80703000E-02	-1.22516000E-01
					 2.43266000E-02	-9.70394000E-02	 9.68770000E-01
					-1.15927000E-01	 4.99689000E-01	 0.00000000E+00
					 2.27522000E-02	-9.74184000E-02	 5.28088000E-01
					-1.17868000E-01	 4.91393000E-01	 1.07667000E+00
					 2.89072000E-01	-1.28676000E+00	-2.35054000E-01
					 3.35845000E-01	-1.27668000E+00	 7.71885000E-01
					 2.93799000E-01	-1.26638000E+00	 0.00000000E+00
					 2.98526000E-01	-1.24601000E+00	 1.01317000E+00
					 1.58120000E-01	-7.03540000E-01	-2.47599000E-01
					 3.11016000E-01	-1.28704000E+00	 2.48634000E-01
					 1.83418000E-01	-6.98169000E-01	 8.13029000E-01
					 2.92686000E-01	-1.27139000E+00	-1.13964000E-01
					 3.18396000E-01	-1.25595000E+00	 9.01098000E-01
					 1.60659000E-01	-6.92502000E-01	 0.00000000E+00
					 2.94961000E-01	-1.26159000E+00	 4.91227000E-01
					 1.63220000E-01	-6.81556000E-01	 1.06724000E+00
					 5.20700000E-01	-2.31814000E+00	-1.88610000E-01
					 6.05304000E-01	-2.29990000E+00	 6.19382000E-01
					 5.29252000E-01	-2.28127000E+00	 0.00000000E+00
					 5.37804000E-01	-2.24441000E+00	 8.12981000E-01
					 4.11208000E-01	-1.83034000E+00	-2.15057000E-01
					 5.60394000E-01	-2.31863000E+00	 1.99552000E-01
					 4.77783000E-01	-1.81618000E+00	 7.06184000E-01
					 5.27238000E-01	-2.29034000E+00	-9.14532000E-02
					 5.73744000E-01	-2.26240000E+00	 7.23042000E-01
					 4.17893000E-01	-1.80128000E+00	 0.00000000E+00
					 5.31354000E-01	-2.27259000E+00	 3.94197000E-01
					 4.24635000E-01	-1.77246000E+00	 9.26977000E-01
					 6.88889000E-01	-3.06695000E+00	-1.19117000E-01
					 8.00870000E-01	-3.04281000E+00	 3.91190000E-01
					 7.00208000E-01	-3.01816000E+00	 0.00000000E+00
					 7.11527000E-01	-2.96937000E+00	 5.13437000E-01
					 6.14253000E-01	-2.73426000E+00	-1.56198000E-01
					 7.41428000E-01	-3.06761000E+00	 1.26100000E-01
					 7.13869000E-01	-2.71307000E+00	 5.12922000E-01
					 6.97542000E-01	-3.03015000E+00	-5.77687000E-02
					 7.59097000E-01	-2.99317000E+00	 4.56619000E-01
					 6.24257000E-01	-2.69078000E+00	 0.00000000E+00
					 7.02990000E-01	-3.00667000E+00	 2.49005000E-01
					 6.34345000E-01	-2.64766000E+00	 6.73270000E-01
					 7.73110000E-01	-3.44177000E+00	-3.51544000E-02
					 8.98640000E-01	-3.41472000E+00	 1.15489000E-01
					 7.85798000E-01	-3.38708000E+00	 0.00000000E+00
					 7.98487000E-01	-3.33239000E+00	 1.51529000E-01
					 7.42428000E-01	-3.30477000E+00	-7.82907000E-02
					 8.32005000E-01	-3.44252000E+00	 3.73581000E-02
					 8.62784000E-01	-3.27917000E+00	 2.57118000E-01
					 7.82810000E-01	-3.40053000E+00	-1.70715000E-02
					 8.51813000E-01	-3.35907000E+00	 1.34727000E-01
					 7.54514000E-01	-3.25223000E+00	 0.00000000E+00
					 7.88917000E-01	-3.37420000E+00	 7.35843000E-02
					 7.66702000E-01	-3.20014000E+00	 3.37462000E-01
					 7.63196000E-01	-3.39732000E+00	 5.29053000E-02
					 8.86758000E-01	-3.37070000E+00	-1.73662000E-01
					 7.75684000E-01	-3.34349000E+00	 0.00000000E+00
					 7.88173000E-01	-3.28966000E+00	-2.28041000E-01
					 7.80141000E-01	-3.47243000E+00	 9.04331000E-03
					 8.21166000E-01	-3.39805000E+00	-5.56981000E-02
					 9.06368000E-01	-3.44559000E+00	-2.96371000E-02
					 7.72744000E-01	-3.35672000E+00	 2.56093000E-02
					 8.40663000E-01	-3.31592000E+00	-2.02878000E-01
					 7.92816000E-01	-3.41733000E+00	 0.00000000E+00
					 7.78754000E-01	-3.33081000E+00	-1.10385000E-01
					 8.05598000E-01	-3.36270000E+00	-3.89800000E-02
					 6.60602000E-01	-2.94002000E+00	 1.34165000E-01
					 7.66878000E-01	-2.91714000E+00	-4.40477000E-01
					 6.71342000E-01	-2.89373000E+00	 0.00000000E+00
					 6.82081000E-01	-2.84744000E+00	-5.78302000E-01
					 7.22965000E-01	-3.21749000E+00	 9.50090000E-02
					 7.10459000E-01	-2.94066000E+00	-1.41535000E-01
					 8.39441000E-01	-3.19273000E+00	-3.11893000E-01
					 6.68814000E-01	-2.90511000E+00	 6.49890000E-02
					 7.27230000E-01	-2.87003000E+00	-5.14422000E-01
					 7.34659000E-01	-3.16665000E+00	 0.00000000E+00
					 6.73981000E-01	-2.88284000E+00	-2.80127000E-01
					 7.46452000E-01	-3.11625000E+00	-4.09524000E-01
					 4.78255000E-01	-2.12740000E+00	 1.98529000E-01
					 5.53991000E-01	-2.11113000E+00	-6.51797000E-01
					 4.85905000E-01	-2.09443000E+00	 0.00000000E+00
					 4.93554000E-01	-2.06146000E+00	-8.55735000E-01
					 5.78200000E-01	-2.57242000E+00	 1.68951000E-01
					 5.13779000E-01	-2.12788000E+00	-2.09464000E-01
					 6.70451000E-01	-2.55284000E+00	-5.54658000E-01
					 4.84106000E-01	-2.10253000E+00	 9.61712000E-02
					 5.25732000E-01	-2.07755000E+00	-7.61202000E-01
					 5.87459000E-01	-2.53217000E+00	 0.00000000E+00
					 4.87784000E-01	-2.08668000E+00	-4.14534000E-01
					 5.96797000E-01	-2.49226000E+00	-7.28241000E-01
					 2.39002000E-01	-1.06114000E+00	 2.37927000E-01
					 2.74609000E-01	-1.05354000E+00	-7.81117000E-01
					 2.42593000E-01	-1.04566000E+00	 0.00000000E+00
					 2.46182000E-01	-1.03019000E+00	-1.02555000E+00
					 3.64010000E-01	-1.61803000E+00	 2.21649000E-01
					 2.55693000E-01	-1.06139000E+00	-2.50933000E-01
					 4.20464000E-01	-1.60609000E+00	-7.27653000E-01
					 2.41752000E-01	-1.04946000E+00	 1.15241000E-01
					 2.61317000E-01	-1.03775000E+00	-9.12282000E-01
					 3.69671000E-01	-1.59342000E+00	 0.00000000E+00
					 2.43474000E-01	-1.04204000E+00	-4.96730000E-01
					 3.75381000E-01	-1.56902000E+00	-9.55390000E-01
					-2.71377000E-02	 1.25197000E-01	 2.47284000E-01
					-3.64385000E-02	 1.23075000E-01	-8.11770000E-01
					-2.80912000E-02	 1.21084000E-01	 0.00000000E+00
					-2.90456000E-02	 1.16973000E-01	-1.06588000E+00
					 1.07236000E-01	-4.73757000E-01	 2.46434000E-01
					-3.15245000E-02	 1.25185000E-01	-2.60554000E-01
					 1.20618000E-01	-4.71017000E-01	-8.08974000E-01
					-2.78593000E-02	 1.22104000E-01	 1.19734000E-01
					-3.29841000E-02	 1.18967000E-01	-9.48218000E-01
					 1.08567000E-01	-4.67963000E-01	 0.00000000E+00
					-2.83280000E-02	 1.20084000E-01	-5.16098000E-01
					 1.09911000E-01	-4.62228000E-01	-1.06222000E+00
					-2.86587000E-01	 1.28221000E+00	 2.25121000E-01
					-3.40222000E-01	 1.27048000E+00	-7.38888000E-01
					-2.92028000E-01	 1.25875000E+00	 0.00000000E+00
					-2.97470000E-01	 1.23530000E+00	-9.70353000E-01
					-1.59834000E-01	 7.16760000E-01	 2.39982000E-01
					-3.11785000E-01	 1.28243000E+00	-2.36734000E-01
					-1.91651000E-01	 7.09836000E-01	-7.87701000E-01
					-2.90736000E-01	 1.26453000E+00	 1.08929000E-01
					-3.20237000E-01	 1.24672000E+00	-8.63342000E-01
					-1.63049000E-01	 7.02802000E-01	 0.00000000E+00
					-2.93369000E-01	 1.25318000E+00	-4.69525000E-01
					-1.66287000E-01	 6.88946000E-01	-1.03441000E+00
					-5.06228000E-01	 2.26259000E+00	 1.73696000E-01
					-5.98404000E-01	 2.24249000E+00	-5.69877000E-01
					-5.15572000E-01	 2.22231000E+00	 0.00000000E+00
					-5.24918000E-01	 2.18203000E+00	-7.48695000E-01
					-4.03344000E-01	 1.80292000E+00	 2.02694000E-01
					-5.49522000E-01	 2.26300000E+00	-1.81820000E-01