<?xml version="1.0"?>
<VTKFile type="UnstructuredGrid" version="0.1" byte_order="LittleEndian">
	<UnstructuredGrid>
		<Piece NumberOfPoints="1221" NumberOfCells="160">
			<Points>
				<DataArray type="Float64" NumberOfComponents="3" format="ascii">
					 1.00000000E-02	 1.00000000E-02	 0.00000000E+00
					 1.00000000E-02	 5.00000000E-03	 0.00000000E+00
					 1.00000000E-02	 5.00000000E-03	 5.00000000E-03
					 1.00000000E-02	 1.00000000E-02	 5.00000000E-03
					 5.00000000E-03	 1.00000000E-02	 0.00000000E+00
					 5.00000000E-03	 5.00000000E-03	 0.00000000E+00
					 5.00000000E-03	 5.00000000E-03	 5.00000000E-03
					 5.00000000E-03	 1.00000000E-02	 5.00000000E-03
					 1.00000000E-02	 7.50000000E-03	 0.00000000E+00
					 1.00000000E-02	 5.00000000E-03	 2.50000000E-03
					 1.00000000E-02	 7.50000000E-03	 5.00000000E-03
					 1.00000000E-02	 1.00000000E-02	 2.50000000E-03
					 7.50000000E-03	 1.00000000E-02	 0.00000000E+00
					 7.50000000E-03	 5.00000000E-03	 0.00000000E+00
					 7.50000000E-03	 5.00000000E-03	 5.00000000E-03
					 7.50000000E-03	 1.00000000E-02	 5.00000000E-03
					 5.00000000E-03	 7.50000000E-03	 0.00000000E+00
					 5.00000000E-03	 5.00000000E-03	 2.50000000E-03
					 5.00000000E-03	 7.50000000E-03	 5.00000000E-03
					 5.00000000E-03	 1.00000000E-02	 2.50000000E-03
					 1.00000000E-02	 5.00000000E-03	 1.00000000E-02
					 1.00000000E-02	 1.00000000E-02	 1.00000000E-02
					 5.00000000E-03	 5.00000000E-03	 1.00000000E-02
					 5.00000000E-03	 1.00000000E-02	 1.00000000E-02
					 1.00000000E-02	 5.00000000E-03	 7.50000000E-03
					 1.00000000E-02	 7.50000000E-03	 1.00000000E-02
					 1.00000000E-02	 1.00000000E-02	 7.50000000E-03
					 7.50000000E-03	 5.00000000E-03	 1.00000000E-02
					 7.50000000E-03	 1.00000000E-02	 1.00000000E-02
					 5.00000000E-03	 5.00000000E-03	 7.50000000E-03
					 5.00000000E-03	 7.50000000E-03	 1.00000000E-02
					 5.00000000E-03	 1.00000000E-02	 7.50000000E-03
					 1.00000000E-02	 5.00000000E-03	 1.50000000E-02
					 1.00000000E-02	 1.00000000E-02	 1.50000000E-02
					 5.00000000E-03	 5.00000000E-03	 1.50000000E-02
					 5.00000000E-03	 1.00000000E-02	 1.50000000E-02
					 1.00000000E-02	 5.00000000E-03	 1.25000000E-02
					 1.00000000E-02	 7.50000000E-03	 1.50000000E-02
					 1.00000000E-02	 1.00000000E-02	 1.25000000E-02
					 7.50000000E-03	 5.00000000E-03	 1.50000000E-02
					 7.50000000E-03	 1.00000000E-02	 1.50000000E-02
					 5.00000000E-03	 5.00000000E-03	 1.25000000E-02
					 5.00000000E-03	 7.50000000E-03	 1.50000000E-02
					 5.00000000E-03	 1.00000000E-02	 1.25000000E-02
					 1.00000000E-02	 5.00000000E-03	 2.00000000E-02
					 1.00000000E-02	 1.00000000E-02	 2.00000000E-02
					 5.00000000E-03	 5.00000000E-03	 2.00000000E-02
					 5.00000000E-03	 1.00000000E-02	 2.00000000E-02
					 1.00000000E-02	 5.00000000E-03	 1.75000000E-02
					 1.00000000E-02	 7.50000000E-03	 2.00000000E-02
					 1.00000000E-02	 1.00000000E-02	 1.75000000E-02
					 7.50000000E-03	 5.00000000E-03	 2.00000000E-02
					 7.50000000E-03	 1.00000000E-02	 2.00000000E-02
					 5.00000000E-03	 5.00000000E-03	 1.75000000E-02
					 5.00000000E-03	 7.50000000E-03	 2.00000000E-02
					 5.00000000E-03	 1.00000000E-02	 1.75000000E-02
					 1.00000000E-02	 5.00000000E-03	 2.50000000E-02
					 1.00000000E-02	 1.00000000E-02	 2.50000000E-02
					 5.00000000E-03	 5.00000000E-03	 2.50000000E-02
					 5.00000000E-03	 1.00000000E-02	 2.50000000E-02
					 1.00000000E-02	 5.00000000E-03	 2.25000000E-02
					 1.00000000E-02	 7.50000000E-03	 2.50000000E-02
					 1.00000000E-02	 1.00000000E-02	 2.25000000E-02
					 7.50000000E-03	 5.00000000E-03	 2.50000000E-02
					 7.50000000E-03	 1.00000000E-02	 2.50000000E-02
					 5.00000000E-03	 5.00000000E-03	 2.25000000E-02
					 5.00000000E-03	 7.50000000E-03	 2.50000000E-02
					 5.00000000E-03	 1.00000000E-02	 2.25000000E-02
					 1.00000000E-02	 5.00000000E-03	 3.00000000E-02
					 1.00000000E-02	 1.00000000E-02	 3.00000000E-02
					 5.00000000E-03	 5.00000000E-03	 3.00000000E-02
					 5.00000000E-03	 1.00000000E-02	 3.00000000E-02
					 1.00000000E-02	 5.00000000E-03	 2.75000000E-02
					 1.00000000E-02	 7.50000000E-03	 3.00000000E-02
					 1.00000000E-02	 1.00000000E-02	 2.75000000E-02
					 7.50000000E-03	 5.00000000E-03	 3.00000000E-02
					 7.50000000E-03	 1.00000000E-02	 3.00000000E-02
					 5.00000000E-03	 5.00000000E-03	 2.75000000E-02
					 5.00000000E-03	 7.50000000E-03	 3.00000000E-02
					 5.00000000E-03	 1.00000000E-02	 2.75000000E-02
					 1.00000000E-02	 5.00000000E-03	 3.50000000E-02
					 1.00000000E-02	 1.00000000E-02	 3.50000000E-02
					 5.00000000E-03	 5.00000000E-03	 3.50000000E-02
					 5.00000000E-03	 1.00000000E-02	 3.50000000E-02
					 1.00000000E-02	 5.00000000E-03	 3.25000000E-02
					 1.00000000E-02	 7.50000000E-03	 3.50000000E-02
					 1.00000000E-02	 1.00000000E-02	 3.25000000E-02
					 7.50000000E-03	 5.00000000E-03	 3.50000000E-02
					 7.50000000E-03	 1.00000000E-02	 3.50000000E-02
					 5.00000000E-03	 5.00000000E-03	 3.25000000E-02
					 5.00000000E-03	 7.50000000E-03	 3.50000000E-02
					 5.00000000E-03	 1.00000000E-02	 3.25000000E-02
					 1.00000000E-02	 5.00000000E-03	 4.00000000E-02
					 1.00000000E-02	 1.00000000E-02	 4.00000000E-02
					 5.00000000E-03	 5.00000000E-03	 4.00000000E-02
					 5.00000000E-03	 1.00000000E-02	 4.00000000E-02
					 1.00000000E-02	 5.00000000E-03	 3.75000000E-02
					 1.00000000E-02	 7.50000000E-03	 4.00000000E-02
					 1.00000000E-02	 1.00000000E-02	 3.75000000E-02
					 7.50000000E-03	 5.00000000E-03	 4.00000000E-02
					 7.50000000E-03	 1.00000000E-02	 4.00000000E-02
					 5.00000000E-03	 5.00000000E-03	 3.75000000E-02
					 5.00000000E-03	 7.50000000E-03	 4.00000000E-02
					 5.00000000E-03	 1.00000000E-02	 3.75000000E-02
					 1.00000000E-02	 5.00000000E-03	 4.50000000E-02
					 1.00000000E-02	 1.00000000E-02	 4.50000000E-02
					 5.00000000E-03	 5.00000000E-03	 4.50000000E-02
					 5.00000000E-03	 1.00000000E-02	 4.50000000E-02
					 1.00000000E-02	 5.00000000E-03	 4.25000000E-02
					 1.00000000E-02	 7.50000000E-03	 4.50000000E-02
					 1.00000000E-02	 1.00000000E-02	 4.25000000E-02
					 7.50000000E-03	 5.00000000E-03	 4.50000000E-02
					 7.50000000E-03	 1.00000000E-02	 4.50000000E-02
					 5.00000000E-03	 5.00000000E-03	 4.25000000E-02
					 5.00000000E-03	 7.50000000E-03	 4.50000000E-02
					 5.00000000E-03	 1.00000000E-02	 4.25000000E-02
					 1.00000000E-02	 5.00000000E-03	 5.00000000E-02
					 1.00000000E-02	 1.00000000E-02	 5.00000000E-02
					 5.00000000E-03	 5.00000000E-03	 5.00000000E-02
					 5.00000000E-03	 1.00000000E-02	 5.00000000E-02
					 1.00000000E-02	 5.00000000E-03	 4.75000000E-02
					 1.00000000E-02	 7.50000000E-03	 5.00000000E-02
					 1.00000000E-02	 1.00000000E-02	 4.75000000E-02
					 7.50000000E-03	 5.00000000E-03	 5.00000000E-02
					 7.50000000E-03	 1.00000000E-02	 5.00000000E-02
					 5.00000000E-03	 5.00000000E-03	 4.75000000E-02
					 5.00000000E-03	 7.50000000E-03	 5.00000000E-02
					 5.00000000E-03	 1.00000000E-02	 4.75000000E-02
					 1.00000000E-02	 5.00000000E-03	 5.50000000E-02
					 1.00000000E-02	 1.00000000E-02	 5.50000000E-02
					 5.00000000E-03	 5.00000000E-03	 5.50000000E-02
					 5.00000000E-03	 1.00000000E-02	 5.50000000E-02
					 1.00000000E-02	 5.00000000E-03	 5.25000000E-02
					 1.00000000E-02	 7.50000000E-03	 5.50000000E-02
					 1.00000000E-02	 1.00000000E-02	 5.25000000E-02
					 7.50000000E-03	 5.00000000E-03	 5.50000000E-02
					 7.50000000E-03	 1.00000000E-02	 5.50000000E-02
					 5.00000000E-03	 5.00000000E-03	 5.25000000E-02
					 5.00000000E-03	 7.50000000E-03	 5.50000000E-02
					 5.00000000E-03	 1.00000000E-02	 5.25000000E-02
					 1.00000000E-02	 5.00000000E-03	 6.00000000E-02
					 1.00000000E-02	 1.00000000E-02	 6.00000000E-02
					 5.00000000E-03	 5.00000000E-03	 6.00000000E-02
					 5.00000000E-03	 1.00000000E-02	 6.00000000E-02
					 1.00000000E-02	 5.00000000E-03	 5.75000000E-02
					 1.00000000E-02	 7.50000000E-03	 6.00000000E-02
					 1.00000000E-02	 1.00000000E-02	 5.75000000E-02
					 7.50000000E-03	 5.00000000E-03	 6.00000000E-02
					 7.50000000E-03	 1.00000000E-02	 6.00000000E-02
					 5.00000000E-03	 5.00000000E-03	 5.75000000E-02
					 5.00000000E-03	 7.50000000E-03	 6.00000000E-02
					 5.00000000E-03	 1.00000000E-02	 5.75000000E-02
					 1.00000000E-02	 5.00000000E-03	 6.50000000E-02
					 1.00000000E-02	 1.00000000E-02	 6.50000000E-02
					 5.00000000E-03	 5.00000000E-03	 6.50000000E-02
					 5.00000000E-03	 1.00000000E-02	 6.50000000E-02
					 1.00000000E-02	 5.00000000E-03	 6.25000000E-02
					 1.00000000E-02	 7.50000000E-03	 6.50000000E-02
					 1.00000000E-02	 1.00000000E-02	 6.25000000E-02
					 7.50000000E-03	 5.00000000E-03	 6.50000000E-02
					 7.50000000E-03	 1.00000000E-02	 6.50000000E-02
					 5.00000000E-03	 5.00000000E-03	 6.25000000E-02
					 5.00000000E-03	 7.50000000E-03	 6.50000000E-02
					 5.00000000E-03	 1.00000000E-02	 6.25000000E-02
					 1.00000000E-02	 5.00000000E-03	 7.00000000E-02
					 1.00000000E-02	 1.00000000E-02	 7.00000000E-02
					 5.00000000E-03	 5.00000000E-03	 7.00000000E-02
					 5.00000000E-03	 1.00000000E-02	 7.00000000E-02
					 1.00000000E-02	 5.00000000E-03	 6.75000000E-02
					 1.00000000E-02	 7.50000000E-03	 7.00000000E-02
					 1.00000000E-02	 1.00000000E-02	 6.75000000E-02
					 7.50000000E-03	 5.00000000E-03	 7.00000000E-02
					 7.50000000E-03	 1.00000000E-02	 7.00000000E-02
					 5.00000000E-03	 5.00000000E-03	 6.75000000E-02
					 5.00000000E-03	 7.50000000E-03	 7.00000000E-02
					 5.00000000E-03	 1.00000000E-02	 6.75000000E-02
					 1.00000000E-02	 5.00000000E-03	 7.50000000E-02
					 1.00000000E-02	 1.00000000E-02	 7.50000000E-02
					 5.00000000E-03	 5.00000000E-03	 7.50000000E-02
					 5.00000000E-03	 1.00000000E-02	 7.50000000E-02
					 1.00000000E-02	 5.00000000E-03	 7.25000000E-02
					 1.00000000E-02	 7.50000000E-03	 7.50000000E-02
					 1.00000000E-02	 1.00000000E-02	 7.25000000E-02
[...]
			<PointData>
				<DataArray type="Float32" Name="U" NumberOfComponents="3" ComponentName0="D1" ComponentName1="D2" ComponentName2="D3" format="ascii">
					 0.00000000E+00	 0.00000000E+00	 0.00000000E+00
					 0.00000000E+00	 0.00000000E+00	 0.00000000E+00
					 6.41137000E-03	 1.33215000E-03	-9.65951000E-03
					 6.05112000E-03	 4.64633000E-03	-1.32664000E-02
					 0.00000000E+00	 0.00000000E+00	 0.00000000E+00
					 0.00000000E+00	 0.00000000E+00	 0.00000000E+00
					 4.86463000E-03	 1.78047000E-03	 0.00000000E+00
					 3.63973000E-03	 2.34658000E-03	-3.53541000E-03
					 0.00000000E+00	 0.00000000E+00	 0.00000000E+00
					 2.54261000E-03	 1.28107000E-05	-4.40798000E-03
					 6.63444000E-03	 2.73715000E-03	-1.13302000E-02
					 2.46580000E-03	 2.88992000E-03	-6.43186000E-03
					 0.00000000E+00	 0.00000000E+00	 0.00000000E+00
					 0.00000000E+00	 0.00000000E+00	 0.00000000E+00
					 5.11814000E-03	 1.70572000E-03	-4.70856000E-03
					 4.34003000E-03	 3.66214000E-03	-8.35067000E-03
					 0.00000000E+00	 0.00000000E+00	 0.00000000E+00
					 9.67297000E-04	 3.54034000E-04	 0.00000000E+00
					 4.66040000E-03	 1.87325000E-03	-1.72335000E-03
					 3.50017000E-05	 9.30604000E-04	-1.61333000E-03
					 2.12589000E-02	 6.72389000E-03	-1.94914000E-02
					 2.08731000E-02	 1.01639000E-02	-2.66687000E-02
					 1.98005000E-02	 7.24704000E-03	 0.00000000E+00
					 1.83711000E-02	 7.78080000E-03	-7.13391000E-03
					 1.26393000E-02	 3.55548000E-03	-1.46190000E-02
					 2.14259000E-02	 8.33835000E-03	-2.30784000E-02
					 1.22459000E-02	 7.02120000E-03	-2.00335000E-02
					 2.01976000E-02	 7.11358000E-03	-9.68902000E-03
					 1.92910000E-02	 9.10381000E-03	-1.68412000E-02
					 1.10989000E-02	 4.06223000E-03	 0.00000000E+00
					 1.94359000E-02	 7.39238000E-03	-3.54621000E-03
					 9.71435000E-03	 4.62603000E-03	-5.35058000E-03
					 4.58586000E-02	 1.57535000E-02	-2.90566000E-02
					 4.54811000E-02	 1.90809000E-02	-3.96551000E-02
					 4.44478000E-02	 1.62680000E-02	 0.00000000E+00
					 4.30422000E-02	 1.67844000E-02	-1.06348000E-02
					 3.23689000E-02	 1.07997000E-02	-2.43238000E-02
					 4.60222000E-02	 1.72836000E-02	-3.43476000E-02
					 3.19903000E-02	 1.41918000E-02	-3.32013000E-02
					 4.47938000E-02	 1.61410000E-02	-1.44850000E-02
					 4.39028000E-02	 1.80629000E-02	-2.50959000E-02
					 3.09380000E-02	 1.13234000E-02	 0.00000000E+00
					 4.41009000E-02	 1.63946000E-02	-5.30155000E-03
					 2.95072000E-02	 1.18471000E-02	-8.90259000E-03
					 7.97890000E-02	 2.82139000E-02	-3.82532000E-02
					 7.94269000E-02	 3.14125000E-02	-5.22219000E-02
					 7.84382000E-02	 2.87086000E-02	 0.00000000E+00
					 7.70865000E-02	 2.92030000E-02	-1.40008000E-02
					 6.16732000E-02	 2.15632000E-02	-3.36996000E-02
					 7.99457000E-02	 2.96906000E-02	-4.52287000E-02
					 6.13033000E-02	 2.48249000E-02	-4.60015000E-02
					 7.87775000E-02	 2.85845000E-02	-1.90792000E-02
					 7.79205000E-02	 3.04309000E-02	-3.30584000E-02
					 6.02937000E-02	 2.20677000E-02	 0.00000000E+00
					 7.80992000E-02	 2.88328000E-02	-6.98305000E-03
					 5.89153000E-02	 2.25725000E-02	-1.23342000E-02
					 1.22742000E-01	 4.39737000E-02	-4.70855000E-02
					 1.22395000E-01	 4.70451000E-02	-6.42858000E-02
					 1.21444000E-01	 4.44489000E-02	 0.00000000E+00
					 1.20146000E-01	 4.49241000E-02	-1.72334000E-02
					 1.00162000E-01	 3.56897000E-02	-4.27135000E-02
					 1.22893000E-01	 4.53904000E-02	-5.56773000E-02
					 9.98069000E-02	 3.88250000E-02	-5.83135000E-02
					 1.21768000E-01	 4.43302000E-02	-2.34965000E-02
					 1.20945000E-01	 4.61036000E-02	-4.07077000E-02
					 9.88371000E-02	 3.61746000E-02	 0.00000000E+00
					 1.21120000E-01	 4.45675000E-02	-8.59979000E-03
					 9.75120000E-02	 3.66596000E-02	-1.56333000E-02
					 1.74347000E-01	 6.29007000E-02	-5.55610000E-02
					 1.74014000E-01	 6.58451000E-02	-7.58636000E-02
					 1.73103000E-01	 6.33561000E-02	 0.00000000E+00
					 1.71858000E-01	 6.38116000E-02	-2.03355000E-02
					 1.47485000E-01	 5.30495000E-02	-5.13674000E-02
					 1.74492000E-01	 6.42591000E-02	-6.57038000E-02
					 1.47145000E-01	 5.60573000E-02	-7.01351000E-02
					 1.73414000E-01	 6.32423000E-02	-2.77341000E-02
					 1.72625000E-01	 6.49422000E-02	-4.80475000E-02
					 1.46214000E-01	 5.35148000E-02	 0.00000000E+00
					 1.72792000E-01	 6.34701000E-02	-1.01508000E-02
					 1.44943000E-01	 5.39801000E-02	-1.88006000E-02
					 2.34248000E-01	 8.48638000E-02	-6.36785000E-02
					 2.33929000E-01	 8.76814000E-02	-8.69521000E-02
					 2.33058000E-01	 8.52997000E-02	 0.00000000E+00
					 2.31867000E-01	 8.57356000E-02	-2.33065000E-02
					 2.03283000E-01	 7.35109000E-02	-5.96638000E-02
					 2.34387000E-01	 8.61637000E-02	-7.53068000E-02
					 2.02957000E-01	 7.63919000E-02	-8.14680000E-02
					 2.33355000E-01	 8.51907000E-02	-3.17930000E-02
					 2.32600000E-01	 8.68175000E-02	-5.50775000E-02
					 2.02066000E-01	 7.39566000E-02	 0.00000000E+00
					 2.32760000E-01	 8.54087000E-02	-1.16363000E-02
					 2.00848000E-01	 7.44023000E-02	-2.18371000E-02
					 3.02088000E-01	 1.09732000E-01	-7.14394000E-02
					 3.01783000E-01	 1.12424000E-01	-9.75536000E-02
					 3.00950000E-01	 1.10149000E-01	 0.00000000E+00
					 2.99813000E-01	 1.10565000E-01	-2.61470000E-02
					 2.67198000E-01	 9.69431000E-02	-6.76028000E-02
					 3.02220000E-01	 1.10974000E-01	-8.44880000E-02
					 2.66886000E-01	 9.96974000E-02	-9.23128000E-02
					 3.01235000E-01	 1.10045000E-01	-3.56736000E-02
					 3.00513000E-01	 1.11598000E-01	-6.17987000E-02
					 2.66034000E-01	 9.73691000E-02	 0.00000000E+00
					 3.00666000E-01	 1.10253000E-01	-1.30566000E-02
					 2.64870000E-01	 9.77952000E-02	-2.47428000E-02
					 3.77509000E-01	 1.37376000E-01	-7.88448000E-02
					 3.77218000E-01	 1.39941000E-01	-1.07670000E-01
					 3.76425000E-01	 1.37773000E-01	 0.00000000E+00
					 3.75340000E-01	 1.38169000E-01	-2.88574000E-02
					 3.38873000E-01	 1.23215000E-01	-7.51858000E-02
					 3.77635000E-01	 1.38559000E-01	-9.32488000E-02
					 3.38575000E-01	 1.25844000E-01	-1.02671000E-01
					 3.76696000E-01	 1.37673000E-01	-3.93766000E-02
					 3.76008000E-01	 1.39154000E-01	-6.82121000E-02
					 3.37762000E-01	 1.23622000E-01	 0.00000000E+00
					 3.76154000E-01	 1.37872000E-01	-1.44119000E-02
					 3.36651000E-01	 1.24028000E-01	-2.75182000E-02
					 4.60157000E-01	 1.67664000E-01	-8.58965000E-02
					 4.59881000E-01	 1.70104000E-01	-1.17302000E-01
					 4.59126000E-01	 1.68041000E-01	 0.00000000E+00
					 4.58095000E-01	 1.68419000E-01	-3.14384000E-02
					 4.17952000E-01	 1.52197000E-01	-8.24141000E-02
					 4.60277000E-01	 1.68790000E-01	-1.01591000E-01
					 4.17668000E-01	 1.54700000E-01	-1.12545000E-01
					 4.59384000E-01	 1.67947000E-01	-4.29027000E-02
					 4.58730000E-01	 1.69356000E-01	-7.43193000E-02
					 4.16894000E-01	 1.52584000E-01	 0.00000000E+00
					 4.58868000E-01	 1.68136000E-01	-1.57025000E-02
					 4.15836000E-01	 1.52972000E-01	-3.01638000E-02
					 5.49680000E-01	 2.00468000E-01	-9.25964000E-02
					 5.49418000E-01	 2.02784000E-01	-1.26455000E-01
					 5.48701000E-01	 2.00826000E-01	 0.00000000E+00
					 5.47722000E-01	 2.01184000E-01	-3.38906000E-02
					 5.04081000E-01	 1.83759000E-01	-8.92897000E-02
					 5.49793000E-01	 2.01536000E-01	-1.09517000E-01
					 5.03812000E-01	 1.86137000E-01	-1.21938000E-01
					 5.48946000E-01	 2.00737000E-01	-4.62529000E-02
					 5.48325000E-01	 2.02074000E-01	-8.01219000E-02
					 5.03076000E-01	 1.84127000E-01	 0.00000000E+00
					 5.48456000E-01	 2.00916000E-01	-1.69287000E-02
					 5.02071000E-01	 1.84495000E-01	-3.26803000E-02
					 6.45726000E-01	 2.35659000E-01	-9.89470000E-02
					 6.45477000E-01	 2.37851000E-01	-1.35130000E-01
					 6.44799000E-01	 2.35998000E-01	 0.00000000E+00
					 6.43872000E-01	 2.36337000E-01	-3.62149000E-02
					 5.96909000E-01	 2.17773000E-01	-9.58146000E-02
					 6.45833000E-01	 2.36670000E-01	-1.17030000E-01
					 5.96654000E-01	 2.20027000E-01	-1.30851000E-01
					 6.45031000E-01	 2.35913000E-01	-4.94286000E-02
					 6.44443000E-01	 2.37179000E-01	-8.56221000E-02
					 5.95957000E-01	 2.18122000E-01	 0.00000000E+00
					 6.44567000E-01	 2.36083000E-01	-1.80910000E-02
					 5.95004000E-01	 2.18470000E-01	-3.50684000E-02
					 7.47946000E-01	 2.73110000E-01	-1.04951000E-01
					 7.47712000E-01	 2.75180000E-01	-1.43332000E-01
					 7.47071000E-01	 2.73430000E-01	 0.00000000E+00
					 7.46196000E-01	 2.73750000E-01	-3.84124000E-02
					 6.96086000E-01	 2.54110000E-01	-1.01992000E-01
					 7.48048000E-01	 2.74065000E-01	-1.24133000E-01
					 6.95844000E-01	 2.56241000E-01	-1.39289000E-01
					 7.47290000E-01	 2.73350000E-01	-5.24311000E-02
					 7.46735000E-01	 2.74545000E-01	-9.08223000E-02
					 6.95185000E-01	 2.54440000E-01	 0.00000000E+00
					 7.46852000E-01	 2.73510000E-01	-1.91899000E-02
					 6.94284000E-01	 2.54769000E-01	-3.73292000E-02
					 8.55996000E-01	 3.12694000E-01	-1.10612000E-01
					 8.55776000E-01	 3.14643000E-01	-1.51065000E-01
					 8.55173000E-01	 3.12996000E-01	 0.00000000E+00
					 8.54349000E-01	 3.13297000E-01	-4.04844000E-02
					 8.01264000E-01	 2.92643000E-01	-1.07824000E-01
					 8.56092000E-01	 3.13593000E-01	-1.30831000E-01
					 8.01036000E-01	 2.94652000E-01	-1.47256000E-01
					 8.55379000E-01	 3.12920000E-01	-5.52621000E-02
					 8.54856000E-01	 3.14045000E-01	-9.57255000E-02
					 8.00415000E-01	 2.92954000E-01	 0.00000000E+00
					 8.54967000E-01	 3.13071000E-01	-2.02261000E-02
					 7.99565000E-01	 2.93265000E-01	-3.94638000E-02
					 9.69535000E-01	 3.54286000E-01	-1.15934000E-01
					 9.69328000E-01	 3.56116000E-01	-1.58335000E-01
					 9.68762000E-01	 3.54569000E-01	 0.00000000E+00
					 9.67988000E-01	 3.54852000E-01	-4.24321000E-02
					 9.12101000E-01	 3.33247000E-01	-1.13315000E-01
					 9.69624000E-01	 3.55130000E-01	-1.37127000E-01
					 9.11887000E-01	 3.35136000E-01	-1.54757000E-01
					 9.68955000E-01	 3.54499000E-01	-5.79236000E-02
					 9.68465000E-01	 3.55555000E-01	-1.00335000E-01
					 9.11302000E-01	 3.33539000E-01	 0.00000000E+00
					 9.68568000E-01	 3.54640000E-01	-2.12002000E-02
					 9.10504000E-01	 3.33831000E-01	-4.14734000E-02
					 1.08822000E+00	 3.97763000E-01	-1.20921000E-01
					 1.08803000E+00	 3.99475000E-01	-1.65148000E-01
					 1.08750000E+00	 3.98028000E-01	 0.00000000E+00
					 1.08678000E+00	 3.98293000E-01	-4.42574000E-02
					 1.02826000E+00	 3.75797000E-01	-1.18468000E-01
					 1.08831000E+00	 3.98553000E-01	-1.43026000E-01
					 1.02806000E+00	 3.77567000E-01	-1.61797000E-01
					 1.08768000E+00	 3.97962000E-01	-6.04177000E-02
					 1.08722000E+00	 3.98950000E-01	-1.04655000E-01
					 1.02751000E+00	 3.76071000E-01	 0.00000000E+00
					 1.08732000E+00	 3.98094000E-01	-2.21130000E-02
					 1.02676000E+00	 3.76345000E-01	-4.33597000E-02
					 1.21173000E+00	 4.43003000E-01	-1.25578000E-01
					 1.21155000E+00	 4.44598000E-01	-1.71510000E-01
					 1.21106000E+00	 4.43250000E-01	 0.00000000E+00
					 1.21038000E+00	 4.43497000E-01	-4.59619000E-02
					 1.14940000E+00	 4.20170000E-01	-1.23290000E-01
					 1.21181000E+00	 4.43739000E-01	-1.48536000E-01
					 1.14921000E+00	 4.21824000E-01	-1.68384000E-01
					 1.21123000E+00	 4.43188000E-01	-6.27469000E-02
					 1.21080000E+00	 4.44109000E-01	-1.08689000E-01
					 1.14870000E+00	 4.20426000E-01	 0.00000000E+00
					 1.21089000E+00	 4.43312000E-01	-2.29656000E-02
					 1.14800000E+00	 4.20682000E-01	-4.51244000E-02
					 1.33973000E+00	 4.89886000E-01	-1.29911000E-01
					 1.33956000E+00	 4.91367000E-01	-1.77429000E-01
					 1.33910000E+00	 4.90115000E-01	 0.00000000E+00
					 1.33848000E+00	 4.90344000E-01	-4.75477000E-02
					 1.27519000E+00	 4.66247000E-01	-1.27784000E-01
					 1.33980000E+00	 4.90569000E-01	-1.53662000E-01
					 1.27501000E+00	 4.67785000E-01	-1.74524000E-01
					 1.33926000E+00	 4.90058000E-01	-6.49141000E-02
					 1.33886000E+00	 4.90913000E-01	-1.12442000E-01
					 1.27454000E+00	 4.66485000E-01	 0.00000000E+00
					 1.33895000E+00	 4.90172000E-01	-2.37588000E-02
					 1.27389000E+00	 4.66722000E-01	-4.67693000E-02
					 1.47189000E+00	 5.38293000E-01	-1.33925000E-01
					 1.47174000E+00	 5.39663000E-01	-1.82914000E-01
					 1.47131000E+00	 5.38505000E-01	 0.00000000E+00
					 1.47074000E+00	 5.38717000E-01	-4.90170000E-02
					 1.40531000E+00	 5.13906000E-01	-1.31957000E-01
					 1.47196000E+00	 5.38925000E-01	-1.58412000E-01
					 1.40515000E+00	 5.15331000E-01	-1.80224000E-01
					 1.47146000E+00	 5.38452000E-01	-6.69223000E-02
					 1.47109000E+00	 5.39243000E-01	-1.15920000E-01
					 1.40471000E+00	 5.14127000E-01	 0.00000000E+00
					 1.47117000E+00	 5.38558000E-01	-2.44938000E-02
					 1.40410000E+00	 5.14347000E-01	-4.82966000E-02
					 1.60791000E+00	 5.88111000E-01	-1.37629000E-01
					 1.60777000E+00	 5.89371000E-01	-1.87973000E-01
					 1.60738000E+00	 5.88306000E-01	 0.00000000E+00
					 1.60685000E+00	 5.88501000E-01	-5.03724000E-02
					 1.53944000E+00	 5.63033000E-01	-1.35815000E-01
					 1.60797000E+00	 5.88692000E-01	-1.62794000E-01
					 1.53929000E+00	 5.64348000E-01	-1.85495000E-01
					 1.60751000E+00	 5.88257000E-01	-6.87749000E-02
					 1.60718000E+00	 5.88985000E-01	-1.19129000E-01
					 1.53889000E+00	 5.63236000E-01	 0.00000000E+00
					 1.60725000E+00	 5.88354000E-01	-2.51718000E-02
					 1.53833000E+00	 5.63440000E-01	-4.97086000E-02
					 1.74748000E+00	 6.39224000E-01	-1.41028000E-01
					 1.74735000E+00	 6.40378000E-01	-1.92617000E-01
					 1.74699000E+00	 6.39403000E-01	 0.00000000E+00
					 1.74650000E+00	 6.39582000E-01	-5.16166000E-02
					 1.67727000E+00	 6.13512000E-01	-1.39365000E-01
					 1.74753000E+00	 6.39757000E-01	-1.66816000E-01
					 1.67713000E+00	 6.14719000E-01	-1.90346000E-01
					 1.74711000E+00	 6.39358000E-01	-7.04757000E-02
					 1.74680000E+00	 6.40025000E-01	-1.22074000E-01
					 1.67676000E+00	 6.13699000E-01	 0.00000000E+00
					 1.74687000E+00	 6.39448000E-01	-2.57943000E-02
					 1.67625000E+00	 6.13886000E-01	-5.10081000E-02
					 1.89029000E+00	 6.91525000E-01	-1.44132000E-01
					 1.89017000E+00	 6.92575000E-01	-1.96858000E-01
					 1.88984000E+00	 6.91687000E-01	 0.00000000E+00
					 1.88940000E+00	 6.91850000E-01	-5.27526000E-02
					 1.81849000E+00	 6.65233000E-01	-1.42616000E-01
					 1.89034000E+00	 6.92010000E-01	-1.70488000E-01
					 1.81837000E+00	 6.66335000E-01	-1.94787000E-01
					 1.88995000E+00	 6.91647000E-01	-7.20286000E-02
					 1.88967000E+00	 6.92253000E-01	-1.24763000E-01
					 1.81803000E+00	 6.65404000E-01	 0.00000000E+00
					 1.88973000E+00	 6.91728000E-01	-2.63627000E-02
					 1.81756000E+00	 6.65574000E-01	-5.21977000E-02
					 2.03605000E+00	 7.44905000E-01	-1.46948000E-01
					 2.03594000E+00	 7.45856000E-01	-2.00706000E-01
					 2.03565000E+00	 7.45052000E-01	 0.00000000E+00
					 2.03524000E+00	 7.45199000E-01	-5.37835000E-02
					 1.96282000E+00	 7.18087000E-01	-1.45575000E-01
					 2.03609000E+00	 7.45344000E-01	-1.73821000E-01
					 1.96270000E+00	 7.19087000E-01	-1.98829000E-01
					 2.03575000E+00	 7.45015000E-01	-7.34381000E-02
					 2.03549000E+00	 7.45564000E-01	-1.27204000E-01
					 1.96239000E+00	 7.18241000E-01	 0.00000000E+00
					 2.03555000E+00	 7.45089000E-01	-2.68786000E-02
					 1.96197000E+00	 7.18396000E-01	-5.32807000E-02
					 2.18448000E+00	 7.99262000E-01	-1.49487000E-01
					 2.18438000E+00	 8.00115000E-01	-2.04175000E-01
					 2.18412000E+00	 7.99394000E-01	 0.00000000E+00
					 2.18376000E+00	 7.99526000E-01	-5.47128000E-02
					 2.10995000E+00	 7.71968000E-01	-1.48251000E-01
					 2.18452000E+00	 7.99655000E-01	-1.76825000E-01
					 2.10985000E+00	 7.72869000E-01	-2.02487000E-01
					 2.18421000E+00	 7.99361000E-01	-7.47090000E-02
					 2.18398000E+00	 7.99854000E-01	-1.29405000E-01
					 2.10957000E+00	 7.72107000E-01	 0.00000000E+00
					 2.18403000E+00	 7.99427000E-01	-2.73437000E-02
					 2.10919000E+00	 7.72247000E-01	-5.42604000E-02
					 2.33531000E+00	 8.54494000E-01	-1.51759000E-01
					 2.33522000E+00	 8.55255000E-01	-2.07280000E-01
					 2.33499000E+00	 8.54612000E-01	 0.00000000E+00
					 2.33467000E+00	 8.54730000E-01	-5.55443000E-02
					 2.25961000E+00	 8.26775000E-01	-1.50656000E-01
					 2.33535000E+00	 8.54845000E-01	-1.79513000E-01
					 2.25952000E+00	 8.27581000E-01	-2.05772000E-01
					 2.33507000E+00	 8.54583000E-01	-7.58464000E-02
					 2.33486000E+00	 8.55022000E-01	-1.31375000E-01
					 2.25927000E+00	 8.26899000E-01	 0.00000000E+00
					 2.33491000E+00	 8.54642000E-01	-2.77600000E-02
					 2.25893000E+00	 8.27024000E-01	-5.51403000E-02
					 2.48827000E+00	 9.10507000E-01	-1.53775000E-01
					 2.48820000E+00	 9.11179000E-01	-2.10034000E-01
					 2.48799000E+00	 9.10611000E-01	 0.00000000E+00
					 2.48771000E+00	 9.10715000E-01	-5.62820000E-02
					 2.41154000E+00	 8.82409000E-01	-1.52798000E-01
					 2.48831000E+00	 9.10817000E-01	-1.81899000E-01
					 2.41146000E+00	 8.83125000E-01	-2.08699000E-01
					 2.48806000E+00	 9.10585000E-01	-7.68557000E-02
					 2.48788000E+00	 9.10973000E-01	-1.33123000E-01
					 2.41124000E+00	 8.82520000E-01	 0.00000000E+00
					 2.48792000E+00	 9.10637000E-01	-2.81294000E-02
					 2.41094000E+00	 8.82631000E-01	-5.59244000E-02
					 2.64312000E+00	 9.67208000E-01	-1.55546000E-01
					 2.64305000E+00	 9.67795000E-01	-2.12454000E-01
					 2.64287000E+00	 9.67299000E-01	 0.00000000E+00
					 2.64262000E+00	 9.67390000E-01	-5.69301000E-02
					 2.56548000E+00	 9.38777000E-01	-1.54690000E-01
					 2.64315000E+00	 9.67479000E-01	-1.83995000E-01
					 2.56541000E+00	 9.39406000E-01	-2.11284000E-01
					 2.64294000E+00	 9.67276000E-01	-7.77427000E-02
					 2.64278000E+00	 9.67615000E-01	-1.34659000E-01
					 2.56521000E+00	 9.38874000E-01	 0.00000000E+00
					 2.64281000E+00	 9.67322000E-01	-2.84541000E-02
					 2.56494000E+00	 9.38972000E-01	-5.66168000E-02
					 2.79961000E+00	 1.02451000E+00	-1.57084000E-01
					 2.79956000E+00	 1.02502000E+00	-2.14557000E-01
					 2.79940000E+00	 1.02459000E+00	 0.00000000E+00
					 2.79918000E+00	 1.02467000E+00	-5.74933000E-02
					 2.72118000E+00	 9.95789000E-01	-1.56343000E-01
					 2.79964000E+00	 1.02474000E+00	-1.85816000E-01
					 2.72111000E+00	 9.96336000E-01	-2.13544000E-01
					 2.79945000E+00	 1.02457000E+00	-7.85138000E-02
					 2.79932000E+00	 1.02486000E+00	-1.35994000E-01
					 2.72095000E+00	 9.95874000E-01	 0.00000000E+00
					 2.79935000E+00	 1.02461000E+00	-2.87363000E-02
					 2.72071000E+00	 9.95958000E-01	-5.72219000E-02
					 2.95753000E+00	 1.08233000E+00	-1.58404000E-01
					 2.95748000E+00	 1.08276000E+00	-2.16361000E-01
					 2.95734000E+00	 1.08240000E+00	 0.00000000E+00
					 2.95716000E+00	 1.08246000E+00	-5.79763000E-02
					 2.87841000E+00	 1.05336000E+00	-1.57770000E-01
					 2.95755000E+00	 1.08253000E+00	-1.87378000E-01
					 2.87835000E+00	 1.05383000E+00	-2.15495000E-01
					 2.95739000E+00	 1.08238000E+00	-7.91754000E-02
					 2.95727000E+00	 1.08263000E+00	-1.37139000E-01
					 2.87821000E+00	 1.05343000E+00	 0.00000000E+00
					 2.95730000E+00	 1.08241000E+00	-2.89784000E-02
					 2.87801000E+00	 1.05350000E+00	-5.77444000E-02
					 3.11664000E+00	 1.14059000E+00	-1.59518000E-01
					 3.11660000E+00	 1.14095000E+00	-2.17885000E-01
					 3.11649000E+00	 1.14064000E+00	 0.00000000E+00
					 3.11634000E+00	 1.14070000E+00	-5.83842000E-02
					 3.03695000E+00	 1.11141000E+00	-1.58986000E-01
					 3.11666000E+00	 1.14075000E+00	-1.88697000E-01
					 3.03690000E+00	 1.11180000E+00	-2.17156000E-01
					 3.11653000E+00	 1.14063000E+00	-7.97346000E-02
					 3.11643000E+00	 1.14084000E+00	-1.38107000E-01
					 3.03678000E+00	 1.11147000E+00	 0.00000000E+00
					 3.11645000E+00	 1.14066000E+00	-2.91831000E-02
					 3.03661000E+00	 1.11153000E+00	-5.81892000E-02
					 3.27677000E+00	 1.19921000E+00	-1.60443000E-01
					 3.27673000E+00	 1.19951000E+00	-2.19149000E-01
					 3.27664000E+00	 1.19926000E+00	 0.00000000E+00
					 3.27651000E+00	 1.19931000E+00	-5.87224000E-02
					 3.19659000E+00	 1.16986000E+00	-1.60003000E-01
					 3.27678000E+00	 1.19935000E+00	-1.89792000E-01