# vtk DataFile Version 3.0

ASCII
DATASET UNSTRUCTURED_GRID

POINTS 1720 double
	-1.27552000E-02	 3.65262000E-01	 1.66670000E-01
	 1.51975000E-02	 9.95069000E-01	 1.66670000E-01
	 9.56709000E-02	 2.30970000E-01	 0.00000000E+00
	-1.03673000E-01	 2.27490000E-01	 1.66670000E-01
	-1.74497000E-02	 4.99695000E-01	 1.66670000E-01
	 1.43506000E-01	 3.46455000E-01	 0.00000000E+00
	-8.72514000E-03	 2.49855000E-01	 1.66670000E-01
	-1.55510000E-01	 3.41235000E-01	 1.66670000E-01
	 1.91342000E-01	 4.61940000E-01	 0.00000000E+00
	 8.75518000E-02	 2.34168000E-01	 1.66670000E-01
	 1.53086000E-17	 2.50008000E-01	 0.00000000E+00
	-9.56709000E-02	 2.30970000E-01	 0.00000000E+00
	 1.10401000E-01	 5.88124000E-01	 0.00000000E+00
	-5.87745000E-17	 3.65485000E-01	 0.00000000E+00
	-1.43506000E-01	 3.46455000E-01	 0.00000000E+00
	 1.12583000E-01	 6.88100000E-01	 0.00000000E+00
	-8.04061000E-17	 5.00000000E-01	 0.00000000E+00
	 8.81865000E-02	 8.00147000E-01	-3.79961000E-04
	 3.91018000E-02	 8.94866000E-01	 0.00000000E+00
	 1.75104000E-01	 4.68336000E-01	 1.66670000E-01
	 3.25615000E-02	 9.94652000E-01	 0.00000000E+00
	-9.64874000E-17	 6.00000000E-01	 0.00000000E+00
	-1.12583000E-01	 6.88100000E-01	 0.00000000E+00
	-1.12569000E-16	 7.00000000E-01	 0.00000000E+00
	 4.89859000E-17	 8.00000000E-01	 0.00000000E+00
	 5.51091000E-17	 9.00000000E-01	 0.00000000E+00
	 6.12323000E-17	 1.00000000E+00	 0.00000000E+00
	-2.09397000E-02	 5.99634000E-01	 1.66670000E-01
	-2.44296000E-02	 6.99574000E-01	 1.66670000E-01
	-2.07347000E-01	 4.54981000E-01	 1.66670000E-01
	-2.79196000E-02	 7.99513000E-01	 1.66670000E-01
	-3.14095000E-02	 8.99452000E-01	 1.66670000E-01
	-3.17591000E-02	 7.95756000E-01	 0.00000000E+00
	-3.48995000E-02	 9.99391000E-01	 1.66670000E-01
	-1.30859000E-01	 5.83913000E-01	 1.66670000E-01
	 1.31328000E-01	 3.51252000E-01	 1.66670000E-01
	-1.36529000E-01	 6.83752000E-01	 1.66670000E-01
	-1.10401000E-01	 5.88124000E-01	 0.00000000E+00
	-1.00993000E-01	 7.89959000E-01	 1.66670000E-01
	-1.01429000E-01	 8.89959000E-01	 1.66670000E-01
	-2.34783000E-02	 8.95412000E-01	 0.00000000E+00
	-1.01866000E-01	 9.89958000E-01	 1.66670000E-01
	 8.98088000E-02	 5.91619000E-01	 1.66670000E-01
	-1.51975000E-02	 9.95069000E-01	 0.00000000E+00
	-1.91342000E-01	 4.61940000E-01	 0.00000000E+00
	 8.84998000E-02	 6.91610000E-01	 1.66670000E-01
	 3.17591000E-02	 7.95756000E-01	 1.66670000E-01
	 2.34783000E-02	 8.95412000E-01	 1.66670000E-01
	 6.43091000E-02	 6.94278000E-01	 3.33337000E-01
	 4.00400000E-02	 6.96099000E-01	 5.00003000E-01
	 1.57221000E-02	 6.97072000E-01	 6.66670000E-01
	 6.91069000E-02	 5.94393000E-01	 3.33337000E-01
	 4.83208000E-02	 5.96442000E-01	 5.00003000E-01
	 2.74758000E-02	 5.97766000E-01	 6.66670000E-01
	-1.70673000E-01	 9.80440000E-01	 3.33337000E-01
	-2.21752000E-01	 9.70164000E-01	 5.00003000E-01
	-2.12967000E-01	 9.70344000E-01	 6.40408000E-01
	-1.63263000E-01	 8.80715000E-01	 3.33337000E-01
	-2.09132000E-01	 8.70964000E-01	 5.00003000E-01
	-2.28435000E-01	 8.70398000E-01	 6.68452000E-01
	-1.55852000E-01	 7.80990000E-01	 3.33337000E-01
	-1.96512000E-01	 7.71763000E-01	 5.00003000E-01
	-2.23326000E-01	 7.64435000E-01	 6.66670000E-01
	-1.60308000E-01	 6.78571000E-01	 3.33337000E-01
	-1.83892000E-01	 6.72563000E-01	 5.00003000E-01
	-2.07252000E-01	 6.65735000E-01	 6.66670000E-01
	 1.18989000E-01	 3.55621000E-01	 3.33337000E-01
	 1.06506000E-01	 3.59557000E-01	 5.00003000E-01
	 9.38925000E-02	 3.63055000E-01	 6.66670000E-01
	-1.51158000E-01	 5.78990000E-01	 3.33337000E-01
	-1.71272000E-01	 5.73362000E-01	 5.00003000E-01
	-1.91178000E-01	 5.67036000E-01	 6.66670000E-01
	-6.97565000E-02	 9.97564000E-01	 3.33337000E-01
	-1.04528000E-01	 9.94522000E-01	 5.00003000E-01
	-1.39173000E-01	 9.90268000E-01	 6.66670000E-01
	-6.27808000E-02	 8.97808000E-01	 3.33337000E-01
	-9.40756000E-02	 8.95070000E-01	 5.00003000E-01
	-1.25256000E-01	 8.91241000E-01	 6.66670000E-01
	-5.58052000E-02	 7.98051000E-01	 3.33337000E-01
	-8.36228000E-02	 7.95618000E-01	 5.00003000E-01
	-1.11338000E-01	 7.92214000E-01	 6.66670000E-01
	-2.23099000E-01	 4.47467000E-01	 3.33337000E-01
	-2.38579000E-01	 4.39409000E-01	 5.00003000E-01
	-2.53769000E-01	 4.30815000E-01	 6.66670000E-01
	-4.88295000E-02	 6.98295000E-01	 3.33337000E-01
	-7.31699000E-02	 6.96165000E-01	 5.00003000E-01
	-9.74212000E-02	 6.93188000E-01	 6.66670000E-01
	-4.18539000E-02	 5.98538000E-01	 3.33337000E-01
	-6.27171000E-02	 5.96713000E-01	 5.00003000E-01
	-8.35039000E-02	 5.94161000E-01	 6.66670000E-01
	 1.58652000E-01	 4.74162000E-01	 3.33337000E-01
	 1.42008000E-01	 4.79410000E-01	 5.00003000E-01
	 1.25190000E-01	 4.84074000E-01	 6.66670000E-01
	 7.93262000E-02	 2.37081000E-01	 3.33337000E-01
	 7.10038000E-02	 2.39705000E-01	 5.00003000E-01
	 6.25950000E-02	 2.42037000E-01	 6.66670000E-01
	-1.67324000E-01	 3.35600000E-01	 3.33337000E-01
	-1.78935000E-01	 3.29556000E-01	 5.00003000E-01
	-1.90327000E-01	 3.23111000E-01	 6.66670000E-01
	-1.74397000E-02	 2.49399000E-01	 3.33337000E-01
	-2.61329000E-02	 2.48638000E-01	 5.00003000E-01
	-3.47943000E-02	 2.47575000E-01	 6.66670000E-01
	-3.48782000E-02	 4.98782000E-01	 3.33337000E-01
	-5.22642000E-02	 4.97261000E-01	 5.00003000E-01
	-6.95866000E-02	 4.95134000E-01	 6.66670000E-01
	-1.11549000E-01	 2.23734000E-01	 3.33337000E-01
	-1.19290000E-01	 2.19704000E-01	 5.00003000E-01
	-1.26885000E-01	 2.15407000E-01	 6.66670000E-01
	-2.54949000E-02	 3.64595000E-01	 3.33337000E-01
	-3.82036000E-02	 3.63483000E-01	 5.00003000E-01
	-5.08657000E-02	 3.61928000E-01	 6.66670000E-01
	-1.95392000E-02	 9.94993000E-01	 3.33337000E-01
	-1.95392000E-02	 9.94993000E-01	 5.00003000E-01
	-6.53167000E-02	 9.91143000E-01	 6.44012000E-01
	-7.78541000E-03	 8.95686000E-01	 3.33337000E-01
	-7.78541000E-03	 8.95686000E-01	 5.00003000E-01
	-3.99021000E-02	 8.87826000E-01	 6.53001000E-01
	 3.96833000E-03	 7.96379000E-01	 3.33337000E-01
	 3.96833000E-03	 7.96379000E-01	 5.00003000E-01
	 3.96833000E-03	 7.96379000E-01	 6.66670000E-01
	 1.88491000E-01	 6.92919000E-01	 1.66670000E-01
	-2.42037000E-01	 7.77922000E-01	 1.66670000E-01
	-2.36368000E-01	 6.78083000E-01	 1.66670000E-01
	-2.14740000E-01	 7.85895000E-01	 0.00000000E+00
	 1.03275000E-01	 8.08133000E-01	 6.66670000E-01
	 1.31416000E-01	 8.04036000E-01	 5.00003000E-01
	 1.59396000E-01	 7.98960000E-01	 3.33337000E-01
	 2.12559000E-01	 6.85919000E-01	 0.00000000E+00
	-2.12559000E-01	 6.85919000E-01	 0.00000000E+00
	-2.59888000E-01	 6.69421000E-01	 3.33337000E-01
	-3.05952000E-01	 6.49661000E-01	 6.66670000E-01
	-2.83093000E-01	 6.59943000E-01	 5.00003000E-01
	 2.14740000E-01	 7.85895000E-01	 0.00000000E+00
	-3.22026000E-01	 7.48361000E-01	 6.66670000E-01
	-2.95713000E-01	 7.59143000E-01	 5.00003000E-01
	-2.69039000E-01	 7.69001000E-01	 3.33337000E-01
	 1.15029000E-01	 7.08826000E-01	 6.66670000E-01
	 1.39697000E-01	 7.04380000E-01	 5.00003000E-01
	 1.64194000E-01	 6.99075000E-01	 3.33337000E-01
	 1.87182000E-01	 7.92911000E-01	 1.66670000E-01
	-1.95392000E-02	 1.19499000E+00	 5.00003000E-01
	-1.95392000E-02	 1.39499000E+00	 5.00003000E-01
	-1.95392000E-02	 1.59499000E+00	 5.00003000E-01
	-1.95392000E-02	 1.79499000E+00	 5.00003000E-01
	-1.95392000E-02	 1.99499000E+00	 5.00003000E-01
	-1.51975000E-02	 1.19507000E+00	 0.00000000E+00
	-1.51975000E-02	 1.39507000E+00	 0.00000000E+00
	-1.51975000E-02	 1.59507000E+00	 0.00000000E+00
	-1.51975000E-02	 1.79507000E+00	 0.00000000E+00
	-1.51975000E-02	 1.99507000E+00	 0.00000000E+00
	-1.01866000E-01	 1.18996000E+00	 1.66670000E-01
	-1.01866000E-01	 1.38996000E+00	 1.66670000E-01
	-1.01866000E-01	 1.58996000E+00	 1.66670000E-01
	-1.01866000E-01	 1.78996000E+00	 1.66670000E-01
	-1.01866000E-01	 1.98996000E+00	 1.66670000E-01
	-6.53167000E-02	 1.19114000E+00	 6.44012000E-01
	-6.53167000E-02	 1.39114000E+00	 6.44012000E-01
	-6.53167000E-02	 1.59114000E+00	 6.44012000E-01
	-6.53167000E-02	 1.79114000E+00	 6.44012000E-01
	-6.53167000E-02	 1.99114000E+00	 6.44012000E-01
	-2.21752000E-01	 1.17016000E+00	 5.00003000E-01
	-2.21752000E-01	 1.37016000E+00	 5.00003000E-01
	-2.21752000E-01	 1.57016000E+00	 5.00003000E-01
	-2.21752000E-01	 1.77016000E+00	 5.00003000E-01
	-2.21752000E-01	 1.97016000E+00	 5.00003000E-01
	-2.12967000E-01	 1.17034000E+00	 6.40408000E-01
	-2.12967000E-01	 1.37034000E+00	 6.40408000E-01
	-2.12967000E-01	 1.57034000E+00	 6.40408000E-01
	-2.12967000E-01	 1.77034000E+00	 6.40408000E-01
	-2.12967000E-01	 1.97034000E+00	 6.40408000E-01
	-3.48995000E-02	 1.19939000E+00	 1.66670000E-01
	-3.48995000E-02	 1.39939000E+00	 1.66670000E-01
	-3.48995000E-02	 1.59939000E+00	 1.66670000E-01
	-3.48995000E-02	 1.79939000E+00	 1.66670000E-01
	-3.48995000E-02	 1.99939000E+00	 1.66670000E-01
	-1.70673000E-01	 1.18044000E+00	 3.33337000E-01
	-1.70673000E-01	 1.38044000E+00	 3.33337000E-01
	-1.70673000E-01	 1.58044000E+00	 3.33337000E-01
	-1.70673000E-01	 1.78044000E+00	 3.33337000E-01
	-1.70673000E-01	 1.98044000E+00	 3.33337000E-01
	-1.39173000E-01	 1.19027000E+00	 6.66670000E-01
	-1.39173000E-01	 1.39027000E+00	 6.66670000E-01
	-1.39173000E-01	 1.59027000E+00	 6.66670000E-01
	-1.39173000E-01	 1.79027000E+00	 6.66670000E-01
	-1.39173000E-01	 1.99027000E+00	 6.66670000E-01
	-1.04528000E-01	 1.19452000E+00	 5.00003000E-01
	-1.04528000E-01	 1.39452000E+00	 5.00003000E-01
	-1.04528000E-01	 1.59452000E+00	 5.00003000E-01
	-1.04528000E-01	 1.79452000E+00	 5.00003000E-01
	-1.04528000E-01	 1.99452000E+00	 5.00003000E-01
	-6.97565000E-02	 1.19756000E+00	 3.33337000E-01
	-6.97565000E-02	 1.39756000E+00	 3.33337000E-01
	-6.97565000E-02	 1.59756000E+00	 3.33337000E-01
	-6.97565000E-02	 1.79756000E+00	 3.33337000E-01
	-6.97565000E-02	 1.99756000E+00	 3.33337000E-01
	 7.34788000E-17	 1.20000000E+00	 0.00000000E+00
	 8.57253000E-17	 1.40000000E+00	 0.00000000E+00
	 9.79717000E-17	 1.60000000E+00	 0.00000000E+00
	 1.10218000E-16	 1.80000000E+00	 0.00000000E+00
	 1.22465000E-16	 2.00000000E+00	 0.00000000E+00
	-1.95392000E-02	 1.19499000E+00	 3.33337000E-01
	-1.95392000E-02	 1.39499000E+00	 3.33337000E-01
[...]
POINT_DATA 1720
FIELD U 1
	U 3 1720 double
		 4.42023000E-05	 6.47796000E-04	 2.01075000E-04
		-1.90472000E-03	 4.46870000E-03	 1.12069000E-02
		-5.31959000E-04	 2.50615000E-04	-1.41252000E-06
		 3.30879000E-04	 3.72603000E-05	-2.46365000E-06
		-1.22450000E-04	 1.21853000E-03	 1.03730000E-03
		-7.93170000E-04	 3.79918000E-04	-1.27109000E-05
		 6.87072000E-05	 3.84644000E-04	-2.19026000E-05
		 4.16598000E-04	 7.11422000E-06	-9.70129000E-06
		-1.05192000E-03	 5.32059000E-04	-5.17773000E-07
		-2.60314000E-04	 2.07620000E-04	 2.46365000E-06
		 2.35098000E-05	 7.77337000E-04	-1.12291000E-04
		 5.53363000E-04	 1.98940000E-04	 1.41252000E-06
		-5.44888000E-04	 2.96148000E-03	 2.17244000E-03
		 1.09491000E-07	 1.39392000E-03	 2.55689000E-04
		 8.29499000E-04	 2.92213000E-04	 1.27109000E-05
		-1.11637000E-03	 4.61061000E-03	 3.67100000E-03
		-1.39487000E-04	 2.76828000E-03	 1.36430000E-03
		-1.32754000E-03	 5.33278000E-03	 5.62323000E-03
		-1.22273000E-03	 7.03188000E-03	 8.46265000E-03
		-2.62097000E-04	 3.61946000E-04	 5.34035000E-05
		-8.55360000E-04	 9.17521000E-03	 1.18889000E-02
		-3.09060000E-04	 3.61360000E-03	 2.35707000E-03
		-1.35068000E-04	 3.97737000E-03	 3.48583000E-03
		-6.86681000E-04	 4.46102000E-03	 3.87549000E-03
		-1.08490000E-03	 5.83709000E-03	 5.80536000E-03
		-9.89377000E-04	 7.48889000E-03	 8.52283000E-03
		-6.39267000E-04	 9.39971000E-03	 1.18582000E-02
		-3.80093000E-04	 1.62150000E-03	 1.96760000E-03
		-8.05679000E-04	 2.07918000E-03	 3.42618000E-03
		 4.41265000E-04	-7.06036000E-05	-5.34035000E-05
		-1.29020000E-03	 2.80153000E-03	 5.27631000E-03
		-1.57941000E-03	 3.60170000E-03	 7.82877000E-03
		-8.90859000E-04	 5.32596000E-03	 5.53300000E-03
		-1.77932000E-03	 4.55503000E-03	 1.10323000E-02
		-2.34779000E-04	 9.65840000E-04	 1.48182000E-03
		-2.99610000E-04	 2.89549000E-04	 9.70129000E-06
		-5.24047000E-04	 1.69237000E-03	 3.05303000E-03
		-6.55520000E-05	 2.62992000E-03	 2.03840000E-03
		-1.13161000E-03	 2.36577000E-03	 4.85904000E-03
		-1.32703000E-03	 3.52121000E-03	 7.27804000E-03
		-8.44273000E-04	 7.52931000E-03	 8.35124000E-03
		-1.57078000E-03	 4.50882000E-03	 1.02100000E-02
		-4.41500000E-04	 1.42792000E-03	 1.65656000E-03
		-5.51503000E-04	 9.39028000E-03	 1.15691000E-02
		 1.12004000E-03	 3.67598000E-04	 5.17773000E-07
		-9.80380000E-04	 2.32644000E-03	 3.44710000E-03
		-1.29850000E-03	 2.66792000E-03	 5.17811000E-03
		-1.72142000E-03	 3.55059000E-03	 7.89005000E-03
		-1.02535000E-03	 5.67426000E-04	 3.35338000E-03
		-1.06210000E-03	-1.25842000E-03	 3.41816000E-03
		-9.76098000E-04	-3.71717000E-03	 3.68845000E-03
		-4.19651000E-04	 3.45487000E-04	 1.53212000E-03
		-3.88958000E-04	-7.51834000E-04	 1.58295000E-03
		-2.17885000E-04	-2.40811000E-03	 2.03509000E-03
		-2.87881000E-03	-2.79331000E-04	 9.20193000E-03
		-4.29876000E-03	-5.37312000E-03	 8.60879000E-03
		-5.51906000E-03	-9.11598000E-03	 9.03236000E-03
		-2.19847000E-03	-4.02868000E-04	 6.56140000E-03
		-3.18235000E-03	-4.69820000E-03	 6.27475000E-03
		-4.21282000E-03	-8.69097000E-03	 6.66022000E-03
		-1.54793000E-03	-4.80224000E-04	 4.45959000E-03
		-2.07966000E-03	-3.77823000E-03	 4.38762000E-03
		-2.74089000E-03	-7.11591000E-03	 4.53888000E-03
		-8.42169000E-04	-5.10313000E-04	 2.77006000E-03
		-1.13040000E-03	-3.11148000E-03	 2.74983000E-03
		-1.54159000E-03	-5.93115000E-03	 3.02882000E-03
		 6.53427000E-05	 2.11665000E-04	 2.34125000E-05
		 4.40718000E-04	 1.40883000E-04	 2.38458000E-05
		 8.96858000E-04	-4.76859000E-05	 2.17585000E-05
		-3.52938000E-04	-3.20102000E-04	 1.30720000E-03
		-4.55467000E-04	-1.77196000E-03	 1.36383000E-03
		-5.60436000E-04	-3.48269000E-03	 1.98969000E-03
		-3.04592000E-03	 2.74499000E-04	 1.05351000E-02
		-4.39948000E-03	-4.19769000E-03	 1.03085000E-02
		-5.75140000E-03	-9.17282000E-03	 1.03339000E-02
		-2.37271000E-03	 1.75140000E-04	 7.51121000E-03
		-3.26433000E-03	-3.50803000E-03	 7.46096000E-03
		-4.09508000E-03	-7.68509000E-03	 7.67455000E-03
		-1.66510000E-03	 1.20172000E-04	 5.05802000E-03
		-2.12511000E-03	-2.84291000E-03	 5.13743000E-03
		-2.54702000E-03	-6.27535000E-03	 5.47104000E-03
		 1.54014000E-04	-3.00457000E-04	-6.96265000E-05
		-1.28339000E-04	-5.60403000E-04	-5.17751000E-05
		-8.43528000E-04	-8.76844000E-04	 1.16061000E-06
		-9.77950000E-04	 6.86392000E-05	 3.19845000E-03
		-1.15270000E-03	-2.12897000E-03	 3.28593000E-03
		-1.31930000E-03	-4.74791000E-03	 3.64628000E-03
		-4.04403000E-04	 3.17861000E-05	 1.77295000E-03
		-3.78900000E-04	-1.66902000E-03	 1.86758000E-03
		-2.85880000E-04	-3.75967000E-03	 2.23012000E-03
		 1.03551000E-04	 3.21360000E-04	 6.96265000E-05
		 4.87014000E-04	 3.05516000E-04	 5.17751000E-05
		 1.21649000E-03	 2.35577000E-05	-1.16061000E-06
		 3.99044000E-05	 1.28175000E-04	 8.34779000E-06
		 3.44497000E-04	 5.45292000E-05	 1.19862000E-05
		 5.93631000E-04	-5.39833000E-05	 1.88085000E-05
		 1.03465000E-04	-1.95874000E-04	-2.34125000E-05
		-2.12016000E-04	-4.11254000E-04	-2.38458000E-05
		-6.67893000E-04	-6.00455000E-04	-2.17585000E-05
		 1.07182000E-04	 1.05407000E-05	-6.34466000E-06
		 1.62053000E-04	-3.65080000E-04	-2.41218000E-05
		 1.84820000E-04	-7.60746000E-04	-1.15553000E-04
		-9.42211000E-05	 2.09566000E-05	 8.97907000E-04
		-2.53190000E-06	-1.22927000E-03	 9.80221000E-04
		 1.33450000E-04	-2.80748000E-03	 1.30490000E-03
		 6.24167000E-05	-1.18850000E-04	-8.34779000E-06
		-2.05038000E-04	-2.82154000E-04	-1.19862000E-05
		-4.57932000E-04	-3.81588000E-04	-1.88085000E-05
		 8.96073000E-05	 1.39100000E-05	 1.83875000E-04
		 1.77513000E-04	-6.29380000E-04	 1.89669000E-04
		 2.51794000E-04	-1.37748000E-03	 2.43448000E-04
		-3.05605000E-03	 5.23322000E-04	 1.07948000E-02
		-4.26018000E-03	-3.29073000E-03	 1.09092000E-02
		-5.30080000E-03	-7.55211000E-03	 1.08467000E-02
		-2.38912000E-03	 4.74159000E-04	 7.67728000E-03
		-3.13311000E-03	-2.52390000E-03	 7.77741000E-03
		-3.66553000E-03	-5.84815000E-03	 7.80378000E-03
		-1.63086000E-03	 3.87987000E-04	 4.97122000E-03
		-2.01754000E-03	-1.83203000E-03	 5.13843000E-03
		-2.13220000E-03	-4.39134000E-03	 5.41118000E-03
		-1.12300000E-03	 2.65916000E-03	 3.79600000E-03
		-1.19374000E-03	 1.00041000E-03	 4.11011000E-03
		-4.13233000E-04	 1.19534000E-03	 2.92301000E-03
		-7.92567000E-04	 3.19176000E-03	 4.28025000E-03
		-2.17388000E-03	-2.85577000E-03	 5.11813000E-03
		-2.04698000E-03	-5.61508000E-04	 4.90797000E-03
		-1.53423000E-03	 9.92801000E-04	 4.76666000E-03
		-1.31463000E-03	 4.89686000E-03	 3.51323000E-03
		 1.44393000E-04	 3.38605000E-03	 3.09482000E-03
		-7.66456000E-04	-1.29282000E-03	 2.56501000E-03
		-1.35868000E-03	-7.85228000E-03	 2.02076000E-03
		-9.71591000E-04	-4.47624000E-03	 2.30940000E-03
		-1.18829000E-03	 4.69094000E-03	 4.89740000E-03
		-2.67934000E-03	-7.78289000E-03	 3.72883000E-03
		-2.01843000E-03	-4.44886000E-03	 3.97133000E-03
		-1.50705000E-03	-1.36565000E-03	 4.00808000E-03
		-1.05266000E-03	-2.86611000E-03	 3.85730000E-03
		-1.16498000E-03	-5.57492000E-04	 3.91378000E-03
		-1.14415000E-03	 1.04202000E-03	 3.95525000E-03
		-1.14035000E-03	 2.54377000E-03	 4.88767000E-03
		-6.36230000E-03	-4.46041000E-03	 1.85989000E-02
		-8.20301000E-03	-5.28664000E-03	 2.73900000E-02
		-9.77551000E-03	-5.81139000E-03	 3.67442000E-02
		-1.11191000E-02	-6.08735000E-03	 4.61765000E-02
		-1.23155000E-02	-6.17570000E-03	 5.53206000E-02
		-1.29426000E-04	 1.24206000E-02	 1.91903000E-02
		 6.69674000E-05	 1.43670000E-02	 2.78121000E-02
		 7.14527000E-05	 1.54472000E-02	 3.70216000E-02
		-1.49690000E-04	 1.58744000E-02	 4.63480000E-02
		-5.31890000E-04	 1.59642000E-02	 5.54914000E-02
		-2.04173000E-03	 6.08435000E-03	 1.74355000E-02
		-2.59069000E-03	 7.20090000E-03	 2.58534000E-02
		-3.16853000E-03	 7.83807000E-03	 3.49173000E-02
		-3.81046000E-03	 8.10197000E-03	 4.41492000E-02
		-4.49241000E-03	 8.15839000E-03	 5.31874000E-02
		-8.19256000E-03	-9.93208000E-03	 1.81716000E-02
		-1.06027000E-02	-1.14839000E-02	 2.66520000E-02
		-1.25946000E-02	-1.23879000E-02	 3.57755000E-02
		-1.42132000E-02	-1.27806000E-02	 4.50455000E-02
		-1.55382000E-02	-1.28795000E-02	 5.41385000E-02
		-6.36836000E-03	-6.20398000E-03	 1.50227000E-02
		-8.15506000E-03	-6.80440000E-03	 2.29146000E-02
		-9.68327000E-03	-7.14317000E-03	 3.16413000E-02
		-1.09972000E-02	-7.29003000E-03	 4.06730000E-02
		-1.21701000E-02	-7.33681000E-03	 4.96645000E-02
		-8.30605000E-03	-1.12522000E-02	 1.54048000E-02
		-1.05791000E-02	-1.25910000E-02	 2.32353000E-02
		-1.24646000E-02	-1.33252000E-02	 3.19101000E-02
		-1.40222000E-02	-1.35860000E-02	 4.09071000E-02
		-1.53262000E-02	-1.36273000E-02	 4.99056000E-02
		-2.20840000E-03	 6.18660000E-03	 1.86716000E-02
		-2.70421000E-03	 7.31713000E-03	 2.73998000E-02
		-3.23954000E-03	 7.97757000E-03	 3.66864000E-02
		-3.85585000E-03	 8.28609000E-03	 4.60650000E-02
		-4.52111000E-03	 8.37336000E-03	 5.51918000E-02
		-4.16082000E-03	 1.34467000E-05	 1.60035000E-02
		-5.34740000E-03	 2.59358000E-04	 2.41633000E-02
		-6.42933000E-03	 3.92381000E-04	 3.30698000E-02
		-7.43221000E-03	 4.29442000E-04	 4.22084000E-02
		-8.39188000E-03	 4.17020000E-04	 5.12049000E-02
		-8.69434000E-03	-1.14942000E-02	 1.72168000E-02
		-1.11093000E-02	-1.30668000E-02	 2.53976000E-02
		-1.30995000E-02	-1.39292000E-02	 3.42933000E-02
		-1.47171000E-02	-1.42732000E-02	 4.34135000E-02
		-1.60461000E-02	-1.43486000E-02	 5.24568000E-02
		-6.47085000E-03	-5.22039000E-03	 1.75032000E-02
		-8.27223000E-03	-5.94476000E-03	 2.59596000E-02
		-9.81379000E-03	-6.38082000E-03	 3.50599000E-02
		-1.11331000E-02	-6.59506000E-03	 4.43163000E-02
		-1.23144000E-02	-6.66404000E-03	 5.33846000E-02
		-4.30784000E-03	 5.39265000E-04	 1.79754000E-02
		-5.47076000E-03	 7.31997000E-04	 2.66119000E-02
		-6.52852000E-03	 8.37263000E-04	 3.58429000E-02
		-7.51880000E-03	 8.77680000E-04	 4.51905000E-02
		-8.47176000E-03	 8.83484000E-04	 5.42743000E-02
		-1.93603000E-04	 1.24259000E-02	 1.95756000E-02
		 3.00152000E-05	 1.43707000E-02	 2.82879000E-02
		 5.02587000E-05	 1.54530000E-02	 3.75557000E-02
		-1.61896000E-04	 1.58916000E-02	 4.69163000E-02
		-5.42221000E-04	 1.59883000E-02	 5.60838000E-02
		-4.31449000E-03	 7.81054000E-04	 1.84996000E-02
		-5.46860000E-03	 9.57673000E-04	 2.73235000E-02
		-6.52079000E-03	 1.05454000E-03	 3.67055000E-02
		-7.50755000E-03	 1.09728000E-03	 4.61681000E-02
		-8.45755000E-03	 1.10948000E-03	 5.53208000E-02
		-2.30439000E-03	 6.18611000E-03	 1.91122000E-02
		-2.75650000E-03	 7.35054000E-03	 2.80281000E-02
		-3.26153000E-03	 8.05528000E-03	 3.74705000E-02
		-3.85528000E-03	 8.41212000E-03	 4.69715000E-02
		-4.50531000E-03	 8.52510000E-03	 5.61813000E-02
		-3.35392000E-04	 1.22973000E-02	 1.97545000E-02
		-5.19966000E-05	 1.42998000E-02	 2.85840000E-02
		 1.42775000E-05	 1.54414000E-02	 3.79518000E-02
		-1.64904000E-04	 1.59324000E-02	 4.73940000E-02
		-5.31510000E-04	 1.60525000E-02	 5.66179000E-02
		 4.26805000E-04	-4.89317000E-04	-2.01075000E-04
		 4.50669000E-03	-1.81301000E-03	-1.12069000E-02
		 5.53363000E-04	 1.98940000E-04	 1.41252000E-06
		-2.07620000E-04	-2.60314000E-04	 2.46365000E-06
		 9.48218000E-04	-7.75048000E-04	-1.03730000E-03
		 8.29499000E-04	 2.92213000E-04	 1.27109000E-05
		 2.23401000E-04	-3.20568000E-04	 2.19026000E-05
		-2.89549000E-04	-2.99610000E-04	 9.70129000E-06
		 1.12004000E-03	 3.67598000E-04	 5.17773000E-07
		 3.30879000E-04	 3.72603000E-05	-2.46365000E-06
		 5.33037000E-04	-5.66284000E-04	 1.12291000E-04
		-2.50615000E-04	-5.31959000E-04	-1.41252000E-06
		 2.47938000E-03	-1.70879000E-03	-2.17244000E-03
		 9.85573000E-04	-9.85728000E-04	-2.55689000E-04
		-3.79918000E-04	-7.93170000E-04	-1.27109000E-05
		 4.04959000E-03	-2.47081000E-03	-3.67100000E-03
		 2.05610000E-03	-1.85884000E-03	-1.36430000E-03
		 4.70956000E-03	-2.83213000E-03	-5.62323000E-03
		 5.83689000E-03	-4.10769000E-03	-8.46265000E-03
		 4.41265000E-04	-7.06036000E-05	-5.34035000E-05
		 7.09269000E-03	-5.88303000E-03	-1.18889000E-02
		 2.77374000E-03	-2.33666000E-03	-2.35707000E-03
		 2.90793000E-03	-2.71692000E-03	-3.48583000E-03
		 3.63998000E-03	-2.66886000E-03	-3.87549000E-03
		 4.89459000E-03	-3.36031000E-03	-5.80536000E-03
		 5.99504000E-03	-4.59585000E-03	-8.52283000E-03
		 7.09863000E-03	-6.19457000E-03	-1.18582000E-02
		 1.41534000E-03	-8.77807000E-04	-1.96760000E-03
		 2.03990000E-03	-9.00501000E-04	-3.42618000E-03
		-3.61946000E-04	-2.62097000E-04	 5.34035000E-05
		 2.89329000E-03	-1.06867000E-03	-5.27631000E-03
		 3.66360000E-03	-1.42997000E-03	-7.82877000E-03
		 4.39596000E-03	-3.13609000E-03	-5.53300000E-03
		 4.47906000E-03	-1.96272000E-03	-1.10323000E-02
		 8.48965000E-04	-5.16938000E-04	-1.48182000E-03
		 4.16598000E-04	 7.11422000E-06	-9.70129000E-06
		 1.56724000E-03	-8.26125000E-04	-3.05303000E-03
		 1.90599000E-03	-1.81328000E-03	-2.03840000E-03
		 2.47303000E-03	-8.72683000E-04	-4.85904000E-03
		 3.42822000E-03	-1.55152000E-03	-7.27804000E-03
		 5.92102000E-03	-4.72703000E-03	-8.35124000E-03
		 4.29893000E-03	-2.07751000E-03	-1.02100000E-02
		 1.32188000E-03	-6.97506000E-04	-1.65656000E-03
		 7.02990000E-03	-6.24996000E-03	-1.15691000E-02
		-5.32059000E-04	-1.05192000E-03	-5.17773000E-07
		 2.33828000E-03	-9.51812000E-04	-3.44710000E-03
		 2.80468000E-03	-9.68328000E-04	-5.17811000E-03
		 3.72788000E-03	-1.29342000E-03	-7.89005000E-03
		 1.12626000E-03	 3.23798000E-04	-3.35338000E-03
		-1.38818000E-04	 1.64085000E-03	-3.41816000E-03
		-1.93823000E-03	 3.31864000E-03	-3.68845000E-03
		 5.41034000E-04	 5.24424000E-05	-1.53212000E-03
		-2.56592000E-04	 8.06661000E-04	-1.58295000E-03
		-1.54872000E-03	 1.85686000E-03	-2.03509000E-03
		 1.83811000E-03	 2.23314000E-03	-9.20193000E-03
		-7.59687000E-04	 6.83905000E-03	-8.60879000E-03
		-2.54341000E-03	 1.03485000E-02	-9.03236000E-03
		 1.26968000E-03	 1.83942000E-03	-6.56140000E-03
		-1.07187000E-03	 5.57239000E-03	-6.27475000E-03
		-3.16653000E-03	 9.12436000E-03	-6.66022000E-03
		 7.54986000E-04	 1.43412000E-03	-4.45959000E-03
		-1.20107000E-03	 4.14215000E-03	-4.38762000E-03
		-3.09361000E-03	 6.96981000E-03	-4.53888000E-03
		 2.34657000E-04	 9.56350000E-04	-2.77006000E-03
		-1.40083000E-03	 2.99947000E-03	-2.74983000E-03
		-3.10389000E-03	 5.28403000E-03	-3.02882000E-03
		 1.03465000E-04	-1.95874000E-04	-2.34125000E-05
		-2.12016000E-04	-4.11254000E-04	-2.38458000E-05
		-6.67893000E-04	-6.00455000E-04	-2.17585000E-05
		 2.32189000E-05	 4.75911000E-04	-1.30720000E-03
		-9.30900000E-04	 1.57503000E-03	-1.36383000E-03
		-2.06635000E-03	 2.85892000E-03	-1.98969000E-03
		 2.34789000E-03	 1.95969000E-03	-1.05351000E-02
		 1.42687000E-04	 6.07912000E-03	-1.03085000E-02
		-2.41931000E-03	 1.05530000E-02	-1.03339000E-02
		 1.80160000E-03	 1.55392000E-03	-7.51121000E-03
		-1.72317000E-04	 4.78878000E-03	-7.46096000E-03
		-2.53852000E-03	 8.32983000E-03	-7.67455000E-03
		 1.26238000E-03	 1.09243000E-03	-5.05802000E-03
		-5.07557000E-04	 3.51292000E-03	-5.13743000E-03
		-2.63633000E-03	 6.23836000E-03	-5.47104000E-03
		-3.21360000E-04	 1.03551000E-04	 6.96265000E-05
		-3.05516000E-04	 4.87014000E-04	 5.17751000E-05
		-2.35577000E-05	 1.21649000E-03	-1.16061000E-06
		 7.40050000E-04	 6.42980000E-04	-3.19845000E-03
		-6.90322000E-04	 2.32049000E-03	-3.28593000E-03
		-2.42439000E-03	 4.29016000E-03	-3.64628000E-03
		 3.08432000E-04	 2.63480000E-04	-1.77295000E-03
		-9.12253000E-04	 1.44810000E-03	-1.86758000E-03
		-2.45634000E-03	 2.86064000E-03	-2.23012000E-03
		 1.54014000E-04	-3.00457000E-04	-6.96265000E-05
		-1.28339000E-04	-5.60403000E-04	-5.17751000E-05
		-8.43528000E-04	-8.76844000E-04	 1.16061000E-06
		 6.24167000E-05	-1.18850000E-04	-8.34779000E-06
		-2.05038000E-04	-2.82154000E-04	-1.19862000E-05
		-4.57932000E-04	-3.81588000E-04	-1.88085000E-05
		-2.11665000E-04	 6.53427000E-05	 2.34125000E-05
		-1.40883000E-04	 4.40718000E-04	 2.38458000E-05
		 4.76859000E-05	 8.96858000E-04	 2.17585000E-05
		-6.83357000E-05	-8.32426000E-05	 6.34466000E-06
		-3.72740000E-04	 1.43562000E-04	 2.41218000E-05
		-6.68616000E-04	 4.07241000E-04	 1.15553000E-04
		 8.14429000E-05	 5.18058000E-05	-8.97907000E-04
		-8.67434000E-04	 8.71014000E-04	-9.80221000E-04
		-2.07955000E-03	 1.89082000E-03	-1.30490000E-03
		-1.28175000E-04	 3.99044000E-05	 8.34779000E-06
		-5.45292000E-05	 3.44497000E-04	 1.19862000E-05
		 5.39833000E-05	 5.93631000E-04	 1.88085000E-05
		-5.35261000E-05	-7.31978000E-05	-1.83875000E-04
		-5.70559000E-04	 3.19518000E-04	-1.89669000E-04
		-1.15207000E-03	 7.95983000E-04	-2.43448000E-04
		 2.53100000E-03	 1.79091000E-03	-1.07948000E-02
		 6.85504000E-04	 5.33930000E-03	-1.09092000E-02
		-1.59192000E-03	 9.08838000E-03	-1.08467000E-02
		 2.02465000E-03	 1.35408000E-03	-7.67728000E-03
		 4.30772000E-04	 4.00011000E-03	-7.77741000E-03
		-1.54334000E-03	 6.72719000E-03	-7.80378000E-03
		 1.42754000E-03	 8.78846000E-04	-4.97122000E-03
		 1.31180000E-04	 2.72206000E-03	-5.13843000E-03
		-1.59745000E-03	 4.61284000E-03	-5.41118000E-03
		 2.67439000E-03	-1.08622000E-03	-3.79600000E-03
		 1.55150000E-03	 1.36705000E-04	-4.11011000E-03
		 1.13744000E-03	-5.53036000E-04	-2.92301000E-03
		 2.81734000E-03	-1.69649000E-03	-4.28025000E-03
		-4.82163000E-04	 3.55650000E-03	-5.11813000E-03
		 1.05039000E-03	 1.84448000E-03	-4.90797000E-03
		 1.78688000E-03	 3.82847000E-04	-4.76666000E-03
		 4.39219000E-03	-2.53302000E-03	-3.51323000E-03
		 2.29220000E-03	-2.49640000E-03	-3.09482000E-03
		-3.72194000E-04	 1.45613000E-03	-2.56501000E-03
		-4.59167000E-03	 6.51314000E-03	-2.02076000E-03
		-2.47816000E-03	 3.85220000E-03	-2.30940000E-03
		 4.15724000E-03	-2.47674000E-03	-4.89740000E-03
		-3.60876000E-03	 7.39791000E-03	-3.72883000E-03
		-1.71857000E-03	 4.57307000E-03	-3.97133000E-03
		 9.99853000E-05	 2.03130000E-03	-4.00808000E-03
		-1.28230000E-03	 2.77099000E-03	-3.85730000E-03
		 4.29559000E-04	 1.21797000E-03	-3.91378000E-03
		 1.54586000E-03	 7.22176000E-05	-3.95525000E-03
		 2.60506000E-03	-9.92367000E-04	-4.88767000E-03
		 1.34484000E-03	 7.65281000E-03	-1.85989000E-02
		 2.06218000E-03	 9.53862000E-03	-2.73900000E-02
		 2.80306000E-03	 1.10216000E-02	-3.67442000E-02
		 3.55797000E-03	 1.21668000E-02	-4.61765000E-02
		 4.34149000E-03	 1.30753000E-02	-5.53206000E-02
		 8.87423000E-03	-8.69119000E-03	-1.91903000E-02
		 1.01116000E-02	-1.02063000E-02	-2.78121000E-02
		 1.08723000E-02	-1.09734000E-02	-3.70216000E-02
		 1.13307000E-02	-1.11190000E-02	-4.63480000E-02
		 1.16645000E-02	-1.09123000E-02	-5.54914000E-02
		 5.74600000E-03	-2.85856000E-03	-1.74355000E-02
		 6.92370000E-03	-3.25991000E-03	-2.58534000E-02
		 7.78284000E-03	-3.30186000E-03	-3.49173000E-02
		 8.42336000E-03	-3.03455000E-03	-4.41492000E-02
		 8.94546000E-03	-2.59224000E-03	-5.31874000E-02
		-1.23003000E-03	 1.28161000E-02	-1.81716000E-02
		-6.23140000E-04	 1.56176000E-02	-2.66520000E-02
		 1.46175000E-04	 1.76653000E-02	-3.57755000E-02
		 1.01302000E-03	 1.90875000E-02	-4.50455000E-02
		 1.88003000E-03	 2.00943000E-02	-5.41385000E-02
		 1.16234000E-04	 8.88999000E-03	-1.50227000E-02
		 9.55063000E-04	 1.05779000E-02	-2.29146000E-02
		 1.79612000E-03	 1.18981000E-02	-3.16413000E-02
		 2.62134000E-03	 1.29310000E-02	-4.06730000E-02
		 3.41768000E-03	 1.37935000E-02	-4.96645000E-02
		-2.08324000E-03	 1.38298000E-02	-1.54048000E-02
		-1.42265000E-03	 1.63838000E-02	-2.32353000E-02
		-6.08583000E-04	 1.82361000E-02	-3.19101000E-02
		 3.08426000E-04	 1.95219000E-02	-4.09071000E-02
		 1.20131000E-03	 2.04733000E-02	-4.99056000E-02
		 5.93615000E-03	-2.81301000E-03	-1.86716000E-02
		 7.08615000E-03	-3.26182000E-03	-2.73998000E-02
		 7.93170000E-03	-3.35030000E-03	-3.66864000E-02
		 8.58564000E-03	-3.13265000E-03	-4.60650000E-02
		 9.11777000E-03	-2.72396000E-03	-5.51918000E-02
		 2.95165000E-03	 2.93263000E-03	-1.60035000E-02
		 3.96457000E-03	 3.59779000E-03	-2.41633000E-02
		 4.82368000E-03	 4.26877000E-03	-3.30698000E-02
		 5.55903000E-03	 4.95171000E-03	-4.22084000E-02
		 6.22883000E-03	 5.63908000E-03	-5.12049000E-02
		-1.97983000E-03	 1.42755000E-02	-1.72168000E-02
		-1.38416000E-03	 1.70951000E-02	-2.53976000E-02
		-5.86725000E-04	 1.91122000E-02	-3.42933000E-02
		 3.13864000E-04	 2.04992000E-02	-4.34135000E-02