# vtk DataFile Version 3.0

ASCII
DATASET UNSTRUCTURED_GRID

POINTS 1720 double
	-1.27552000E-02	 3.65262000E-01	 1.66670000E-01
	 1.51975000E-02	 9.95069000E-01	 1.66670000E-01
	 9.56709000E-02	 2.30970000E-01	 0.00000000E+00
	-1.03673000E-01	 2.27490000E-01	 1.66670000E-01
	-1.74497000E-02	 4.99695000E-01	 1.66670000E-01
	 1.43506000E-01	 3.46455000E-01	 0.00000000E+00
	-8.72514000E-03	 2.49855000E-01	 1.66670000E-01
	-1.55510000E-01	 3.41235000E-01	 1.66670000E-01
	 1.91342000E-01	 4.61940000E-01	 0.00000000E+00
	 8.75518000E-02	 2.34168000E-01	 1.66670000E-01
	 1.53086000E-17	 2.50008000E-01	 0.00000000E+00
	-9.56709000E-02	 2.30970000E-01	 0.00000000E+00
	 1.10401000E-01	 5.88124000E-01	 0.00000000E+00
	-5.87745000E-17	 3.65485000E-01	 0.00000000E+00
	-1.43506000E-01	 3.46455000E-01	 0.00000000E+00
	 1.12583000E-01	 6.88100000E-01	 0.00000000E+00
	-8.04061000E-17	 5.00000000E-01	 0.00000000E+00
	 8.81865000E-02	 8.00147000E-01	-3.79961000E-04
	 3.91018000E-02	 8.94866000E-01	 0.00000000E+00
	 1.75104000E-01	 4.68336000E-01	 1.66670000E-01
	 3.25615000E-02	 9.94652000E-01	 0.00000000E+00
	-9.64874000E-17	 6.00000000E-01	 0.00000000E+00
	-1.12583000E-01	 6.88100000E-01	 0.00000000E+00
	-1.12569000E-16	 7.00000000E-01	 0.00000000E+00
	 4.89859000E-17	 8.00000000E-01	 0.00000000E+00
	 5.51091000E-17	 9.00000000E-01	 0.00000000E+00
	 6.12323000E-17	 1.00000000E+00	 0.00000000E+00
	-2.09397000E-02	 5.99634000E-01	 1.66670000E-01
	-2.44296000E-02	 6.99574000E-01	 1.66670000E-01
	-2.07347000E-01	 4.54981000E-01	 1.66670000E-01
	-2.79196000E-02	 7.99513000E-01	 1.66670000E-01
	-3.14095000E-02	 8.99452000E-01	 1.66670000E-01
	-3.17591000E-02	 7.95756000E-01	 0.00000000E+00
	-3.48995000E-02	 9.99391000E-01	 1.66670000E-01
	-1.30859000E-01	 5.83913000E-01	 1.66670000E-01
	 1.31328000E-01	 3.51252000E-01	 1.66670000E-01
	-1.36529000E-01	 6.83752000E-01	 1.66670000E-01
	-1.10401000E-01	 5.88124000E-01	 0.00000000E+00
	-1.00993000E-01	 7.89959000E-01	 1.66670000E-01
	-1.01429000E-01	 8.89959000E-01	 1.66670000E-01
	-2.34783000E-02	 8.95412000E-01	 0.00000000E+00
	-1.01866000E-01	 9.89958000E-01	 1.66670000E-01
	 8.98088000E-02	 5.91619000E-01	 1.66670000E-01
	-1.51975000E-02	 9.95069000E-01	 0.00000000E+00
	-1.91342000E-01	 4.61940000E-01	 0.00000000E+00
	 8.84998000E-02	 6.91610000E-01	 1.66670000E-01
	 3.17591000E-02	 7.95756000E-01	 1.66670000E-01
	 2.34783000E-02	 8.95412000E-01	 1.66670000E-01
	 6.43091000E-02	 6.94278000E-01	 3.33337000E-01
	 4.00400000E-02	 6.96099000E-01	 5.00003000E-01
	 1.57221000E-02	 6.97072000E-01	 6.66670000E-01
	 6.91069000E-02	 5.94393000E-01	 3.33337000E-01
	 4.83208000E-02	 5.96442000E-01	 5.00003000E-01
	 2.74758000E-02	 5.97766000E-01	 6.66670000E-01
	-1.70673000E-01	 9.80440000E-01	 3.33337000E-01
	-2.21752000E-01	 9.70164000E-01	 5.00003000E-01
	-2.12967000E-01	 9.70344000E-01	 6.40408000E-01
	-1.63263000E-01	 8.80715000E-01	 3.33337000E-01
	-2.09132000E-01	 8.70964000E-01	 5.00003000E-01
	-2.28435000E-01	 8.70398000E-01	 6.68452000E-01
	-1.55852000E-01	 7.80990000E-01	 3.33337000E-01
	-1.96512000E-01	 7.71763000E-01	 5.00003000E-01
	-2.23326000E-01	 7.64435000E-01	 6.66670000E-01
	-1.60308000E-01	 6.78571000E-01	 3.33337000E-01
	-1.83892000E-01	 6.72563000E-01	 5.00003000E-01
	-2.07252000E-01	 6.65735000E-01	 6.66670000E-01
	 1.18989000E-01	 3.55621000E-01	 3.33337000E-01
	 1.06506000E-01	 3.59557000E-01	 5.00003000E-01
	 9.38925000E-02	 3.63055000E-01	 6.66670000E-01
	-1.51158000E-01	 5.78990000E-01	 3.33337000E-01
	-1.71272000E-01	 5.73362000E-01	 5.00003000E-01
	-1.91178000E-01	 5.67036000E-01	 6.66670000E-01
	-6.97565000E-02	 9.97564000E-01	 3.33337000E-01
	-1.04528000E-01	 9.94522000E-01	 5.00003000E-01
	-1.39173000E-01	 9.90268000E-01	 6.66670000E-01
	-6.27808000E-02	 8.97808000E-01	 3.33337000E-01
	-9.40756000E-02	 8.95070000E-01	 5.00003000E-01
	-1.25256000E-01	 8.91241000E-01	 6.66670000E-01
	-5.58052000E-02	 7.98051000E-01	 3.33337000E-01
	-8.36228000E-02	 7.95618000E-01	 5.00003000E-01
	-1.11338000E-01	 7.92214000E-01	 6.66670000E-01
	-2.23099000E-01	 4.47467000E-01	 3.33337000E-01
	-2.38579000E-01	 4.39409000E-01	 5.00003000E-01
	-2.53769000E-01	 4.30815000E-01	 6.66670000E-01
	-4.88295000E-02	 6.98295000E-01	 3.33337000E-01
	-7.31699000E-02	 6.96165000E-01	 5.00003000E-01
	-9.74212000E-02	 6.93188000E-01	 6.66670000E-01
	-4.18539000E-02	 5.98538000E-01	 3.33337000E-01
	-6.27171000E-02	 5.96713000E-01	 5.00003000E-01
	-8.35039000E-02	 5.94161000E-01	 6.66670000E-01
	 1.58652000E-01	 4.74162000E-01	 3.33337000E-01
	 1.42008000E-01	 4.79410000E-01	 5.00003000E-01
	 1.25190000E-01	 4.84074000E-01	 6.66670000E-01
	 7.93262000E-02	 2.37081000E-01	 3.33337000E-01
	 7.10038000E-02	 2.39705000E-01	 5.00003000E-01
	 6.25950000E-02	 2.42037000E-01	 6.66670000E-01
	-1.67324000E-01	 3.35600000E-01	 3.33337000E-01
	-1.78935000E-01	 3.29556000E-01	 5.00003000E-01
	-1.90327000E-01	 3.23111000E-01	 6.66670000E-01
	-1.74397000E-02	 2.49399000E-01	 3.33337000E-01
	-2.61329000E-02	 2.48638000E-01	 5.00003000E-01
	-3.47943000E-02	 2.47575000E-01	 6.66670000E-01
	-3.48782000E-02	 4.98782000E-01	 3.33337000E-01
	-5.22642000E-02	 4.97261000E-01	 5.00003000E-01
	-6.95866000E-02	 4.95134000E-01	 6.66670000E-01
	-1.11549000E-01	 2.23734000E-01	 3.33337000E-01
	-1.19290000E-01	 2.19704000E-01	 5.00003000E-01
	-1.26885000E-01	 2.15407000E-01	 6.66670000E-01
	-2.54949000E-02	 3.64595000E-01	 3.33337000E-01
	-3.82036000E-02	 3.63483000E-01	 5.00003000E-01
	-5.08657000E-02	 3.61928000E-01	 6.66670000E-01
	-1.95392000E-02	 9.94993000E-01	 3.33337000E-01
	-1.95392000E-02	 9.94993000E-01	 5.00003000E-01
	-6.53167000E-02	 9.91143000E-01	 6.44012000E-01
	-7.78541000E-03	 8.95686000E-01	 3.33337000E-01
	-7.78541000E-03	 8.95686000E-01	 5.00003000E-01
	-3.99021000E-02	 8.87826000E-01	 6.53001000E-01
	 3.96833000E-03	 7.96379000E-01	 3.33337000E-01
	 3.96833000E-03	 7.96379000E-01	 5.00003000E-01
	 3.96833000E-03	 7.96379000E-01	 6.66670000E-01
	 1.88491000E-01	 6.92919000E-01	 1.66670000E-01
	-2.42037000E-01	 7.77922000E-01	 1.66670000E-01
	-2.36368000E-01	 6.78083000E-01	 1.66670000E-01
	-2.14740000E-01	 7.85895000E-01	 0.00000000E+00
	 1.03275000E-01	 8.08133000E-01	 6.66670000E-01
	 1.31416000E-01	 8.04036000E-01	 5.00003000E-01
	 1.59396000E-01	 7.98960000E-01	 3.33337000E-01
	 2.12559000E-01	 6.85919000E-01	 0.00000000E+00
	-2.12559000E-01	 6.85919000E-01	 0.00000000E+00
	-2.59888000E-01	 6.69421000E-01	 3.33337000E-01
	-3.05952000E-01	 6.49661000E-01	 6.66670000E-01
	-2.83093000E-01	 6.59943000E-01	 5.00003000E-01
	 2.14740000E-01	 7.85895000E-01	 0.00000000E+00
	-3.22026000E-01	 7.48361000E-01	 6.66670000E-01
	-2.95713000E-01	 7.59143000E-01	 5.00003000E-01
	-2.69039000E-01	 7.69001000E-01	 3.33337000E-01
	 1.15029000E-01	 7.08826000E-01	 6.66670000E-01
	 1.39697000E-01	 7.04380000E-01	 5.00003000E-01
	 1.64194000E-01	 6.99075000E-01	 3.33337000E-01
	 1.87182000E-01	 7.92911000E-01	 1.66670000E-01
	-1.95392000E-02	 1.19499000E+00	 5.00003000E-01
	-1.95392000E-02	 1.39499000E+00	 5.00003000E-01
	-1.95392000E-02	 1.59499000E+00	 5.00003000E-01
	-1.95392000E-02	 1.79499000E+00	 5.00003000E-01
	-1.95392000E-02	 1.99499000E+00	 5.00003000E-01
	-1.51975000E-02	 1.19507000E+00	 0.00000000E+00
	-1.51975000E-02	 1.39507000E+00	 0.00000000E+00
	-1.51975000E-02	 1.59507000E+00	 0.00000000E+00
	-1.51975000E-02	 1.79507000E+00	 0.00000000E+00
	-1.51975000E-02	 1.99507000E+00	 0.00000000E+00
	-1.01866000E-01	 1.18996000E+00	 1.66670000E-01
	-1.01866000E-01	 1.38996000E+00	 1.66670000E-01
	-1.01866000E-01	 1.58996000E+00	 1.66670000E-01
	-1.01866000E-01	 1.78996000E+00	 1.66670000E-01
	-1.01866000E-01	 1.98996000E+00	 1.66670000E-01
	-6.53167000E-02	 1.19114000E+00	 6.44012000E-01
	-6.53167000E-02	 1.39114000E+00	 6.44012000E-01
	-6.53167000E-02	 1.59114000E+00	 6.44012000E-01
	-6.53167000E-02	 1.79114000E+00	 6.44012000E-01
	-6.53167000E-02	 1.99114000E+00	 6.44012000E-01
	-2.21752000E-01	 1.17016000E+00	 5.00003000E-01
	-2.21752000E-01	 1.37016000E+00	 5.00003000E-01
	-2.21752000E-01	 1.57016000E+00	 5.00003000E-01
	-2.21752000E-01	 1.77016000E+00	 5.00003000E-01
	-2.21752000E-01	 1.97016000E+00	 5.00003000E-01
	-2.12967000E-01	 1.17034000E+00	 6.40408000E-01
	-2.12967000E-01	 1.37034000E+00	 6.40408000E-01
	-2.12967000E-01	 1.57034000E+00	 6.40408000E-01
	-2.12967000E-01	 1.77034000E+00	 6.40408000E-01
	-2.12967000E-01	 1.97034000E+00	 6.40408000E-01
	-3.48995000E-02	 1.19939000E+00	 1.66670000E-01
	-3.48995000E-02	 1.39939000E+00	 1.66670000E-01
	-3.48995000E-02	 1.59939000E+00	 1.66670000E-01
	-3.48995000E-02	 1.79939000E+00	 1.66670000E-01
	-3.48995000E-02	 1.99939000E+00	 1.66670000E-01
	-1.70673000E-01	 1.18044000E+00	 3.33337000E-01
	-1.70673000E-01	 1.38044000E+00	 3.33337000E-01
	-1.70673000E-01	 1.58044000E+00	 3.33337000E-01
	-1.70673000E-01	 1.78044000E+00	 3.33337000E-01
	-1.70673000E-01	 1.98044000E+00	 3.33337000E-01
	-1.39173000E-01	 1.19027000E+00	 6.66670000E-01
	-1.39173000E-01	 1.39027000E+00	 6.66670000E-01
	-1.39173000E-01	 1.59027000E+00	 6.66670000E-01
	-1.39173000E-01	 1.79027000E+00	 6.66670000E-01
	-1.39173000E-01	 1.99027000E+00	 6.66670000E-01
	-1.04528000E-01	 1.19452000E+00	 5.00003000E-01
	-1.04528000E-01	 1.39452000E+00	 5.00003000E-01
	-1.04528000E-01	 1.59452000E+00	 5.00003000E-01
	-1.04528000E-01	 1.79452000E+00	 5.00003000E-01
	-1.04528000E-01	 1.99452000E+00	 5.00003000E-01
	-6.97565000E-02	 1.19756000E+00	 3.33337000E-01
	-6.97565000E-02	 1.39756000E+00	 3.33337000E-01
	-6.97565000E-02	 1.59756000E+00	 3.33337000E-01
	-6.97565000E-02	 1.79756000E+00	 3.33337000E-01
	-6.97565000E-02	 1.99756000E+00	 3.33337000E-01
	 7.34788000E-17	 1.20000000E+00	 0.00000000E+00
	 8.57253000E-17	 1.40000000E+00	 0.00000000E+00
	 9.79717000E-17	 1.60000000E+00	 0.00000000E+00
	 1.10218000E-16	 1.80000000E+00	 0.00000000E+00
	 1.22465000E-16	 2.00000000E+00	 0.00000000E+00
	-1.95392000E-02	 1.19499000E+00	 3.33337000E-01
	-1.95392000E-02	 1.39499000E+00	 3.33337000E-01
[...]
POINT_DATA 1720
FIELD U 1
	U 3 1720 double
		 2.30204000E-03	 5.62113000E-03	-1.30283000E-03
		 2.87543000E-03	 1.04401000E-02	 1.23757000E-03
		-2.87074000E-03	 4.37267000E-03	-3.68856000E-03
		 4.45252000E-03	-2.39903000E-03	-6.92702000E-04
		-3.10504000E-03	 3.77965000E-03	-2.33723000E-03
		-1.14196000E-03	 4.78874000E-03	-1.07441000E-03
		 4.64675000E-03	 3.28659000E-03	-1.10324000E-03
		 6.60857000E-03	-1.36555000E-03	 1.62919000E-03
		-1.30603000E-03	 2.67916000E-03	 4.49313000E-03
		-1.45204000E-03	 4.84478000E-03	 6.92702000E-04
		 1.70149000E-03	 3.25262000E-03	-8.85444000E-04
		 5.12186000E-03	-1.06202000E-03	 3.68856000E-03
		-1.30040000E-02	 1.13758000E-03	-6.84317000E-03
		-2.08885000E-03	 4.73523000E-03	-4.02820000E-03
		 4.19364000E-03	-2.57867000E-03	 1.07441000E-03
		-1.46968000E-02	 5.07564000E-04	-1.69126000E-02
		-8.76644000E-03	 4.04265000E-03	-3.72743000E-03
		-4.16833000E-03	 1.57663000E-03	-1.48086000E-02
		 5.84324000E-03	 1.09688000E-02	-4.04977000E-03
		-2.80551000E-03	 7.40263000E-03	 1.97664000E-03
		 1.29399000E-02	 1.85358000E-02	 2.14723000E-03
		-1.43887000E-02	 2.25887000E-03	-5.06805000E-03
		-1.40826000E-02	 1.38290000E-02	-1.35531000E-03
		-1.44242000E-02	 5.32652000E-03	-1.00078000E-02
		-5.24043000E-03	 1.10663000E-02	-9.42395000E-03
		 7.13740000E-03	 1.61703000E-02	-6.02027000E-03
		 1.35779000E-02	 2.05362000E-02	 8.34065000E-04
		-7.70444000E-03	 2.02730000E-03	-4.83582000E-03
		-9.07115000E-03	 2.11721000E-03	-1.28833000E-02
		 7.21824000E-03	-3.25066000E-03	-1.97664000E-03
		-3.46763000E-03	 5.13861000E-03	-1.24946000E-02
		 1.53658000E-03	 8.62516000E-03	-8.21797000E-03
		-6.59141000E-03	 1.32847000E-02	-6.90601000E-03
		 3.69577000E-03	 1.22490000E-02	-2.29533000E-03
		-6.05547000E-03	 6.64826000E-04	-2.88471000E-03
		-3.70737000E-03	 5.63855000E-03	-1.62919000E-03
		-9.45893000E-03	 4.25345000E-03	-2.65723000E-03
		-1.36710000E-02	 4.15759000E-03	-1.27876000E-03
		-3.73257000E-03	 6.42841000E-03	-5.73307000E-03
		 1.58673000E-03	 9.62519000E-03	-9.95265000E-03
		 7.17266000E-03	 1.87298000E-02	-7.40172000E-03
		 3.86583000E-03	 1.32885000E-02	-8.13234000E-03
		-5.64243000E-03	 6.23390000E-03	-5.29446000E-03
		 1.34001000E-02	 2.19018000E-02	-3.76881000E-04
		 2.81796000E-03	-9.70955000E-04	-4.49313000E-03
		-4.87052000E-03	 2.46528000E-03	-1.88748000E-02
		-4.01330000E-03	 1.17439000E-03	-1.44759000E-02
		 1.26726000E-03	 4.96185000E-03	-7.25714000E-03
		-4.25149000E-03	-2.93481000E-03	-1.92968000E-02
		 3.71407000E-03	-9.82029000E-03	-1.72444000E-02
		 1.72205000E-02	-2.52240000E-03	-1.39818000E-02
		 5.69463000E-04	 5.31975000E-03	-5.10810000E-03
		 1.72812000E-03	-3.91959000E-03	-3.20685000E-03
		 1.00415000E-02	-5.33442000E-03	-8.96808000E-04
		 8.82178000E-05	 3.14199000E-03	-1.16429000E-02
		 8.74444000E-03	-3.95681000E-03	-9.82855000E-03
		 1.30662000E-02	-8.73778000E-03	-1.15248000E-02
		-4.04078000E-03	-5.69021000E-04	-8.15358000E-03
		 1.28838000E-02	-3.73524000E-03	-5.14559000E-03
		 2.57714000E-02	-1.85011000E-03	-5.03434000E-03
		-3.61539000E-03	-3.34363000E-03	-2.00164000E-03
		 1.40998000E-02	 6.34704000E-06	 4.76894000E-03
		 3.34109000E-02	 3.85831000E-03	 9.07182000E-03
		-4.53278000E-03	-3.90250000E-03	 3.94176000E-04
		 6.69564000E-03	 1.14377000E-04	 5.11693000E-03
		 2.78177000E-02	 4.87522000E-03	 1.29120000E-02
		 1.70084000E-03	 1.11152000E-02	 2.68145000E-03
		 5.80576000E-03	 1.13870000E-02	 7.51244000E-03
		 4.55555000E-03	-6.00072000E-04	 7.10302000E-03
		-2.87007000E-04	-4.18712000E-03	-1.93806000E-03
		 1.93042000E-03	-4.73666000E-03	 2.75851000E-03
		 1.24842000E-02	-8.72976000E-04	 6.55124000E-03
		-2.64176000E-04	 3.48338000E-03	-9.27408000E-03
		 8.55943000E-03	 4.48204000E-03	-1.13167000E-02
		 1.27132000E-02	-3.42143000E-03	-1.29249000E-02
		-3.75459000E-03	 4.06233000E-04	-1.08802000E-02
		 1.07391000E-02	 2.68612000E-03	-1.27150000E-02
		 2.61908000E-02	 2.28904000E-03	-1.13069000E-02
		-5.15579000E-03	-4.21811000E-03	-1.23438000E-02
		 1.01559000E-02	-3.47130000E-03	-9.45485000E-03
		 2.94641000E-02	 3.15568000E-03	-8.12309000E-03
		 8.18594000E-03	-9.69719000E-03	-1.81017000E-03
		 6.31534000E-03	-8.78084000E-03	-7.30127000E-03
		-1.74382000E-03	-2.72672000E-03	-6.72898000E-03
		-5.71338000E-03	-3.91139000E-03	-1.18956000E-02
		 3.97822000E-03	-6.86948000E-03	-4.13153000E-03
		 2.48042000E-02	 1.22950000E-05	 1.67126000E-04
		-1.94687000E-03	-1.18017000E-03	-6.85631000E-03
		-4.98642000E-04	-6.44111000E-03	-2.94085000E-03
		 1.25833000E-02	-4.54907000E-03	 1.99822000E-03
		 1.06861000E-03	 1.26453000E-02	 1.81017000E-03
		 1.74337000E-03	 1.06746000E-02	 7.30127000E-03
		 3.16115000E-03	 6.95017000E-04	 6.72898000E-03
		 1.47687000E-03	 5.33243000E-03	 8.54623000E-04
		 5.69343000E-03	 8.65285000E-03	-1.95096000E-03
		 6.84087000E-04	-1.16507000E-03	-2.64560000E-03
		 6.65694000E-03	-9.06228000E-03	-2.68145000E-03
		 3.94655000E-03	-1.21571000E-02	-7.51244000E-03
		-3.64558000E-03	-2.79695000E-03	-7.10302000E-03
		 4.61476000E-03	 1.22636000E-03	-2.86438000E-03
		 5.12290000E-03	-2.63023000E-03	 3.01909000E-04
		 1.58345000E-03	-5.56277000E-04	-1.65503000E-04
		 6.10260000E-03	 2.39023000E-03	-2.37890000E-03
		 3.55594000E-04	-3.48703000E-03	 6.52257000E-04
		 1.96063000E-03	-7.51917000E-03	-3.86944000E-04
		 2.72629000E-03	-4.81490000E-03	-8.54623000E-04
		 2.09263000E-03	-1.01443000E-02	 1.95096000E-03
		-1.30755000E-03	 3.40106000E-04	 2.64560000E-03
		 8.36534000E-03	 2.87362000E-03	-1.67625000E-04
		 5.09823000E-03	-2.25481000E-03	-1.85077000E-03
		-9.50580000E-04	-3.74936000E-03	-5.37668000E-03
		-7.48631000E-04	 3.17397000E-03	-8.12266000E-03
		 9.75346000E-03	 8.19046000E-03	-1.46774000E-02
		 1.26231000E-02	 2.57720000E-03	-1.31228000E-02
		-3.19242000E-03	-1.75677000E-03	-1.20456000E-02
		 8.29869000E-03	 2.89822000E-03	-2.01876000E-02
		 2.44144000E-02	 3.44061000E-03	-1.67178000E-02
		-5.61690000E-03	-5.66748000E-03	-1.51994000E-02
		 8.64273000E-03	-5.26780000E-03	-1.67946000E-02
		 2.35944000E-02	 2.17480000E-03	-2.01001000E-02
		-1.42465000E-03	 1.28767000E-03	-2.11579000E-02
		-5.64055000E-03	 7.46026000E-03	 6.62473000E-03
		-9.81690000E-03	 1.00207000E-02	-1.71035000E-03
		-9.26438000E-03	 2.41287000E-02	 7.15234000E-03
		 2.24544000E-02	-7.62731000E-03	-2.70360000E-02
		 1.30842000E-02	-1.86736000E-02	-2.17523000E-02
		-5.37838000E-03	-3.47599000E-03	-1.72056000E-02
		-1.28168000E-02	-8.51805000E-03	-1.94767000E-02
		-1.35245000E-02	 2.48261000E-02	-2.88767000E-03
		-4.84337000E-03	 2.15993000E-05	 9.77839000E-03
		 2.98120000E-02	 7.89267000E-03	 2.20914000E-02
		 6.74510000E-03	 1.07463000E-02	 1.73228000E-02
		-4.12476000E-03	-9.29028000E-03	-2.17174000E-02
		 3.50657000E-02	 9.64900000E-03	 2.53255000E-02
		 1.67622000E-02	 1.24004000E-02	 1.90368000E-02
		-1.01866000E-03	-1.01691000E-03	 1.01722000E-02
		 1.24771000E-02	-1.04730000E-02	-2.07606000E-02
		 2.15778000E-03	-2.00231000E-02	-2.65318000E-02
		-3.02982000E-03	-5.09958000E-03	-2.46977000E-02
		-2.59421000E-03	 8.18911000E-04	-2.07344000E-02
		-7.85023000E-03	 6.09242000E-03	 1.01063000E-02
		-4.84148000E-03	 1.01789000E-03	 1.92807000E-02
		-2.36613000E-03	-5.35142000E-03	 1.09511000E-02
		-1.33759000E-03	-2.00482000E-02	-6.72782000E-04
		 2.92071000E-02	-2.77655000E-02	 3.68927000E-03
		 1.18683000E-02	 1.56323000E-02	 1.67365000E-02
		-3.62788000E-03	 4.64115000E-03	 2.16874000E-04
		-1.59101000E-02	 5.10460000E-03	-1.82801000E-02
		-2.54410000E-02	 1.22932000E-02	-1.48278000E-02
		-1.54548000E-02	 1.93788000E-02	 9.07242000E-03
		 1.27444000E-02	 1.39171000E-02	 1.42368000E-02
		 8.83097000E-03	 2.69010000E-03	 6.76387000E-03
		-6.38744000E-03	-1.45786000E-03	-8.61921000E-03
		-6.22414000E-03	 8.61173000E-03	-1.03899000E-02
		 1.64183000E-02	 1.36855000E-02	 1.45493000E-02
		-1.78201000E-02	-4.33737000E-03	 3.43065000E-03
		-2.16751000E-02	-8.22889000E-03	 1.78328000E-02
		-2.09792000E-02	-5.73027000E-03	 1.57061000E-02
		-1.41565000E-02	-1.06205000E-02	 1.82596000E-03
		 1.06073000E-02	-1.77912000E-02	 1.24457000E-03
		-1.10864000E-02	-8.76216000E-03	-1.01789000E-02
		-6.40332000E-03	-4.62021000E-03	-1.68037000E-03
		-1.63858000E-03	-3.76503000E-03	 3.12348000E-04
		-3.16717000E-03	-5.90417000E-03	-4.97690000E-03
		 2.23908000E-02	-8.63564000E-04	-9.80151000E-03
		-1.89833000E-02	-1.36258000E-02	-1.08883000E-02
		-2.18979000E-02	-7.93971000E-03	-3.00333000E-03
		-1.92134000E-02	-5.20766000E-03	-1.26876000E-03
		-1.60712000E-02	-3.75165000E-03	-7.59128000E-03
		 6.50834000E-03	 2.24296000E-03	-1.62935000E-02
		 1.34951000E-02	 1.34057000E-02	 1.67247000E-02
		 9.35078000E-03	 6.90545000E-03	 3.07257000E-03
		-8.67549000E-03	 6.01999000E-03	-1.39546000E-02
		-6.57352000E-03	 5.07190000E-03	-1.42775000E-02
		 1.84756000E-02	 3.37983000E-03	 9.52910000E-03
		 5.46552000E-03	 6.44542000E-03	 2.38170000E-03
		 5.14209000E-03	 2.58299000E-03	 6.31022000E-03
		-6.35957000E-03	-8.45249000E-03	 2.10650000E-03
		-7.92085000E-04	-3.21415000E-03	-5.65621000E-03
		 2.77828000E-02	 5.20382000E-03	 3.77227000E-03
		-2.05466000E-02	-9.70800000E-03	-5.05478000E-03
		-2.41178000E-02	-9.70991000E-03	 8.16050000E-03
		-2.28909000E-02	-4.60915000E-03	 8.69034000E-03
		-1.69687000E-02	-5.79019000E-03	-2.16278000E-03
		 7.21970000E-03	-7.56272000E-03	-8.22640000E-03
		-9.61292000E-03	 6.61399000E-04	 4.02027000E-03
		-4.88041000E-03	-2.18465000E-04	 1.10682000E-02
		-2.31473000E-03	-7.43292000E-03	 6.99183000E-03
		-4.34338000E-04	-1.19112000E-02	-4.26676000E-03
		 2.74591000E-02	-1.45182000E-02	 3.04699000E-04
		 4.52452000E-03	 1.07483000E-02	 1.36170000E-02
		 6.64790000E-03	 7.64830000E-03	 7.18562000E-03
		-6.96368000E-03	-3.99082000E-03	-1.01704000E-03
		 6.03081000E-04	-1.08671000E-02	-9.14911000E-03
		 3.28919000E-02	-1.10836000E-02	 5.81513000E-03
		 1.17493000E-02	 1.61545000E-02	 1.64112000E-02
		-3.97414000E-03	 6.75509000E-03	-2.29419000E-03
		-1.59698000E-02	 5.71638000E-03	-1.95704000E-02
		-2.55564000E-02	 1.28822000E-02	-1.64071000E-02
		-1.55684000E-02	 1.88745000E-02	 5.54171000E-03
		 3.95568000E-03	 1.04730000E-02	 1.68824000E-02
		 7.12386000E-03	 9.87022000E-03	 7.93011000E-03
		-6.62459000E-03	-2.71906000E-04	-3.10050000E-03
		 4.42976000E-04	-1.53918000E-02	-9.34043000E-03
		 3.30363000E-02	-2.02032000E-02	 4.65333000E-03
		 1.31440000E-02	 1.28668000E-02	 1.79114000E-02
		 9.66045000E-03	 1.13018000E-02	 1.67896000E-04
		-9.62654000E-03	 1.05779000E-02	-1.64484000E-02
		-7.16274000E-03	 1.82666000E-03	-1.68401000E-02
		 1.87090000E-02	-4.75887000E-03	 2.48245000E-03
		 1.22821000E-02	 1.71441000E-02	 1.58164000E-02
		-3.53938000E-03	 1.01685000E-02	-4.69541000E-03
		-1.56020000E-02	 7.10656000E-03	-2.03553000E-02
		-2.58362000E-02	 1.34873000E-02	-2.06473000E-02
		-1.65166000E-02	 1.71242000E-02	-3.50924000E-03
		 2.34695000E-03	-5.60253000E-03	 1.30283000E-03
		 5.34900000E-03	-9.41547000E-03	-1.23757000E-03
		 5.12186000E-03	-1.06202000E-03	 3.68856000E-03
		-4.84478000E-03	-1.45204000E-03	 6.92702000E-04
		 4.86820000E-03	-4.77022000E-04	 2.33723000E-03
		 4.19364000E-03	-2.57867000E-03	 1.07441000E-03
		-9.61780000E-04	-5.60972000E-03	 1.10324000E-03
		-5.63855000E-03	-3.70737000E-03	-1.62919000E-03
		 2.81796000E-03	-9.70955000E-04	-4.49313000E-03
		 4.45252000E-03	-2.39903000E-03	-6.92702000E-04
		 1.09682000E-03	-3.50309000E-03	 8.85444000E-04
		-4.37267000E-03	-2.87074000E-03	-3.68856000E-03
		 9.99964000E-03	 8.39086000E-03	 6.84317000E-03
		 4.82535000E-03	-1.87128000E-03	 4.02820000E-03
		-4.78874000E-03	-1.14196000E-03	-1.07441000E-03
		 1.07511000E-02	 1.00333000E-02	 1.69126000E-02
		 9.05739000E-03	 3.34022000E-03	 3.72743000E-03
		 4.06230000E-03	 1.83261000E-03	 1.48086000E-02
		 3.62432000E-03	-1.18879000E-02	 4.04977000E-03
		 7.21824000E-03	-3.25066000E-03	-1.97664000E-03
		 3.95692000E-03	-2.22566000E-02	-2.14723000E-03
		 1.17716000E-02	 8.57711000E-03	 5.06805000E-03
		 1.97365000E-02	 1.79275000E-04	 1.35531000E-03
		 1.39659000E-02	 6.43302000E-03	 1.00078000E-02
		 1.15306000E-02	-4.11948000E-03	 9.42395000E-03
		 6.38723000E-03	-1.64810000E-02	 6.02027000E-03
		 4.92030000E-03	-2.41223000E-02	-8.34065000E-04
		 6.88138000E-03	 4.01435000E-03	 4.83582000E-03
		 7.91137000E-03	 4.91718000E-03	 1.28833000E-02
		-7.40263000E-03	-2.80551000E-03	 1.97664000E-03
		 6.08553000E-03	-1.18156000E-03	 1.24946000E-02
		 5.01238000E-03	-7.18543000E-03	 8.21797000E-03
		 1.40545000E-02	-4.73285000E-03	 6.90601000E-03
		 6.04807000E-03	-1.12747000E-02	 2.29533000E-03
		 4.75197000E-03	 3.81176000E-03	 2.88471000E-03
		 6.60857000E-03	-1.36555000E-03	 1.62919000E-03
		 9.69611000E-03	 3.68083000E-03	 2.65723000E-03
		 1.26067000E-02	 6.72703000E-03	 1.27876000E-03
		 7.18490000E-03	-1.90625000E-03	 5.73307000E-03
		 5.68405000E-03	-7.92802000E-03	 9.95265000E-03
		 8.17215000E-03	-1.83158000E-02	 7.40172000E-03
		 6.66282000E-03	-1.21299000E-02	 8.13234000E-03
		 8.39783000E-03	-4.18234000E-04	 5.29446000E-03
		 6.01158000E-03	-2.49622000E-02	 3.76881000E-04
		-2.67916000E-03	-1.30603000E-03	 4.49313000E-03
		 5.18719000E-03	 1.70077000E-03	 1.88748000E-02
		 3.66825000E-03	 2.00741000E-03	 1.44759000E-02
		 2.61247000E-03	-4.40464000E-03	 7.25714000E-03
		 9.31035000E-04	 5.08148000E-03	 1.92968000E-02
		-9.57024000E-03	 4.31775000E-03	 1.72444000E-02
		-1.39603000E-02	-1.03931000E-02	 1.39818000E-02
		 3.35896000E-03	-4.16430000E-03	 5.10810000E-03
		-3.99354000E-03	 1.54961000E-03	 3.20685000E-03
		-1.08724000E-02	-3.32840000E-03	 8.96808000E-04
		 2.15935000E-03	-2.28410000E-03	 1.16429000E-02
		-8.98114000E-03	-3.38537000E-03	 9.82855000E-03
		-1.54178000E-02	-3.06067000E-03	 1.15248000E-02
		 2.45491000E-03	 3.25962000E-03	 8.15358000E-03
		-1.17514000E-02	-6.46902000E-03	 5.14559000E-03
		-1.95314000E-02	-1.69149000E-02	 5.03434000E-03
		 1.92164000E-04	 4.92077000E-03	 2.00164000E-03
		-9.96557000E-03	-9.97455000E-03	-4.76894000E-03
		-2.08968000E-02	-2.63533000E-02	-9.07182000E-03
		 4.45674000E-04	 5.96465000E-03	-3.94176000E-04
		-4.65366000E-03	-4.81541000E-03	-5.11693000E-03
		-1.62228000E-02	-2.31174000E-02	-1.29120000E-02
		 6.65694000E-03	-9.06228000E-03	-2.68145000E-03
		 3.94655000E-03	-1.21571000E-02	-7.51244000E-03
		-3.64558000E-03	-2.79695000E-03	-7.10302000E-03
		-2.75779000E-03	 3.16368000E-03	 1.93806000E-03
		-4.71434000E-03	 1.98431000E-03	-2.75851000E-03
		-9.44493000E-03	-8.21036000E-03	-6.55124000E-03
		 2.64992000E-03	-2.27632000E-03	 9.27408000E-03
		-2.88315000E-03	-9.22171000E-03	 1.13167000E-02
		-1.14089000E-02	-6.57027000E-03	 1.29249000E-02
		 2.94215000E-03	 2.36765000E-03	 1.08802000E-02
		-5.69430000E-03	-9.49304000E-03	 1.27150000E-02
		-1.69011000E-02	-2.01383000E-02	 1.13069000E-02
		 6.63041000E-04	 6.62835000E-03	 1.23438000E-02
		-9.63591000E-03	-4.72675000E-03	 9.45485000E-03
		-1.86029000E-02	-2.30657000E-02	 8.12309000E-03
		-1.26453000E-02	 1.06861000E-03	 1.81017000E-03
		-1.06746000E-02	 1.74337000E-03	 7.30127000E-03
		-6.95017000E-04	 3.16115000E-03	 6.72898000E-03
		 1.27420000E-03	 6.80574000E-03	 1.18956000E-02
		-7.67048000E-03	 2.04443000E-03	 4.13153000E-03
		-1.75305000E-02	-1.75479000E-02	-1.67126000E-04
		 5.42140000E-04	 2.21115000E-03	 6.85631000E-03
		-4.20196000E-03	 4.90715000E-03	 2.94085000E-03
		-1.21144000E-02	-5.68108000E-03	-1.99822000E-03
		 8.18594000E-03	-9.69719000E-03	-1.81017000E-03
		 6.31534000E-03	-8.78084000E-03	-7.30127000E-03
		-1.74382000E-03	-2.72672000E-03	-6.72898000E-03
		 2.72629000E-03	-4.81490000E-03	-8.54623000E-04
		 2.09263000E-03	-1.01443000E-02	 1.95096000E-03
		-1.30755000E-03	 3.40106000E-04	 2.64560000E-03
		-1.11152000E-02	 1.70084000E-03	 2.68145000E-03
		-1.13870000E-02	 5.80576000E-03	 7.51244000E-03
		 6.00072000E-04	 4.55555000E-03	 7.10302000E-03
		-2.39596000E-03	-4.13030000E-03	 2.86438000E-03
		-5.48229000E-03	-1.76258000E-03	-3.01909000E-04
		-1.51302000E-03	-7.26322000E-04	 1.65503000E-04
		-2.62504000E-03	-6.00534000E-03	 2.37890000E-03
		-2.71715000E-03	 2.21426000E-03	-6.52257000E-04
		-6.70323000E-03	 3.93048000E-03	 3.86944000E-04
		-5.33243000E-03	 1.47687000E-03	 8.54623000E-04
		-8.65285000E-03	 5.69343000E-03	-1.95096000E-03
		 1.16507000E-03	 6.84087000E-04	-2.64560000E-03
		-3.88323000E-03	-7.94715000E-03	 1.67625000E-04
		-5.19938000E-03	-2.01060000E-03	 1.85077000E-03
		-1.97903000E-03	 3.32336000E-03	 5.37668000E-03
		 2.77370000E-03	-1.71497000E-03	 8.12266000E-03
		-1.10520000E-03	-1.26883000E-02	 1.46774000E-02
		-7.10351000E-03	-1.07482000E-02	 1.31228000E-02
		 1.01516000E-03	 3.49960000E-03	 1.20456000E-02
		-3.81871000E-03	-7.91741000E-03	 2.01876000E-02
		-1.48307000E-02	-1.96965000E-02	 1.67178000E-02
		-3.57686000E-05	 7.97926000E-03	 1.51994000E-02
		-9.83623000E-03	-2.38644000E-03	 1.67946000E-02
		-1.51459000E-02	-1.82216000E-02	 2.01001000E-02
		 1.91790000E-03	 9.68610000E-05	 2.11579000E-02
		 9.26367000E-03	-1.28673000E-03	-6.62473000E-03
		 1.40273000E-02	-1.44141000E-04	 1.71035000E-03
		 2.36125000E-02	-1.05106000E-02	-7.15234000E-03
		-2.12710000E-02	-1.04844000E-02	 2.70360000E-02
		-2.24561000E-02	 3.95235000E-03	 2.17523000E-02
		 1.34519000E-03	 6.26099000E-03	 1.72056000E-02
		 3.03969000E-03	 1.50860000E-02	 1.94767000E-02
		 2.71179000E-02	-7.99144000E-03	 2.88767000E-03
		 3.44006000E-03	 3.40951000E-03	-9.77839000E-03
		-1.54993000E-02	-2.66612000E-02	-2.20914000E-02
		 2.82930000E-03	-1.23683000E-02	-1.73228000E-02
		-3.65257000E-03	 9.48587000E-03	 2.17174000E-02
		-1.79723000E-02	-3.16180000E-02	-2.53255000E-02
		-3.08422000E-03	-2.06211000E-02	-1.90368000E-02
		 1.24064000E-06	 1.43936000E-03	-1.01722000E-02
		-1.62282000E-02	-1.41709000E-03	 2.07606000E-02
		-1.56842000E-02	 1.26327000E-02	 2.65318000E-02
		-1.46354000E-03	 5.74836000E-03	 2.46977000E-02
		 2.41344000E-03	 1.25533000E-03	 2.07344000E-02
		 9.85894000E-03	 1.24296000E-03	-1.01063000E-02
		 4.14320000E-03	 2.70368000E-03	-1.92807000E-02
		-2.11091000E-03	 5.45713000E-03	-1.09511000E-02
		-1.32304000E-02	 1.51221000E-02	 6.72782000E-04
		-4.02857000E-02	-1.01934000E-03	-3.68927000E-03
		 2.66156000E-03	-1.94458000E-02	-1.67365000E-02
		 5.84709000E-03	-7.16492000E-04	-2.16874000E-04
		 1.48597000E-02	 7.64065000E-03	 1.82801000E-02
		 2.66821000E-02	 9.29693000E-03	 1.48278000E-02
		 2.46310000E-02	-2.77466000E-03	-9.07242000E-03
		 8.29171000E-04	-1.88525000E-02	-1.42368000E-02
		-4.34225000E-03	-8.14663000E-03	-6.76387000E-03
		 3.48574000E-03	 5.54746000E-03	 8.61921000E-03
		 1.04905000E-02	-1.68828000E-03	 1.03899000E-02
		-1.93240000E-03	-2.12866000E-02	-1.45493000E-02
		 9.53371000E-03	 1.56677000E-02	-3.43065000E-03
		 9.50794000E-03	 2.11453000E-02	-1.78328000E-02
		 1.07826000E-02	 1.88865000E-02	-1.57061000E-02
		 2.50033000E-03	 1.75199000E-02	-1.82596000E-03
		-2.00808000E-02	 5.07982000E-03	-1.24457000E-03
		 1.64347000E-03	 1.40350000E-02	 1.01789000E-02
		 1.26084000E-03	 7.79481000E-03	 1.68037000E-03
		-1.50363000E-03	 3.82093000E-03	-3.12348000E-04
		-1.93535000E-03	 6.41441000E-03	 4.97690000E-03
		-1.64433000E-02	-1.52220000E-02	 9.80151000E-03
		 3.78834000E-03	 2.30581000E-02	 1.08883000E-02
		 9.86995000E-03	 2.10984000E-02	 3.00333000E-03
		 9.90353000E-03	 1.72683000E-02	 1.26876000E-03
		 8.71125000E-03	 1.40169000E-02	 7.59128000E-03
		-3.01608000E-03	-6.18811000E-03	 1.62935000E-02
		-6.32709000E-05	-1.90217000E-02	-1.67247000E-02
		-1.72911000E-03	-1.14949000E-02	-3.07257000E-03
		 1.03913000E-02	 1.87772000E-03	 1.39546000E-02
		 8.23455000E-03	 1.06181000E-03	 1.42775000E-02
		-1.06743000E-02	-1.54541000E-02	-9.52910000E-03
		 6.92892000E-04	-8.42231000E-03	-2.38170000E-03
		-1.80955000E-03	-5.46246000E-03	-6.31022000E-03
		-1.47992000E-03	 1.04737000E-02	-2.10650000E-03
		-1.71266000E-03	 2.83284000E-03	 5.65621000E-03
		-1.59657000E-02	-2.33250000E-02	-3.77227000E-03
		 7.66404000E-03	 2.13932000E-02	 5.05478000E-03
		 1.01879000E-02	 2.39198000E-02	-8.16050000E-03
		 1.29271000E-02	 1.94454000E-02	-8.69034000E-03
		 7.90444000E-03	 1.60930000E-02	 2.16278000E-03