<?xml version="1.0"?>
<VTKFile type="UnstructuredGrid" version="0.1" byte_order="LittleEndian">
	<UnstructuredGrid>
		<Piece NumberOfPoints="1720" NumberOfCells="832">
			<Points>
				<DataArray type="Float64" NumberOfComponents="3" format="ascii">
					-1.27552000E-02	 3.65262000E-01	 1.66670000E-01
					 1.51975000E-02	 9.95069000E-01	 1.66670000E-01
					 9.56709000E-02	 2.30970000E-01	 0.00000000E+00
					-1.03673000E-01	 2.27490000E-01	 1.66670000E-01
					-1.74497000E-02	 4.99695000E-01	 1.66670000E-01
					 1.43506000E-01	 3.46455000E-01	 0.00000000E+00
					-8.72514000E-03	 2.49855000E-01	 1.66670000E-01
					-1.55510000E-01	 3.41235000E-01	 1.66670000E-01
					 1.91342000E-01	 4.61940000E-01	 0.00000000E+00
					 8.75518000E-02	 2.34168000E-01	 1.66670000E-01
					 1.53086000E-17	 2.50008000E-01	 0.00000000E+00
					-9.56709000E-02	 2.30970000E-01	 0.00000000E+00
					 1.10401000E-01	 5.88124000E-01	 0.00000000E+00
					-5.87745000E-17	 3.65485000E-01	 0.00000000E+00
					-1.43506000E-01	 3.46455000E-01	 0.00000000E+00
					 1.12583000E-01	 6.88100000E-01	 0.00000000E+00
					-8.04061000E-17	 5.00000000E-01	 0.00000000E+00
					 8.81865000E-02	 8.00147000E-01	-3.79961000E-04
					 3.91018000E-02	 8.94866000E-01	 0.00000000E+00
					 1.75104000E-01	 4.68336000E-01	 1.66670000E-01
					 3.25615000E-02	 9.94652000E-01	 0.00000000E+00
					-9.64874000E-17	 6.00000000E-01	 0.00000000E+00
					-1.12583000E-01	 6.88100000E-01	 0.00000000E+00
					-1.12569000E-16	 7.00000000E-01	 0.00000000E+00
					 4.89859000E-17	 8.00000000E-01	 0.00000000E+00
					 5.51091000E-17	 9.00000000E-01	 0.00000000E+00
					 6.12323000E-17	 1.00000000E+00	 0.00000000E+00
					-2.09397000E-02	 5.99634000E-01	 1.66670000E-01
					-2.44296000E-02	 6.99574000E-01	 1.66670000E-01
					-2.07347000E-01	 4.54981000E-01	 1.66670000E-01
					-2.79196000E-02	 7.99513000E-01	 1.66670000E-01
					-3.14095000E-02	 8.99452000E-01	 1.66670000E-01
					-3.17591000E-02	 7.95756000E-01	 0.00000000E+00
					-3.48995000E-02	 9.99391000E-01	 1.66670000E-01
					-1.30859000E-01	 5.83913000E-01	 1.66670000E-01
					 1.31328000E-01	 3.51252000E-01	 1.66670000E-01
					-1.36529000E-01	 6.83752000E-01	 1.66670000E-01
					-1.10401000E-01	 5.88124000E-01	 0.00000000E+00
					-1.00993000E-01	 7.89959000E-01	 1.66670000E-01
					-1.01429000E-01	 8.89959000E-01	 1.66670000E-01
					-2.34783000E-02	 8.95412000E-01	 0.00000000E+00
					-1.01866000E-01	 9.89958000E-01	 1.66670000E-01
					 8.98088000E-02	 5.91619000E-01	 1.66670000E-01
					-1.51975000E-02	 9.95069000E-01	 0.00000000E+00
					-1.91342000E-01	 4.61940000E-01	 0.00000000E+00
					 8.84998000E-02	 6.91610000E-01	 1.66670000E-01
					 3.17591000E-02	 7.95756000E-01	 1.66670000E-01
					 2.34783000E-02	 8.95412000E-01	 1.66670000E-01
					 6.43091000E-02	 6.94278000E-01	 3.33337000E-01
					 4.00400000E-02	 6.96099000E-01	 5.00003000E-01
					 1.57221000E-02	 6.97072000E-01	 6.66670000E-01
					 6.91069000E-02	 5.94393000E-01	 3.33337000E-01
					 4.83208000E-02	 5.96442000E-01	 5.00003000E-01
					 2.74758000E-02	 5.97766000E-01	 6.66670000E-01
					-1.70673000E-01	 9.80440000E-01	 3.33337000E-01
					-2.21752000E-01	 9.70164000E-01	 5.00003000E-01
					-2.12967000E-01	 9.70344000E-01	 6.40408000E-01
					-1.63263000E-01	 8.80715000E-01	 3.33337000E-01
					-2.09132000E-01	 8.70964000E-01	 5.00003000E-01
					-2.28435000E-01	 8.70398000E-01	 6.68452000E-01
					-1.55852000E-01	 7.80990000E-01	 3.33337000E-01
					-1.96512000E-01	 7.71763000E-01	 5.00003000E-01
					-2.23326000E-01	 7.64435000E-01	 6.66670000E-01
					-1.60308000E-01	 6.78571000E-01	 3.33337000E-01
					-1.83892000E-01	 6.72563000E-01	 5.00003000E-01
					-2.07252000E-01	 6.65735000E-01	 6.66670000E-01
					 1.18989000E-01	 3.55621000E-01	 3.33337000E-01
					 1.06506000E-01	 3.59557000E-01	 5.00003000E-01
					 9.38925000E-02	 3.63055000E-01	 6.66670000E-01
					-1.51158000E-01	 5.78990000E-01	 3.33337000E-01
					-1.71272000E-01	 5.73362000E-01	 5.00003000E-01
					-1.91178000E-01	 5.67036000E-01	 6.66670000E-01
					-6.97565000E-02	 9.97564000E-01	 3.33337000E-01
					-1.04528000E-01	 9.94522000E-01	 5.00003000E-01
					-1.39173000E-01	 9.90268000E-01	 6.66670000E-01
					-6.27808000E-02	 8.97808000E-01	 3.33337000E-01
					-9.40756000E-02	 8.95070000E-01	 5.00003000E-01
					-1.25256000E-01	 8.91241000E-01	 6.66670000E-01
					-5.58052000E-02	 7.98051000E-01	 3.33337000E-01
					-8.36228000E-02	 7.95618000E-01	 5.00003000E-01
					-1.11338000E-01	 7.92214000E-01	 6.66670000E-01
					-2.23099000E-01	 4.47467000E-01	 3.33337000E-01
					-2.38579000E-01	 4.39409000E-01	 5.00003000E-01
					-2.53769000E-01	 4.30815000E-01	 6.66670000E-01
					-4.88295000E-02	 6.98295000E-01	 3.33337000E-01
					-7.31699000E-02	 6.96165000E-01	 5.00003000E-01
					-9.74212000E-02	 6.93188000E-01	 6.66670000E-01
					-4.18539000E-02	 5.98538000E-01	 3.33337000E-01
					-6.27171000E-02	 5.96713000E-01	 5.00003000E-01
					-8.35039000E-02	 5.94161000E-01	 6.66670000E-01
					 1.58652000E-01	 4.74162000E-01	 3.33337000E-01
					 1.42008000E-01	 4.79410000E-01	 5.00003000E-01
					 1.25190000E-01	 4.84074000E-01	 6.66670000E-01
					 7.93262000E-02	 2.37081000E-01	 3.33337000E-01
					 7.10038000E-02	 2.39705000E-01	 5.00003000E-01
					 6.25950000E-02	 2.42037000E-01	 6.66670000E-01
					-1.67324000E-01	 3.35600000E-01	 3.33337000E-01
					-1.78935000E-01	 3.29556000E-01	 5.00003000E-01
					-1.90327000E-01	 3.23111000E-01	 6.66670000E-01
					-1.74397000E-02	 2.49399000E-01	 3.33337000E-01
					-2.61329000E-02	 2.48638000E-01	 5.00003000E-01
					-3.47943000E-02	 2.47575000E-01	 6.66670000E-01
					-3.48782000E-02	 4.98782000E-01	 3.33337000E-01
					-5.22642000E-02	 4.97261000E-01	 5.00003000E-01
					-6.95866000E-02	 4.95134000E-01	 6.66670000E-01
					-1.11549000E-01	 2.23734000E-01	 3.33337000E-01
					-1.19290000E-01	 2.19704000E-01	 5.00003000E-01
					-1.26885000E-01	 2.15407000E-01	 6.66670000E-01
					-2.54949000E-02	 3.64595000E-01	 3.33337000E-01
					-3.82036000E-02	 3.63483000E-01	 5.00003000E-01
					-5.08657000E-02	 3.61928000E-01	 6.66670000E-01
					-1.95392000E-02	 9.94993000E-01	 3.33337000E-01
					-1.95392000E-02	 9.94993000E-01	 5.00003000E-01
					-6.53167000E-02	 9.91143000E-01	 6.44012000E-01
					-7.78541000E-03	 8.95686000E-01	 3.33337000E-01
					-7.78541000E-03	 8.95686000E-01	 5.00003000E-01
					-3.99021000E-02	 8.87826000E-01	 6.53001000E-01
					 3.96833000E-03	 7.96379000E-01	 3.33337000E-01
					 3.96833000E-03	 7.96379000E-01	 5.00003000E-01
					 3.96833000E-03	 7.96379000E-01	 6.66670000E-01
					 1.88491000E-01	 6.92919000E-01	 1.66670000E-01
					-2.42037000E-01	 7.77922000E-01	 1.66670000E-01
					-2.36368000E-01	 6.78083000E-01	 1.66670000E-01
					-2.14740000E-01	 7.85895000E-01	 0.00000000E+00
					 1.03275000E-01	 8.08133000E-01	 6.66670000E-01
					 1.31416000E-01	 8.04036000E-01	 5.00003000E-01
					 1.59396000E-01	 7.98960000E-01	 3.33337000E-01
					 2.12559000E-01	 6.85919000E-01	 0.00000000E+00
					-2.12559000E-01	 6.85919000E-01	 0.00000000E+00
					-2.59888000E-01	 6.69421000E-01	 3.33337000E-01
					-3.05952000E-01	 6.49661000E-01	 6.66670000E-01
					-2.83093000E-01	 6.59943000E-01	 5.00003000E-01
					 2.14740000E-01	 7.85895000E-01	 0.00000000E+00
					-3.22026000E-01	 7.48361000E-01	 6.66670000E-01
					-2.95713000E-01	 7.59143000E-01	 5.00003000E-01
					-2.69039000E-01	 7.69001000E-01	 3.33337000E-01
					 1.15029000E-01	 7.08826000E-01	 6.66670000E-01
					 1.39697000E-01	 7.04380000E-01	 5.00003000E-01
					 1.64194000E-01	 6.99075000E-01	 3.33337000E-01
					 1.87182000E-01	 7.92911000E-01	 1.66670000E-01
					-1.95392000E-02	 1.19499000E+00	 5.00003000E-01
					-1.95392000E-02	 1.39499000E+00	 5.00003000E-01
					-1.95392000E-02	 1.59499000E+00	 5.00003000E-01
					-1.95392000E-02	 1.79499000E+00	 5.00003000E-01
					-1.95392000E-02	 1.99499000E+00	 5.00003000E-01
					-1.51975000E-02	 1.19507000E+00	 0.00000000E+00
					-1.51975000E-02	 1.39507000E+00	 0.00000000E+00
					-1.51975000E-02	 1.59507000E+00	 0.00000000E+00
					-1.51975000E-02	 1.79507000E+00	 0.00000000E+00
					-1.51975000E-02	 1.99507000E+00	 0.00000000E+00
					-1.01866000E-01	 1.18996000E+00	 1.66670000E-01
					-1.01866000E-01	 1.38996000E+00	 1.66670000E-01
					-1.01866000E-01	 1.58996000E+00	 1.66670000E-01
					-1.01866000E-01	 1.78996000E+00	 1.66670000E-01
					-1.01866000E-01	 1.98996000E+00	 1.66670000E-01
					-6.53167000E-02	 1.19114000E+00	 6.44012000E-01
					-6.53167000E-02	 1.39114000E+00	 6.44012000E-01
					-6.53167000E-02	 1.59114000E+00	 6.44012000E-01
					-6.53167000E-02	 1.79114000E+00	 6.44012000E-01
					-6.53167000E-02	 1.99114000E+00	 6.44012000E-01
					-2.21752000E-01	 1.17016000E+00	 5.00003000E-01
					-2.21752000E-01	 1.37016000E+00	 5.00003000E-01
					-2.21752000E-01	 1.57016000E+00	 5.00003000E-01
					-2.21752000E-01	 1.77016000E+00	 5.00003000E-01
					-2.21752000E-01	 1.97016000E+00	 5.00003000E-01
					-2.12967000E-01	 1.17034000E+00	 6.40408000E-01
					-2.12967000E-01	 1.37034000E+00	 6.40408000E-01
					-2.12967000E-01	 1.57034000E+00	 6.40408000E-01
					-2.12967000E-01	 1.77034000E+00	 6.40408000E-01
					-2.12967000E-01	 1.97034000E+00	 6.40408000E-01
					-3.48995000E-02	 1.19939000E+00	 1.66670000E-01
					-3.48995000E-02	 1.39939000E+00	 1.66670000E-01
					-3.48995000E-02	 1.59939000E+00	 1.66670000E-01
					-3.48995000E-02	 1.79939000E+00	 1.66670000E-01
					-3.48995000E-02	 1.99939000E+00	 1.66670000E-01
					-1.70673000E-01	 1.18044000E+00	 3.33337000E-01
					-1.70673000E-01	 1.38044000E+00	 3.33337000E-01
					-1.70673000E-01	 1.58044000E+00	 3.33337000E-01
					-1.70673000E-01	 1.78044000E+00	 3.33337000E-01
					-1.70673000E-01	 1.98044000E+00	 3.33337000E-01
					-1.39173000E-01	 1.19027000E+00	 6.66670000E-01
					-1.39173000E-01	 1.39027000E+00	 6.66670000E-01
					-1.39173000E-01	 1.59027000E+00	 6.66670000E-01
[...]
			<PointData>
				<DataArray type="Float32" Name="U" NumberOfComponents="3" ComponentName0="D1" ComponentName1="D2" ComponentName2="D3" format="ascii">
					-2.00602000E-03	-6.15098000E-03	-3.45281000E-03
					 2.34811000E-02	-1.14770000E-02	 5.06243000E-03
					-2.91108000E-03	-3.29448000E-03	-5.38551000E-03
					 1.23467000E-03	-6.77913000E-03	-3.30553000E-03
					-2.38020000E-03	-5.26105000E-03	-2.03892000E-03
					-3.30796000E-03	-2.27535000E-03	-4.26192000E-03
					-1.66752000E-03	-6.85618000E-03	-3.73763000E-03
					 4.67361000E-04	-6.61251000E-03	-2.99782000E-03
					-2.11177000E-03	-2.45815000E-03	-2.81039000E-03
					-3.92053000E-03	-5.66661000E-03	-3.30553000E-03
					-1.44497000E-03	-4.15861000E-03	-5.92864000E-03
					 2.71101000E-04	-4.38799000E-03	-5.38551000E-03
					 1.33105000E-03	-6.65856000E-03	-1.93127000E-03
					-2.35438000E-03	-4.28150000E-03	-3.51399000E-03
					-7.30166000E-04	-3.94800000E-03	-4.26192000E-03
					 7.82185000E-03	-1.00311000E-02	-1.34546000E-03
					-1.17902000E-03	-4.90493000E-03	-1.87166000E-03
					 1.18485000E-02	-9.88492000E-03	-4.72023000E-04
					 2.01648000E-02	-9.25743000E-03	 1.54496000E-03
					-4.34167000E-03	-3.97826000E-03	-1.95696000E-03
					 3.13080000E-02	-9.37313000E-03	 5.86276000E-03
					 1.60166000E-03	-5.69634000E-03	-2.18655000E-03
					 7.45875000E-03	-2.02015000E-03	-5.09345000E-03
					 7.59346000E-03	-6.37461000E-03	-2.49742000E-03
					 1.21357000E-02	-6.34484000E-03	-1.77317000E-03
					 2.05526000E-02	-6.04362000E-03	 7.49293000E-04
					 3.16674000E-02	-6.46872000E-03	 4.59422000E-03
					-2.29133000E-04	-5.36625000E-03	-2.65854000E-03
					 4.41547000E-03	-6.31005000E-03	-3.93078000E-03
					-2.56967000E-04	-5.88308000E-03	-1.95696000E-03
					 8.92300000E-03	-7.61893000E-03	-3.32958000E-03
					 1.55952000E-02	-8.18243000E-03	-9.85071000E-04
					 1.20525000E-02	-4.57833000E-03	-2.17501000E-03
					 2.38805000E-02	-7.98462000E-03	 2.69267000E-03
					-1.08847000E-03	-4.19833000E-03	-3.50108000E-03
					-4.34528000E-03	-5.00623000E-03	-2.99782000E-03
					 4.17989000E-03	-3.44832000E-03	-6.68814000E-03
					 1.60197000E-03	-3.45946000E-03	-3.02052000E-03
					 8.16970000E-03	-3.95989000E-03	-5.39060000E-03
					 1.46166000E-02	-3.44283000E-03	-4.51361000E-03
					 2.01010000E-02	-3.77345000E-03	-8.46869000E-07
					 2.28748000E-02	-3.31062000E-03	-1.34586000E-03
					 6.06242000E-04	-6.87032000E-03	-1.11062000E-03
					 3.11774000E-02	-4.79133000E-03	 3.77362000E-03
					 2.44929000E-04	-3.23142000E-03	-2.81039000E-03
					 5.29487000E-03	-9.54505000E-03	-2.38226000E-03
					 9.14886000E-03	-9.57793000E-03	-2.14746000E-03
					 1.56366000E-02	-1.19180000E-02	 1.19028000E-03
					 1.64485000E-03	-7.85191000E-03	-3.48947000E-03
					-5.88758000E-04	-3.47970000E-03	-5.43625000E-03
					-3.09604000E-03	-2.84974000E-04	-6.15976000E-03
					-9.20493000E-04	-6.37146000E-03	-3.11230000E-03
					-5.05378000E-04	-2.44827000E-03	-4.82403000E-03
					-1.02951000E-03	 1.84224000E-03	-4.78998000E-03
					 1.18282000E-02	-5.27772000E-03	-7.58577000E-03
					-2.73528000E-03	-8.68805000E-03	-1.29285000E-02
					-1.31052000E-02	-1.15094000E-02	-1.22701000E-02
					 5.31169000E-03	-5.41404000E-03	-9.33163000E-03
					-3.69168000E-03	-8.85242000E-03	-1.25958000E-02
					-1.23947000E-02	-9.28248000E-03	-1.37752000E-02
					 1.52772000E-03	-6.20852000E-03	-8.88204000E-03
					-2.80609000E-03	-7.70188000E-03	-9.99346000E-03
					-7.97607000E-03	-6.56047000E-03	-1.03827000E-02
					 3.02727000E-04	-6.10309000E-03	-8.61744000E-03
					-2.00939000E-03	-6.17870000E-03	-9.02723000E-03
					-4.55857000E-03	-4.11346000E-03	-8.12038000E-03
					-5.68569000E-03	-4.22513000E-03	-6.36762000E-04
					-4.70518000E-03	-1.20329000E-04	 1.35835000E-03
					-2.98969000E-03	 3.27635000E-03	 1.88083000E-03
					-2.72308000E-03	-5.30307000E-03	-5.08199000E-03
					-1.45513000E-03	-3.17082000E-03	-5.45354000E-03
					-2.26702000E-03	 3.50534000E-04	-4.52409000E-03
					 1.32232000E-02	-9.24300000E-03	-1.20202000E-04
					-1.23527000E-03	-1.00586000E-02	-3.91635000E-03
					-1.41644000E-02	-1.20947000E-02	-6.54440000E-03
					 6.71851000E-03	-8.94956000E-03	-4.02956000E-03
					-2.92372000E-03	-8.44394000E-03	-6.83551000E-03
					-1.14748000E-02	-8.47648000E-03	-7.89701000E-03
					 2.47633000E-03	-7.97771000E-03	-6.57341000E-03
					-1.66943000E-03	-6.16075000E-03	-7.99538000E-03
					-7.53691000E-03	-4.96777000E-03	-7.76746000E-03
					-8.97489000E-05	-5.96469000E-03	-2.66542000E-03
					-1.73237000E-03	-2.42216000E-03	-1.80137000E-03
					-2.87443000E-03	 1.55893000E-03	-1.01114000E-03
					 8.96151000E-04	-6.53414000E-03	-6.33524000E-03
					-1.32446000E-03	-3.98863000E-03	-7.81204000E-03
					-3.97472000E-03	-1.61081000E-03	-7.63739000E-03
					-1.84744000E-03	-5.64773000E-03	-4.27283000E-03
					-8.30593000E-04	-2.93604000E-03	-5.26012000E-03
					-1.50627000E-03	 9.82061000E-04	-5.09084000E-03
					-4.28113000E-03	-4.15421000E-03	-2.66542000E-03
					-2.93769000E-03	-4.87755000E-04	-1.80137000E-03
					-9.30200000E-04	 3.13486000E-03	-1.01114000E-03
					-5.46909000E-03	-3.83631000E-03	 9.80994000E-04
					-4.02644000E-03	-7.74863000E-05	 3.67550000E-03
					-2.86879000E-03	 3.73042000E-03	 3.67977000E-03
					-1.03277000E-03	-7.00801000E-03	-6.36762000E-04
					-3.24198000E-03	-3.41215000E-03	 1.35835000E-03
					-4.43076000E-03	 2.02698000E-04	 1.88083000E-03
					-3.52157000E-03	-5.09820000E-03	 1.53529000E-04
					-3.69563000E-03	-5.17873000E-04	 3.22927000E-03
					-4.13748000E-03	 3.13724000E-03	 3.83051000E-03
					-3.08526000E-03	-5.28989000E-03	-3.11249000E-03
					-2.25942000E-03	-1.96007000E-03	-2.04391000E-03
					-2.34438000E-03	 2.37790000E-03	-1.03859000E-03
					-1.15456000E-03	-6.57991000E-03	 9.80994000E-04
					-2.79234000E-03	-2.90192000E-03	 3.67550000E-03
					-4.66634000E-03	 6.09265000E-04	 3.67977000E-03
					-3.56800000E-03	-5.60288000E-03	-1.94383000E-03
					-4.44733000E-03	-8.41485000E-04	 8.08830000E-04
					-4.44623000E-03	 3.03384000E-03	 2.01170000E-03
					 1.31677000E-02	-1.13774000E-02	 2.90824000E-03
					-2.79728000E-04	-1.08762000E-02	 1.74339000E-03
					-1.13593000E-02	-1.16113000E-02	-1.23512000E-03
					 7.26598000E-03	-1.11478000E-02	-1.65476000E-03
					-2.00250000E-03	-7.68139000E-03	-2.81430000E-03
					-9.48801000E-03	-6.21690000E-03	-4.19094000E-03
					 3.03626000E-03	-8.42667000E-03	-5.27348000E-03
					-6.24115000E-04	-4.55111000E-03	-6.15684000E-03
					-5.42876000E-03	-2.00583000E-03	-6.13522000E-03
					 6.69870000E-03	-1.18455000E-02	-4.65168000E-04
					 6.96664000E-03	-1.76475000E-03	-8.48541000E-03
					 5.29448000E-03	-2.44250000E-03	-1.12579000E-02
					 1.18889000E-02	 3.30901000E-03	-5.86043000E-03
					-4.23387000E-03	 6.88108000E-04	-6.69206000E-03
					 3.31020000E-04	-3.99508000E-03	-6.19071000E-03
					 4.17951000E-03	-9.78144000E-03	-4.03384000E-03
					 8.62986000E-03	-1.15739000E-02	 4.23667000E-04
					 8.04880000E-03	 2.80892000E-03	-9.39570000E-03
					 1.68480000E-03	-7.06954000E-03	-1.17552000E-02
					-4.04677000E-03	-8.72902000E-03	-1.08437000E-02
					-1.63354000E-03	-8.55232000E-03	-1.04644000E-02
					 1.04269000E-02	-1.11634000E-02	 6.82507000E-04
					-7.81237000E-03	-8.90979000E-03	-1.17322000E-02
					-3.35914000E-03	-8.68506000E-03	-1.07678000E-02
					 9.83741000E-04	-6.88511000E-03	-1.04396000E-02
					-3.25647000E-03	 8.74279000E-04	-3.47837000E-03
					 1.59197000E-04	-4.17251000E-03	-2.69502000E-03
					 2.63833000E-03	-1.05352000E-02	-1.80981000E-03
					 8.52942000E-03	-1.11223000E-02	-8.97306000E-04
					 1.57040000E-03	-1.35839000E-02	 9.41984000E-03
					 1.94504000E-03	-1.40480000E-02	 1.29074000E-02
					-4.24614000E-03	-1.48089000E-02	 1.10448000E-02
					-1.15028000E-02	-1.52144000E-02	 7.34051000E-03
					-1.80731000E-02	-1.55154000E-02	 6.93295000E-03
					 4.08379000E-02	-8.25540000E-03	 1.02009000E-02
					 3.30860000E-02	-1.00670000E-02	 9.73647000E-03
					 1.80109000E-02	-9.42400000E-03	 5.35803000E-03
					 1.66438000E-03	-7.14001000E-03	 6.28867000E-03
					-1.97630000E-02	-5.68664000E-03	 9.19639000E-03
					 3.10794000E-02	-8.10249000E-03	 4.00856000E-03
					 2.29272000E-02	-1.25628000E-02	 5.43725000E-03
					 1.00039000E-02	-1.44122000E-02	 2.84111000E-03
					-1.25188000E-03	-1.51894000E-02	 3.84660000E-03
					-1.81983000E-02	-1.53963000E-02	 7.91208000E-03
					-1.05132000E-02	-1.79235000E-02	 5.33817000E-03
					-6.43535000E-03	-1.86029000E-02	 1.00037000E-02
					-6.73340000E-03	-1.72029000E-02	 9.93728000E-03
					-1.16296000E-02	-1.67006000E-02	 6.96586000E-03
					-1.88174000E-02	-1.62444000E-02	 5.58336000E-03
					 9.82365000E-04	-1.25837000E-02	-9.28420000E-03
					 1.29555000E-03	-1.72181000E-02	 9.65705000E-04
					-2.41798000E-03	-2.09399000E-02	 6.29953000E-03
					-9.46010000E-03	-2.33667000E-02	 5.09553000E-03
					-1.85543000E-02	-2.45131000E-02	 4.17568000E-03
					-1.11899000E-02	-1.61287000E-02	-7.59575000E-03
					-6.17935000E-03	-1.81802000E-02	 1.83660000E-03
					-6.29461000E-03	-2.00843000E-02	 7.46427000E-03
					-1.09807000E-02	-2.07147000E-02	 6.27008000E-03
					-1.86684000E-02	-2.15719000E-02	 4.90225000E-03
					 3.17482000E-02	-8.88188000E-03	 8.71962000E-03
					 2.23423000E-02	-8.57428000E-03	 9.17930000E-03
					 9.62671000E-03	-1.00219000E-02	 5.20074000E-03
					-1.91948000E-03	-1.00180000E-02	 5.31178000E-03
					-1.89290000E-02	-8.98226000E-03	 8.36741000E-03
					 1.74171000E-02	-8.77950000E-03	-3.71594000E-03
					 1.30314000E-02	-1.42820000E-02	 2.93508000E-03
					 2.66134000E-03	-1.93428000E-02	 3.95060000E-03
					-6.58473000E-03	-2.14695000E-02	 4.02698000E-03
					-1.82415000E-02	-2.22172000E-02	 5.39019000E-03
					-1.26222000E-02	-1.81415000E-02	-9.48345000E-04
					-7.42214000E-03	-1.89410000E-02	 5.81249000E-03
					-7.31673000E-03	-1.86396000E-02	 9.02966000E-03
					-1.17721000E-02	-1.88234000E-02	 7.19873000E-03
					-1.92629000E-02	-1.87211000E-02	 5.01378000E-03
					 1.52917000E-03	-1.37076000E-02	 1.42860000E-03
					 1.95377000E-03	-1.57901000E-02	 7.80891000E-03
					-3.73884000E-03	-1.79032000E-02	 8.71982000E-03
					-1.09528000E-02	-1.80833000E-02	 6.23029000E-03
					-1.87965000E-02	-1.86591000E-02	 6.12655000E-03
					 1.82359000E-02	-9.17081000E-03	 5.13602000E-03
					 1.32633000E-02	-1.06392000E-02	 8.59475000E-03
					 2.07213000E-03	-1.44726000E-02	 6.21863000E-03
					-7.30553000E-03	-1.54590000E-02	 4.97160000E-03
					-1.88409000E-02	-1.53498000E-02	 7.28691000E-03
					 4.08040000E-02	-8.41408000E-03	 1.10904000E-02
					 3.27609000E-02	-9.05704000E-03	 1.05520000E-02
					 1.75042000E-02	-8.16506000E-03	 5.95633000E-03
					 1.07977000E-03	-5.74408000E-03	 6.66804000E-03
					-2.04161000E-02	-3.78609000E-03	 9.16388000E-03
					 1.82371000E-02	-9.48549000E-03	 9.40042000E-03
					 1.35668000E-02	-8.53194000E-03	 1.11076000E-02
					 2.32212000E-03	-1.16443000E-02	 8.13694000E-03
					-7.20949000E-03	-1.28736000E-02	 6.10863000E-03
					-1.84998000E-02	-1.22626000E-02	 7.80360000E-03
					 3.17592000E-02	-9.13623000E-03	 1.15352000E-02
					 2.24982000E-02	-5.59807000E-03	 1.18449000E-02
					 9.97775000E-03	-6.49732000E-03	 7.32612000E-03
					-1.70327000E-03	-6.14997000E-03	 6.51959000E-03
					-1.86713000E-02	-4.29242000E-03	 8.53366000E-03
					 4.07571000E-02	-8.55990000E-03	 1.26675000E-02
					 3.30759000E-02	-6.91669000E-03	 1.29020000E-02
					 1.77319000E-02	-5.60040000E-03	 7.54607000E-03
					 1.42668000E-03	-2.83875000E-03	 7.13600000E-03
					-1.99451000E-02	-3.74409000E-05	 8.77074000E-03
					 2.93093000E-03	-5.76787000E-03	-3.45281000E-03
					 2.47191000E-02	 8.48819000E-03	 5.06243000E-03
					 2.71101000E-04	-4.38799000E-03	-5.38551000E-03
					 5.66661000E-03	-3.92053000E-03	-3.30553000E-03
					 2.03707000E-03	-5.40318000E-03	-2.03892000E-03
					-7.30166000E-04	-3.94800000E-03	-4.26192000E-03
					 3.66893000E-03	-6.02717000E-03	-3.73763000E-03
					 5.00623000E-03	-4.34528000E-03	-2.99782000E-03
					 2.44929000E-04	-3.23142000E-03	-2.81039000E-03
					 1.23467000E-03	-6.77913000E-03	-3.30553000E-03
					 1.91883000E-03	-3.96233000E-03	-5.92864000E-03
					 3.29448000E-03	-2.91108000E-03	-5.38551000E-03
					 5.64951000E-03	-3.76712000E-03	-1.93127000E-03
					 1.36268000E-03	-4.69227000E-03	-3.51399000E-03
					 2.27535000E-03	-3.30796000E-03	-4.26192000E-03
					 1.26239000E-02	-1.56214000E-03	-1.34546000E-03
					 2.63461000E-03	-4.30200000E-03	-1.87166000E-03
					 1.53678000E-02	 1.38844000E-03	-4.72023000E-04
					 2.08047000E-02	 7.71267000E-03	 1.54496000E-03
					-2.56967000E-04	-5.88308000E-03	-1.95696000E-03
					 2.87659000E-02	 1.55103000E-02	 5.86276000E-03
					 5.16047000E-03	-2.89538000E-03	-2.18655000E-03
					 6.70260000E-03	 3.84567000E-03	-5.09345000E-03
					 9.87692000E-03	 8.61859000E-04	-2.49742000E-03
					 1.30677000E-02	 4.09479000E-03	-1.77317000E-03
					 1.88064000E-02	 1.02594000E-02	 7.49293000E-04
					 2.69663000E-02	 1.78181000E-02	 4.59422000E-03
					 3.63249000E-03	-3.95653000E-03	-2.65854000E-03
					 7.58409000E-03	-1.33967000E-03	-3.93078000E-03
					 3.97826000E-03	-4.34167000E-03	-1.95696000E-03
					 1.16969000E-02	 9.22116000E-04	-3.32958000E-03
					 1.68133000E-02	 5.24159000E-03	-9.85071000E-04
					 1.17598000E-02	 5.28506000E-03	-2.17501000E-03
					 2.25321000E-02	 1.12401000E-02	 2.69267000E-03
					 2.19901000E-03	-3.73833000E-03	-3.50108000E-03
					 4.67361000E-04	-6.61251000E-03	-2.99782000E-03
					 5.39396000E-03	 5.17293000E-04	-6.68814000E-03
					 3.57897000E-03	-1.31345000E-03	-3.02052000E-03
					 8.57692000E-03	 2.97679000E-03	-5.39060000E-03
					 1.27700000E-02	 7.90108000E-03	-4.51361000E-03
					 1.68818000E-02	 1.15453000E-02	-8.46869000E-07
					 1.85159000E-02	 1.38340000E-02	-1.34586000E-03
					 5.28673000E-03	-4.42937000E-03	-1.11062000E-03
					 2.54338000E-02	 1.86578000E-02	 3.77362000E-03
					 2.45815000E-03	-2.11177000E-03	-2.81039000E-03
					 1.04934000E-02	-3.00534000E-03	-2.38226000E-03
					 1.32418000E-02	-3.03399000E-04	-2.14746000E-03
					 1.94840000E-02	 2.62946000E-03	 1.19028000E-03
					 6.71522000E-03	-4.38905000E-03	-3.48947000E-03
					 2.04420000E-03	-2.87683000E-03	-5.43625000E-03
					-1.98773000E-03	-2.39074000E-03	-6.15976000E-03
					 3.85442000E-03	-5.15619000E-03	-3.11230000E-03
					 1.37383000E-03	-2.08855000E-03	-4.82403000E-03
					-2.03063000E-03	 5.74685000E-04	-4.78998000E-03
					 1.20957000E-02	 4.63192000E-03	-7.58577000E-03
					 4.20925000E-03	-8.07751000E-03	-1.29285000E-02
					-1.12840000E-03	-1.74051000E-02	-1.22701000E-02
					 7.58424000E-03	-7.23707000E-05	-9.33163000E-03
					 3.64919000E-03	-8.87002000E-03	-1.25958000E-02
					-2.20070000E-03	-1.53281000E-02	-1.37752000E-02
					 5.47035000E-03	-3.30983000E-03	-8.88204000E-03
					 3.46185000E-03	-7.43026000E-03	-9.99346000E-03
					-1.00098000E-03	-1.02789000E-02	-1.03827000E-02
					 4.52959000E-03	-4.10147000E-03	-8.61744000E-03
					 2.94814000E-03	-5.78985000E-03	-9.02723000E-03
					-3.14741000E-04	-6.13206000E-03	-8.12038000E-03
					-1.03277000E-03	-7.00801000E-03	-6.36762000E-04
					-3.24198000E-03	-3.41215000E-03	 1.35835000E-03
					-4.43076000E-03	 2.02698000E-04	 1.88083000E-03
					 1.82433000E-03	-5.67535000E-03	-5.08199000E-03
					 1.21317000E-03	-3.27104000E-03	-5.45354000E-03
					-1.85089000E-03	-1.35516000E-03	-4.52409000E-03
					 1.58860000E-02	 2.81443000E-03	-1.20202000E-04
					 6.23903000E-03	-7.98596000E-03	-3.91635000E-03
					-1.46355000E-03	-1.85680000E-02	-6.54440000E-03
					 1.10790000E-02	-1.57759000E-03	-4.02956000E-03
					 3.90338000E-03	-8.03815000E-03	-6.83551000E-03
					-2.12016000E-03	-1.41077000E-02	-7.89701000E-03
					 7.39212000E-03	-3.89007000E-03	-6.57341000E-03
					 3.17584000E-03	-5.53677000E-03	-7.99538000E-03
					-1.81666000E-03	-8.84214000E-03	-7.76746000E-03
					 4.15421000E-03	-4.28113000E-03	-2.66542000E-03
					 4.87755000E-04	-2.93769000E-03	-1.80137000E-03
					-3.13486000E-03	-9.30200000E-04	-1.01114000E-03
					 5.25401000E-03	-3.98666000E-03	-6.33524000E-03
					 1.88385000E-03	-3.75692000E-03	-7.81204000E-03
					-1.67154000E-03	-3.94956000E-03	-7.63739000E-03
					 2.68721000E-03	-5.29989000E-03	-4.27283000E-03
					 1.48878000E-03	-2.66341000E-03	-5.26012000E-03
					-1.75952000E-03	-3.70671000E-04	-5.09084000E-03
					-8.97489000E-05	-5.96469000E-03	-2.66542000E-03
					-1.73237000E-03	-2.42216000E-03	-1.80137000E-03
					-2.87443000E-03	 1.55893000E-03	-1.01114000E-03
					-1.15456000E-03	-6.57991000E-03	 9.80994000E-04
					-2.79234000E-03	-2.90192000E-03	 3.67550000E-03
					-4.66634000E-03	 6.09265000E-04	 3.67977000E-03
					 4.22513000E-03	-5.68569000E-03	-6.36762000E-04
					 1.20329000E-04	-4.70518000E-03	 1.35835000E-03
					-3.27635000E-03	-2.98969000E-03	 1.88083000E-03
					 1.11485000E-03	-6.09510000E-03	 1.53529000E-04
					-2.24702000E-03	-2.97940000E-03	 3.22927000E-03
					-5.14401000E-03	-7.07278000E-04	 3.83051000E-03
					 1.55890000E-03	-5.92213000E-03	-3.11249000E-03
					-2.11671000E-04	-2.98363000E-03	-2.04391000E-03
					-3.33915000E-03	 2.36978000E-05	-1.03859000E-03
					 3.83631000E-03	-5.46909000E-03	 9.80994000E-04
					 7.74863000E-05	-4.02644000E-03	 3.67550000E-03
					-3.73042000E-03	-2.86879000E-03	 3.67977000E-03
					 1.43888000E-03	-6.48479000E-03	-1.94383000E-03
					-2.54972000E-03	-3.73976000E-03	 8.08830000E-04
					-5.28920000E-03	-9.98707000E-04	 2.01170000E-03
					 1.73560000E-02	 1.26591000E-03	 2.90824000E-03
					 7.49283000E-03	-7.88843000E-03	 1.74339000E-03
					 1.78183000E-04	-1.62426000E-02	-1.23512000E-03
					 1.30205000E-02	-2.74486000E-03	-1.65476000E-03
					 4.01558000E-03	-6.84755000E-03	-2.81430000E-03
					-2.31303000E-03	-1.11050000E-02	-4.19094000E-03
					 8.10552000E-03	-3.81159000E-03	-5.27348000E-03
					 2.77681000E-03	-3.65944000E-03	-6.15684000E-03
					-2.42038000E-03	-5.25705000E-03	-6.13522000E-03
					 1.31127000E-02	-3.63931000E-03	-4.65168000E-04
					 6.17402000E-03	 3.67829000E-03	-8.48541000E-03
					 5.47087000E-03	 2.01666000E-03	-1.12579000E-02
					 6.06690000E-03	 1.07465000E-02	-5.86043000E-03
					-3.48036000E-03	-2.50723000E-03	-6.69206000E-03
					 3.05902000E-03	-2.59088000E-03	-6.19071000E-03
					 9.87188000E-03	-3.96117000E-03	-4.03384000E-03
					 1.42862000E-02	-2.08175000E-03	 4.23667000E-04
					 3.70515000E-03	 7.67757000E-03	-9.39570000E-03
					 6.19025000E-03	-3.80758000E-03	-1.17552000E-02
					 3.31085000E-03	-9.03385000E-03	-1.08437000E-02
					 4.89232000E-03	-7.20249000E-03	-1.04644000E-02
					 1.52666000E-02	-5.20798000E-04	 6.82507000E-04
					 7.75990000E-04	-1.18243000E-02	-1.17322000E-02
					 3.76599000E-03	-8.51654000E-03	-1.07678000E-02
					 5.56412000E-03	-4.17290000E-03	-1.04396000E-02
					-2.92088000E-03	-1.68446000E-03	-3.47837000E-03
					 3.06298000E-03	-2.83784000E-03	-2.69502000E-03
					 9.31508000E-03	-5.58392000E-03	-1.80981000E-03
					 1.38959000E-02	-1.83347000E-03	-8.97306000E-04
					 1.07157000E-02	-8.49481000E-03	 9.41984000E-03
					 1.13088000E-02	-8.55810000E-03	 1.29074000E-02
					 7.46897000E-03	-1.34739000E-02	 1.10448000E-02
					 2.62453000E-03	-1.88919000E-02	 7.34051000E-03
					-1.80854000E-03	-2.37507000E-02	 6.93295000E-03
					 3.47142000E-02	 2.30393000E-02	 1.02009000E-02
					 3.05138000E-02	 1.62769000E-02	 9.73647000E-03
					 1.93994000E-02	 6.07185000E-03	 5.35803000E-03
					 6.22564000E-03	-3.87185000E-03	 6.28867000E-03
					-9.95346000E-03	-1.79956000E-02	 9.19639000E-03
					 2.77058000E-02	 1.62471000E-02	 4.00856000E-03
					 2.50952000E-02	 7.32875000E-03	 5.43725000E-03
					 1.72648000E-02	-3.11714000E-03	 2.84111000E-03
					 9.85534000E-03	-1.16258000E-02	 3.84660000E-03
					-1.98129000E-03	-2.37550000E-02	 7.91208000E-03
					 5.23988000E-03	-2.01078000E-02	 5.33817000E-03
					 8.60379000E-03	-1.77047000E-02	 1.00037000E-02
					 7.40308000E-03	-1.69255000E-02	 9.93728000E-03
					 3.58573000E-03	-2.00325000E-02	 6.96586000E-03