<?xml version="1.0"?>
<VTKFile type="UnstructuredGrid" version="0.1" byte_order="LittleEndian">
	<UnstructuredGrid>
		<Piece NumberOfPoints="1720" NumberOfCells="832">
			<Points>
				<DataArray type="Float64" NumberOfComponents="3" format="ascii">
					-1.27552000E-02	 3.65262000E-01	 1.66670000E-01
					 1.51975000E-02	 9.95069000E-01	 1.66670000E-01
					 9.56709000E-02	 2.30970000E-01	 0.00000000E+00
					-1.03673000E-01	 2.27490000E-01	 1.66670000E-01
					-1.74497000E-02	 4.99695000E-01	 1.66670000E-01
					 1.43506000E-01	 3.46455000E-01	 0.00000000E+00
					-8.72514000E-03	 2.49855000E-01	 1.66670000E-01
					-1.55510000E-01	 3.41235000E-01	 1.66670000E-01
					 1.91342000E-01	 4.61940000E-01	 0.00000000E+00
					 8.75518000E-02	 2.34168000E-01	 1.66670000E-01
					 1.53086000E-17	 2.50008000E-01	 0.00000000E+00
					-9.56709000E-02	 2.30970000E-01	 0.00000000E+00
					 1.10401000E-01	 5.88124000E-01	 0.00000000E+00
					-5.87745000E-17	 3.65485000E-01	 0.00000000E+00
					-1.43506000E-01	 3.46455000E-01	 0.00000000E+00
					 1.12583000E-01	 6.88100000E-01	 0.00000000E+00
					-8.04061000E-17	 5.00000000E-01	 0.00000000E+00
					 8.81865000E-02	 8.00147000E-01	-3.79961000E-04
					 3.91018000E-02	 8.94866000E-01	 0.00000000E+00
					 1.75104000E-01	 4.68336000E-01	 1.66670000E-01
					 3.25615000E-02	 9.94652000E-01	 0.00000000E+00
					-9.64874000E-17	 6.00000000E-01	 0.00000000E+00
					-1.12583000E-01	 6.88100000E-01	 0.00000000E+00
					-1.12569000E-16	 7.00000000E-01	 0.00000000E+00
					 4.89859000E-17	 8.00000000E-01	 0.00000000E+00
					 5.51091000E-17	 9.00000000E-01	 0.00000000E+00
					 6.12323000E-17	 1.00000000E+00	 0.00000000E+00
					-2.09397000E-02	 5.99634000E-01	 1.66670000E-01
					-2.44296000E-02	 6.99574000E-01	 1.66670000E-01
					-2.07347000E-01	 4.54981000E-01	 1.66670000E-01
					-2.79196000E-02	 7.99513000E-01	 1.66670000E-01
					-3.14095000E-02	 8.99452000E-01	 1.66670000E-01
					-3.17591000E-02	 7.95756000E-01	 0.00000000E+00
					-3.48995000E-02	 9.99391000E-01	 1.66670000E-01
					-1.30859000E-01	 5.83913000E-01	 1.66670000E-01
					 1.31328000E-01	 3.51252000E-01	 1.66670000E-01
					-1.36529000E-01	 6.83752000E-01	 1.66670000E-01
					-1.10401000E-01	 5.88124000E-01	 0.00000000E+00
					-1.00993000E-01	 7.89959000E-01	 1.66670000E-01
					-1.01429000E-01	 8.89959000E-01	 1.66670000E-01
					-2.34783000E-02	 8.95412000E-01	 0.00000000E+00
					-1.01866000E-01	 9.89958000E-01	 1.66670000E-01
					 8.98088000E-02	 5.91619000E-01	 1.66670000E-01
					-1.51975000E-02	 9.95069000E-01	 0.00000000E+00
					-1.91342000E-01	 4.61940000E-01	 0.00000000E+00
					 8.84998000E-02	 6.91610000E-01	 1.66670000E-01
					 3.17591000E-02	 7.95756000E-01	 1.66670000E-01
					 2.34783000E-02	 8.95412000E-01	 1.66670000E-01
					 6.43091000E-02	 6.94278000E-01	 3.33337000E-01
					 4.00400000E-02	 6.96099000E-01	 5.00003000E-01
					 1.57221000E-02	 6.97072000E-01	 6.66670000E-01
					 6.91069000E-02	 5.94393000E-01	 3.33337000E-01
					 4.83208000E-02	 5.96442000E-01	 5.00003000E-01
					 2.74758000E-02	 5.97766000E-01	 6.66670000E-01
					-1.70673000E-01	 9.80440000E-01	 3.33337000E-01
					-2.21752000E-01	 9.70164000E-01	 5.00003000E-01
					-2.12967000E-01	 9.70344000E-01	 6.40408000E-01
					-1.63263000E-01	 8.80715000E-01	 3.33337000E-01
					-2.09132000E-01	 8.70964000E-01	 5.00003000E-01
					-2.28435000E-01	 8.70398000E-01	 6.68452000E-01
					-1.55852000E-01	 7.80990000E-01	 3.33337000E-01
					-1.96512000E-01	 7.71763000E-01	 5.00003000E-01
					-2.23326000E-01	 7.64435000E-01	 6.66670000E-01
					-1.60308000E-01	 6.78571000E-01	 3.33337000E-01
					-1.83892000E-01	 6.72563000E-01	 5.00003000E-01
					-2.07252000E-01	 6.65735000E-01	 6.66670000E-01
					 1.18989000E-01	 3.55621000E-01	 3.33337000E-01
					 1.06506000E-01	 3.59557000E-01	 5.00003000E-01
					 9.38925000E-02	 3.63055000E-01	 6.66670000E-01
					-1.51158000E-01	 5.78990000E-01	 3.33337000E-01
					-1.71272000E-01	 5.73362000E-01	 5.00003000E-01
					-1.91178000E-01	 5.67036000E-01	 6.66670000E-01
					-6.97565000E-02	 9.97564000E-01	 3.33337000E-01
					-1.04528000E-01	 9.94522000E-01	 5.00003000E-01
					-1.39173000E-01	 9.90268000E-01	 6.66670000E-01
					-6.27808000E-02	 8.97808000E-01	 3.33337000E-01
					-9.40756000E-02	 8.95070000E-01	 5.00003000E-01
					-1.25256000E-01	 8.91241000E-01	 6.66670000E-01
					-5.58052000E-02	 7.98051000E-01	 3.33337000E-01
					-8.36228000E-02	 7.95618000E-01	 5.00003000E-01
					-1.11338000E-01	 7.92214000E-01	 6.66670000E-01
					-2.23099000E-01	 4.47467000E-01	 3.33337000E-01
					-2.38579000E-01	 4.39409000E-01	 5.00003000E-01
					-2.53769000E-01	 4.30815000E-01	 6.66670000E-01
					-4.88295000E-02	 6.98295000E-01	 3.33337000E-01
					-7.31699000E-02	 6.96165000E-01	 5.00003000E-01
					-9.74212000E-02	 6.93188000E-01	 6.66670000E-01
					-4.18539000E-02	 5.98538000E-01	 3.33337000E-01
					-6.27171000E-02	 5.96713000E-01	 5.00003000E-01
					-8.35039000E-02	 5.94161000E-01	 6.66670000E-01
					 1.58652000E-01	 4.74162000E-01	 3.33337000E-01
					 1.42008000E-01	 4.79410000E-01	 5.00003000E-01
					 1.25190000E-01	 4.84074000E-01	 6.66670000E-01
					 7.93262000E-02	 2.37081000E-01	 3.33337000E-01
					 7.10038000E-02	 2.39705000E-01	 5.00003000E-01
					 6.25950000E-02	 2.42037000E-01	 6.66670000E-01
					-1.67324000E-01	 3.35600000E-01	 3.33337000E-01
					-1.78935000E-01	 3.29556000E-01	 5.00003000E-01
					-1.90327000E-01	 3.23111000E-01	 6.66670000E-01
					-1.74397000E-02	 2.49399000E-01	 3.33337000E-01
					-2.61329000E-02	 2.48638000E-01	 5.00003000E-01
					-3.47943000E-02	 2.47575000E-01	 6.66670000E-01
					-3.48782000E-02	 4.98782000E-01	 3.33337000E-01
					-5.22642000E-02	 4.97261000E-01	 5.00003000E-01
					-6.95866000E-02	 4.95134000E-01	 6.66670000E-01
					-1.11549000E-01	 2.23734000E-01	 3.33337000E-01
					-1.19290000E-01	 2.19704000E-01	 5.00003000E-01
					-1.26885000E-01	 2.15407000E-01	 6.66670000E-01
					-2.54949000E-02	 3.64595000E-01	 3.33337000E-01
					-3.82036000E-02	 3.63483000E-01	 5.00003000E-01
					-5.08657000E-02	 3.61928000E-01	 6.66670000E-01
					-1.95392000E-02	 9.94993000E-01	 3.33337000E-01
					-1.95392000E-02	 9.94993000E-01	 5.00003000E-01
					-6.53167000E-02	 9.91143000E-01	 6.44012000E-01
					-7.78541000E-03	 8.95686000E-01	 3.33337000E-01
					-7.78541000E-03	 8.95686000E-01	 5.00003000E-01
					-3.99021000E-02	 8.87826000E-01	 6.53001000E-01
					 3.96833000E-03	 7.96379000E-01	 3.33337000E-01
					 3.96833000E-03	 7.96379000E-01	 5.00003000E-01
					 3.96833000E-03	 7.96379000E-01	 6.66670000E-01
					 1.88491000E-01	 6.92919000E-01	 1.66670000E-01
					-2.42037000E-01	 7.77922000E-01	 1.66670000E-01
					-2.36368000E-01	 6.78083000E-01	 1.66670000E-01
					-2.14740000E-01	 7.85895000E-01	 0.00000000E+00
					 1.03275000E-01	 8.08133000E-01	 6.66670000E-01
					 1.31416000E-01	 8.04036000E-01	 5.00003000E-01
					 1.59396000E-01	 7.98960000E-01	 3.33337000E-01
					 2.12559000E-01	 6.85919000E-01	 0.00000000E+00
					-2.12559000E-01	 6.85919000E-01	 0.00000000E+00
					-2.59888000E-01	 6.69421000E-01	 3.33337000E-01
					-3.05952000E-01	 6.49661000E-01	 6.66670000E-01
					-2.83093000E-01	 6.59943000E-01	 5.00003000E-01
					 2.14740000E-01	 7.85895000E-01	 0.00000000E+00
					-3.22026000E-01	 7.48361000E-01	 6.66670000E-01
					-2.95713000E-01	 7.59143000E-01	 5.00003000E-01
					-2.69039000E-01	 7.69001000E-01	 3.33337000E-01
					 1.15029000E-01	 7.08826000E-01	 6.66670000E-01
					 1.39697000E-01	 7.04380000E-01	 5.00003000E-01
					 1.64194000E-01	 6.99075000E-01	 3.33337000E-01
					 1.87182000E-01	 7.92911000E-01	 1.66670000E-01
					-1.95392000E-02	 1.19499000E+00	 5.00003000E-01
					-1.95392000E-02	 1.39499000E+00	 5.00003000E-01
					-1.95392000E-02	 1.59499000E+00	 5.00003000E-01
					-1.95392000E-02	 1.79499000E+00	 5.00003000E-01
					-1.95392000E-02	 1.99499000E+00	 5.00003000E-01
					-1.51975000E-02	 1.19507000E+00	 0.00000000E+00
					-1.51975000E-02	 1.39507000E+00	 0.00000000E+00
					-1.51975000E-02	 1.59507000E+00	 0.00000000E+00
					-1.51975000E-02	 1.79507000E+00	 0.00000000E+00
					-1.51975000E-02	 1.99507000E+00	 0.00000000E+00
					-1.01866000E-01	 1.18996000E+00	 1.66670000E-01
					-1.01866000E-01	 1.38996000E+00	 1.66670000E-01
					-1.01866000E-01	 1.58996000E+00	 1.66670000E-01
					-1.01866000E-01	 1.78996000E+00	 1.66670000E-01
					-1.01866000E-01	 1.98996000E+00	 1.66670000E-01
					-6.53167000E-02	 1.19114000E+00	 6.44012000E-01
					-6.53167000E-02	 1.39114000E+00	 6.44012000E-01
					-6.53167000E-02	 1.59114000E+00	 6.44012000E-01
					-6.53167000E-02	 1.79114000E+00	 6.44012000E-01
					-6.53167000E-02	 1.99114000E+00	 6.44012000E-01
					-2.21752000E-01	 1.17016000E+00	 5.00003000E-01
					-2.21752000E-01	 1.37016000E+00	 5.00003000E-01
					-2.21752000E-01	 1.57016000E+00	 5.00003000E-01
					-2.21752000E-01	 1.77016000E+00	 5.00003000E-01
					-2.21752000E-01	 1.97016000E+00	 5.00003000E-01
					-2.12967000E-01	 1.17034000E+00	 6.40408000E-01
					-2.12967000E-01	 1.37034000E+00	 6.40408000E-01
					-2.12967000E-01	 1.57034000E+00	 6.40408000E-01
					-2.12967000E-01	 1.77034000E+00	 6.40408000E-01
					-2.12967000E-01	 1.97034000E+00	 6.40408000E-01
					-3.48995000E-02	 1.19939000E+00	 1.66670000E-01
					-3.48995000E-02	 1.39939000E+00	 1.66670000E-01
					-3.48995000E-02	 1.59939000E+00	 1.66670000E-01
					-3.48995000E-02	 1.79939000E+00	 1.66670000E-01
					-3.48995000E-02	 1.99939000E+00	 1.66670000E-01
					-1.70673000E-01	 1.18044000E+00	 3.33337000E-01
					-1.70673000E-01	 1.38044000E+00	 3.33337000E-01
					-1.70673000E-01	 1.58044000E+00	 3.33337000E-01
					-1.70673000E-01	 1.78044000E+00	 3.33337000E-01
					-1.70673000E-01	 1.98044000E+00	 3.33337000E-01
					-1.39173000E-01	 1.19027000E+00	 6.66670000E-01
					-1.39173000E-01	 1.39027000E+00	 6.66670000E-01
					-1.39173000E-01	 1.59027000E+00	 6.66670000E-01
[...]
			<PointData>
				<DataArray type="Float32" Name="U" NumberOfComponents="3" ComponentName0="D1" ComponentName1="D2" ComponentName2="D3" format="ascii">
					 2.98806000E-03	-7.31861000E-03	 3.62024000E-04
					 8.45522000E-04	-6.77889000E-03	 1.24607000E-03
					 3.53543000E-03	-7.07863000E-03	 5.38848000E-04
					 3.08381000E-03	-7.32302000E-03	-1.33389000E-04
					 2.93323000E-03	-7.28003000E-03	 5.43522000E-04
					 3.46506000E-03	-7.05417000E-03	 8.38503000E-04
					 3.01984000E-03	-7.33142000E-03	 2.22219000E-04
					 3.09900000E-03	-7.31726000E-03	-1.50692000E-04
					 3.32639000E-03	-7.04387000E-03	 1.11313000E-03
					 2.96678000E-03	-7.29653000E-03	 5.45105000E-04
					 3.57748000E-03	-7.10193000E-03	 2.17896000E-04
					 3.62574000E-03	-7.09750000E-03	-1.37061000E-04
					 3.43610000E-03	-6.92835000E-03	 1.15149000E-03
					 3.54543000E-03	-7.08024000E-03	 3.66737000E-04
					 3.64112000E-03	-7.09588000E-03	-1.50080000E-04
					 3.29174000E-03	-6.78325000E-03	 1.35942000E-03
					 3.50321000E-03	-7.01028000E-03	 5.72399000E-04
					 3.03458000E-03	-6.76243000E-03	 1.44108000E-03
					 2.64627000E-03	-6.80504000E-03	 1.38803000E-03
					 2.74560000E-03	-7.25797000E-03	 1.12616000E-03
					 1.76331000E-03	-6.65955000E-03	 1.37203000E-03
					 3.45784000E-03	-6.98212000E-03	 7.47952000E-04
					 3.29381000E-03	-7.22442000E-03	 4.29583000E-04
					 3.28849000E-03	-6.99749000E-03	 9.12523000E-04
					 3.04800000E-03	-7.00367000E-03	 1.06838000E-03
					 2.63055000E-03	-7.02626000E-03	 1.17296000E-03
					 1.70656000E-03	-7.04045000E-03	 1.17759000E-03
					 2.85495000E-03	-7.26693000E-03	 6.87499000E-04
					 2.64715000E-03	-7.29725000E-03	 8.23467000E-04
					 3.14214000E-03	-7.34794000E-03	-1.81602000E-04
					 2.35836000E-03	-7.31309000E-03	 9.49664000E-04
					 1.77695000E-03	-7.31925000E-03	 1.01413000E-03
					 3.05660000E-03	-7.08462000E-03	 9.22259000E-04
					 8.08552000E-04	-7.33220000E-03	 9.89647000E-04
					 2.85084000E-03	-7.41753000E-03	 2.61120000E-04
					 2.88969000E-03	-7.27055000E-03	 8.41421000E-04
					 2.65877000E-03	-7.57907000E-03	 3.55505000E-04
					 3.45577000E-03	-7.13092000E-03	 2.94009000E-04
					 2.37338000E-03	-7.57412000E-03	 6.41312000E-04
					 1.81365000E-03	-7.82785000E-03	 6.51472000E-04
					 2.65330000E-03	-7.16716000E-03	 1.03240000E-03
					 9.02932000E-04	-8.06464000E-03	 6.41574000E-04
					 2.83625000E-03	-7.19470000E-03	 1.06523000E-03
					 1.76843000E-03	-7.22441000E-03	 1.08804000E-03
					 3.68448000E-03	-7.13239000E-03	-1.93298000E-04
					 2.64217000E-03	-7.05280000E-03	 1.25148000E-03
					 2.36535000E-03	-7.10870000E-03	 1.17827000E-03
					 1.78049000E-03	-6.93030000E-03	 1.26816000E-03
					 2.01357000E-03	-7.26161000E-03	 1.16346000E-03
					 1.41732000E-03	-7.43745000E-03	 1.06402000E-03
					 8.68993000E-04	-7.62369000E-03	 9.36287000E-04
					 2.25948000E-03	-7.41630000E-03	 1.02609000E-03
					 1.69848000E-03	-7.63629000E-03	 9.83572000E-04
					 1.17819000E-03	-7.83094000E-03	 8.78678000E-04
					 1.94963000E-04	-8.70956000E-03	 3.84170000E-04
					-3.56588000E-04	-9.15453000E-03	 2.76515000E-04
					-7.69485000E-04	-8.97505000E-03	 3.79122000E-04
					 1.09743000E-03	-8.37712000E-03	 4.18574000E-04
					 4.95753000E-04	-8.76412000E-03	 3.16269000E-04
					-2.92892000E-05	-8.86897000E-03	 3.50056000E-04
					 1.71185000E-03	-8.04269000E-03	 4.33059000E-04
					 1.11580000E-03	-8.40264000E-03	 3.14503000E-04
					 5.77273000E-04	-8.63381000E-03	 2.72244000E-04
					 2.06198000E-03	-7.92459000E-03	 3.01484000E-04
					 1.50708000E-03	-8.20810000E-03	 2.68415000E-04
					 9.79726000E-04	-8.43671000E-03	 2.47183000E-04
					 2.33039000E-03	-7.50786000E-03	 8.54074000E-04
					 1.79540000E-03	-7.73911000E-03	 8.69521000E-04
					 1.26434000E-03	-7.98348000E-03	 8.80056000E-04
					 2.28739000E-03	-7.69614000E-03	 2.40039000E-04
					 1.73944000E-03	-7.95229000E-03	 2.26939000E-04
					 1.23293000E-03	-8.17895000E-03	 2.36916000E-04
					 3.16689000E-05	-7.64323000E-03	 8.18211000E-04
					-5.80577000E-04	-7.96109000E-03	 6.71442000E-04
					-1.03868000E-03	-8.25024000E-03	 5.51953000E-04
					 1.01580000E-03	-7.60636000E-03	 8.60425000E-04
					 3.73828000E-04	-7.89007000E-03	 7.20214000E-04
					-1.28420000E-04	-8.14847000E-03	 6.06513000E-04
					 1.67119000E-03	-7.58993000E-03	 8.27551000E-04
					 1.03175000E-03	-7.84077000E-03	 7.13356000E-04
					 4.77831000E-04	-8.07537000E-03	 6.12837000E-04
					 2.61907000E-03	-7.59653000E-03	-1.73241000E-04
					 2.08898000E-03	-7.83525000E-03	-1.54934000E-04
					 1.56500000E-03	-8.09173000E-03	-1.14157000E-04
					 2.03646000E-03	-7.56083000E-03	 7.45995000E-04
					 1.45395000E-03	-7.79869000E-03	 6.70963000E-04
					 9.18332000E-04	-8.01468000E-03	 5.97507000E-04
					 2.29031000E-03	-7.51487000E-03	 6.48470000E-04
					 1.73716000E-03	-7.74746000E-03	 6.10956000E-04
					 1.21880000E-03	-7.94887000E-03	 5.62843000E-04
					 2.15610000E-03	-7.49968000E-03	 1.13873000E-03
					 1.61560000E-03	-7.73643000E-03	 1.15819000E-03
					 1.08171000E-03	-7.99066000E-03	 1.18585000E-03
					 2.42124000E-03	-7.53202000E-03	 5.64585000E-04
					 1.89118000E-03	-7.76427000E-03	 5.85840000E-04
					 1.35838000E-03	-8.00427000E-03	 5.97726000E-04
					 2.56949000E-03	-7.55687000E-03	-1.42528000E-04
					 2.03945000E-03	-7.79090000E-03	-1.28388000E-04
					 1.50814000E-03	-8.03935000E-03	-1.13214000E-04
					 2.48208000E-03	-7.56993000E-03	 2.41960000E-04
					 1.95323000E-03	-7.80436000E-03	 2.65318000E-04
					 1.41916000E-03	-8.04511000E-03	 2.79774000E-04
					 2.37925000E-03	-7.51977000E-03	 5.32226000E-04
					 1.83762000E-03	-7.75343000E-03	 5.24035000E-04
					 1.31473000E-03	-7.96008000E-03	 5.05973000E-04
					 2.55418000E-03	-7.55941000E-03	-1.17334000E-04
					 2.02785000E-03	-7.79344000E-03	-9.63681000E-05
					 1.49468000E-03	-8.04001000E-03	-7.96074000E-05
					 2.44318000E-03	-7.55951000E-03	 3.74927000E-04
					 1.90973000E-03	-7.79376000E-03	 3.91621000E-04
					 1.37571000E-03	-8.02729000E-03	 3.97497000E-04
					 5.03987000E-05	-7.09560000E-03	 1.04171000E-03
					-6.15333000E-04	-7.07094000E-03	 9.75362000E-04
					-9.98177000E-04	-7.50681000E-03	 7.54190000E-04
					 1.00684000E-03	-7.18715000E-03	 1.09782000E-03
					 3.23616000E-04	-7.24089000E-03	 1.03222000E-03
					-7.85965000E-05	-7.58534000E-03	 8.32977000E-04
					 1.67550000E-03	-7.34670000E-03	 1.04699000E-03
					 1.02212000E-03	-7.44316000E-03	 1.00969000E-03
					 4.44725000E-04	-7.55354000E-03	 9.50530000E-04
					 2.60912000E-03	-6.80258000E-03	 1.66467000E-03
					 2.40635000E-03	-7.87104000E-03	 1.30455000E-04
					 2.65715000E-03	-7.88175000E-03	-6.60690000E-05
					 3.05856000E-03	-7.45865000E-03	 2.31211000E-04
					 3.97096000E-04	-7.23364000E-03	 1.32326000E-03
					 1.04838000E-03	-7.12222000E-03	 1.44417000E-03
					 1.72017000E-03	-7.00202000E-03	 1.59858000E-03
					 3.27223000E-03	-6.54578000E-03	 1.73786000E-03
					 3.28078000E-03	-7.45962000E-03	 3.38457000E-05
					 2.08016000E-03	-8.33337000E-03	-1.06160000E-04
					 1.05373000E-03	-8.95433000E-03	-1.44610000E-04
					 1.56454000E-03	-8.69994000E-03	-9.92276000E-05
					 3.07585000E-03	-6.56034000E-03	 1.88110000E-03
					 6.13284000E-04	-8.99517000E-03	-1.21556000E-04
					 1.15442000E-03	-8.71379000E-03	-2.67724000E-05
					 1.74434000E-03	-8.33264000E-03	 4.81646000E-05
					 7.74637000E-04	-7.16242000E-03	 1.34829000E-03
					 1.34999000E-03	-7.06011000E-03	 1.45414000E-03
					 1.95815000E-03	-6.97188000E-03	 1.57297000E-03
					 2.40742000E-03	-6.82550000E-03	 1.75909000E-03
					-3.16151000E-03	-6.70404000E-03	 8.06079000E-04
					-6.34718000E-03	-6.46555000E-03	 5.09874000E-04
					-9.92888000E-03	-6.33214000E-03	 1.26244000E-04
					-1.37079000E-02	-6.27708000E-03	-3.03374000E-04
					-1.75459000E-02	-6.26549000E-03	-7.44461000E-04
					-9.90336000E-04	-7.25901000E-03	 8.97969000E-04
					-4.36985000E-03	-7.28104000E-03	 5.67671000E-04
					-8.11534000E-03	-7.29092000E-03	 1.59202000E-04
					-1.20179000E-02	-7.29256000E-03	-2.85236000E-04
					-1.59477000E-02	-7.29180000E-03	-7.41055000E-04
					-1.72633000E-03	-8.30369000E-03	 4.92233000E-04
					-4.99401000E-03	-8.45886000E-03	 2.12828000E-04
					-8.65074000E-03	-8.54741000E-03	-1.55240000E-04
					-1.24915000E-02	-8.58446000E-03	-5.69860000E-04
					-1.63783000E-02	-8.59249000E-03	-1.00705000E-03
					-3.54785000E-03	-7.19257000E-03	 6.14054000E-04
					-6.73996000E-03	-6.99763000E-03	 3.37442000E-04
					-1.03236000E-02	-6.88540000E-03	-3.06536000E-05
					-1.41020000E-02	-6.83994000E-03	-4.48590000E-04
					-1.79372000E-02	-6.83091000E-03	-8.83849000E-04
					-2.81714000E-03	-9.56343000E-03	 1.41486000E-04
					-5.93293000E-03	-9.86284000E-03	-1.32044000E-04
					-9.47484000E-03	-1.00411000E-02	-4.99209000E-04
					-1.32359000E-02	-1.01240000E-02	-9.13430000E-04
					-1.70680000E-02	-1.01463000E-02	-1.34572000E-03
					-3.24209000E-03	-9.29851000E-03	 2.26606000E-04
					-6.37506000E-03	-9.49144000E-03	-6.74362000E-05
					-9.92842000E-03	-9.60593000E-03	-4.50933000E-04
					-1.36939000E-02	-9.65852000E-03	-8.77838000E-04
					-1.75261000E-02	-9.67217000E-03	-1.31513000E-03
					-1.85977000E-03	-7.30948000E-03	 8.01072000E-04
					-5.15498000E-03	-7.29494000E-03	 4.78897000E-04
					-8.82688000E-03	-7.28919000E-03	 7.75885000E-05
					-1.26738000E-02	-7.28931000E-03	-3.61408000E-04
					-1.65626000E-02	-7.29060000E-03	-8.12654000E-04
					-2.33546000E-03	-9.05364000E-03	 2.48761000E-04
					-5.50388000E-03	-9.30261000E-03	-1.49043000E-05
					-9.08683000E-03	-9.45198000E-03	-3.70503000E-04
					-1.28765000E-02	-9.51997000E-03	-7.76173000E-04
					-1.67273000E-02	-9.53761000E-03	-1.20632000E-03
					-3.59473000E-03	-8.23027000E-03	 3.99559000E-04
					-6.79059000E-03	-8.21196000E-03	 1.11964000E-04
					-1.03775000E-02	-8.20144000E-03	-2.63655000E-04
					-1.41581000E-02	-8.19899000E-03	-6.85021000E-04
					-1.79935000E-02	-8.19933000E-03	-1.12031000E-03
					-3.13341000E-03	-7.92675000E-03	 5.11921000E-04
					-6.32620000E-03	-7.90723000E-03	 2.20346000E-04
					-9.91384000E-03	-7.89901000E-03	-1.58121000E-04
					-1.36970000E-02	-7.89752000E-03	-5.81699000E-04
					-1.75358000E-02	-7.89828000E-03	-1.01876000E-03
					-2.56394000E-03	-7.61454000E-03	 6.46344000E-04
					-5.78470000E-03	-7.59707000E-03	 3.42422000E-04
					-9.39877000E-03	-7.59096000E-03	-4.44862000E-05
					-1.32028000E-02	-7.59167000E-03	-4.73954000E-04
					-1.70584000E-02	-7.59371000E-03	-9.16376000E-04
					-1.06958000E-03	-7.01846000E-03	 9.69326000E-04
					-4.46024000E-03	-7.00391000E-03	 6.25928000E-04
					-8.21129000E-03	-6.99566000E-03	 2.07165000E-04
					-1.21152000E-02	-6.99244000E-03	-2.44059000E-04
					-1.60447000E-02	-6.99191000E-03	-7.04184000E-04
					-2.53359000E-03	-6.88198000E-03	 8.57764000E-04
					-5.74501000E-03	-6.73557000E-03	 5.39259000E-04
					-9.35285000E-03	-6.65664000E-03	 1.40106000E-04
					-1.31539000E-02	-6.62790000E-03	-2.99597000E-04
					-1.70095000E-02	-6.62406000E-03	-7.48533000E-04
					-1.80329000E-03	-6.55877000E-03	 1.03992000E-03
					-5.08411000E-03	-6.41890000E-03	 6.94014000E-04
					-8.74745000E-03	-6.34418000E-03	 2.73366000E-04
					-1.25904000E-02	-6.31825000E-03	-1.80870000E-04
					-1.64791000E-02	-6.31521000E-03	-6.42171000E-04
					-9.90538000E-04	-6.51277000E-03	 1.14160000E-03
					-4.36650000E-03	-6.41870000E-03	 7.79717000E-04
					-8.10947000E-03	-6.36903000E-03	 3.44215000E-04
					-1.20104000E-02	-6.35305000E-03	-1.19580000E-04
					-1.59397000E-02	-6.35185000E-03	-5.87753000E-04
					 3.14801000E-03	-7.21733000E-03	-6.37636000E-04
					 6.42410000E-03	-5.24778000E-03	-9.34156000E-04
					 3.62574000E-03	-7.09750000E-03	-1.37061000E-04
					 3.11030000E-03	-7.20598000E-03	-7.33746000E-04
					 3.18374000E-03	-7.12034000E-03	-8.13703000E-04
					 3.64112000E-03	-7.09588000E-03	-1.50080000E-04
					 3.11960000E-03	-7.26845000E-03	-4.69902000E-04
					 3.14571000E-03	-7.10794000E-03	-1.05453000E-03
					 3.68448000E-03	-7.13239000E-03	-1.93298000E-04
					 3.08381000E-03	-7.32302000E-03	-1.33389000E-04
					 3.65021000E-03	-7.05414000E-03	-4.70476000E-04
					 3.64461000E-03	-7.00719000E-03	-7.32681000E-04
					 3.92091000E-03	-6.98730000E-03	-6.21000000E-04
					 3.67434000E-03	-7.00473000E-03	-6.30559000E-04
					 3.68283000E-03	-6.91982000E-03	-1.05075000E-03
					 4.29001000E-03	-6.92915000E-03	-7.30587000E-04
					 3.68376000E-03	-6.92164000E-03	-7.88382000E-04
					 4.63953000E-03	-6.63558000E-03	-9.16765000E-04
					 5.08897000E-03	-6.11828000E-03	-1.12624000E-03
					 3.14214000E-03	-7.34794000E-03	-1.81602000E-04
					 6.39679000E-03	-5.21685000E-03	-9.98739000E-04
					 3.74717000E-03	-6.84398000E-03	-8.88583000E-04
					 3.70066000E-03	-6.39654000E-03	-1.17778000E-03
					 3.99486000E-03	-6.64741000E-03	-9.82753000E-04
					 4.31538000E-03	-6.36381000E-03	-1.08098000E-03
					 4.83491000E-03	-5.82757000E-03	-1.11095000E-03
					 5.99156000E-03	-4.67394000E-03	-9.63878000E-04
					 3.26688000E-03	-7.00732000E-03	-9.30496000E-04
					 3.53218000E-03	-6.76099000E-03	-1.02899000E-03
					 3.23211000E-03	-6.95140000E-03	-1.38299000E-03
					 3.88472000E-03	-6.41110000E-03	-1.12250000E-03
					 4.60128000E-03	-5.71102000E-03	-1.11950000E-03
					 4.19108000E-03	-6.27128000E-03	-1.12262000E-03
					 5.78871000E-03	-4.52759000E-03	-9.63102000E-04
					 3.16097000E-03	-6.87680000E-03	-1.22817000E-03
					 3.09900000E-03	-7.31726000E-03	-1.50692000E-04
					 3.18136000E-03	-6.45067000E-03	-1.25957000E-03
					 3.64733000E-03	-6.72024000E-03	-1.13359000E-03
					 3.54168000E-03	-6.11307000E-03	-1.26739000E-03
					 3.93237000E-03	-5.13876000E-03	-1.16222000E-03
					 4.62727000E-03	-5.67958000E-03	-1.09410000E-03
					 4.77103000E-03	-3.74849000E-03	-1.01490000E-03
					 3.44836000E-03	-7.14799000E-03	-6.07419000E-04
					 5.68161000E-03	-4.52044000E-03	-9.61340000E-04
					 3.77300000E-03	-6.77430000E-03	-1.38649000E-03
					 3.85417000E-03	-7.05913000E-03	-7.47992000E-04
					 4.12332000E-03	-6.66150000E-03	-9.79660000E-04
					 5.07398000E-03	-6.18595000E-03	-1.05060000E-03
					 3.44071000E-03	-7.24516000E-03	-7.73739000E-04
					 3.00528000E-03	-7.49479000E-03	-7.81491000E-04
					 2.47987000E-03	-7.76230000E-03	-7.63368000E-04
					 2.95972000E-03	-7.36287000E-03	-6.24606000E-04
					 2.45864000E-03	-7.59834000E-03	-6.31475000E-04
					 1.88582000E-03	-7.87535000E-03	-5.91395000E-04
					 3.90982000E-03	-3.41318000E-03	-1.23381000E-03
					 3.09602000E-03	-3.50559000E-03	-1.54038000E-03
					 2.99275000E-03	-4.29248000E-03	-1.61988000E-03
					 3.21823000E-03	-4.88649000E-03	-1.34414000E-03
					 2.54854000E-03	-4.96043000E-03	-1.59791000E-03
					 2.08583000E-03	-5.45652000E-03	-1.81980000E-03
					 2.87548000E-03	-6.00231000E-03	-1.40914000E-03
					 2.24263000E-03	-6.08745000E-03	-1.57496000E-03
					 1.65589000E-03	-6.37944000E-03	-1.74485000E-03
					 2.59614000E-03	-6.54317000E-03	-1.35158000E-03
					 2.01627000E-03	-6.74670000E-03	-1.47510000E-03
					 1.41897000E-03	-7.03479000E-03	-1.63942000E-03
					 2.56949000E-03	-7.55687000E-03	-1.42528000E-04
					 2.03945000E-03	-7.79090000E-03	-1.28388000E-04
					 1.50814000E-03	-8.03935000E-03	-1.13214000E-04
					 2.60590000E-03	-7.05364000E-03	-1.27837000E-03
					 2.06770000E-03	-7.28781000E-03	-1.33750000E-03
					 1.47436000E-03	-7.55941000E-03	-1.47656000E-03
					 5.39765000E-03	-4.49689000E-03	-9.94804000E-04
					 4.78551000E-03	-4.65142000E-03	-1.06829000E-03
					 4.02102000E-03	-5.02794000E-03	-1.18340000E-03
					 4.23998000E-03	-5.70554000E-03	-1.14132000E-03
					 3.71890000E-03	-5.83761000E-03	-1.18627000E-03
					 3.05708000E-03	-6.16366000E-03	-1.27007000E-03
					 3.46375000E-03	-6.48454000E-03	-1.15510000E-03
					 2.99205000E-03	-6.63245000E-03	-1.19863000E-03
					 2.42221000E-03	-6.89038000E-03	-1.26373000E-03
					 2.71592000E-03	-7.13356000E-03	-1.38373000E-03
					 2.18780000E-03	-7.36187000E-03	-1.37730000E-03
					 1.66607000E-03	-7.60844000E-03	-1.34729000E-03
					 3.04206000E-03	-6.91762000E-03	-1.07849000E-03
					 2.53044000E-03	-7.12778000E-03	-1.13064000E-03
					 1.94704000E-03	-7.39591000E-03	-1.19407000E-03
					 2.73560000E-03	-7.20929000E-03	-9.73669000E-04
					 2.20921000E-03	-7.44616000E-03	-1.01384000E-03
					 1.62113000E-03	-7.71932000E-03	-1.06080000E-03
					 2.61907000E-03	-7.59653000E-03	-1.73241000E-04
					 2.08898000E-03	-7.83525000E-03	-1.54934000E-04
					 1.56500000E-03	-8.09173000E-03	-1.14157000E-04
					 2.55418000E-03	-7.55941000E-03	-1.17334000E-04
					 2.02785000E-03	-7.79344000E-03	-9.63681000E-05
					 1.49468000E-03	-8.04001000E-03	-7.96074000E-05
					 2.61850000E-03	-7.31777000E-03	-1.05564000E-03
					 2.09124000E-03	-7.54685000E-03	-1.05109000E-03
					 1.56401000E-03	-7.79554000E-03	-1.04016000E-03
					 2.59280000E-03	-7.49704000E-03	-4.59157000E-04
					 2.06849000E-03	-7.72990000E-03	-4.42694000E-04
					 1.53603000E-03	-7.97754000E-03	-4.28416000E-04
					 2.65227000E-03	-7.33156000E-03	-8.33551000E-04
					 2.12478000E-03	-7.57055000E-03	-8.48873000E-04
					 1.55715000E-03	-7.81457000E-03	-8.63575000E-04
					 2.58156000E-03	-7.42647000E-03	-7.30520000E-04
					 2.05702000E-03	-7.65678000E-03	-7.22125000E-04
					 1.53041000E-03	-7.90371000E-03	-7.10308000E-04
					 2.62299000E-03	-7.43979000E-03	-6.33129000E-04
					 2.09613000E-03	-7.67364000E-03	-6.22697000E-04
					 1.55752000E-03	-7.91414000E-03	-6.15281000E-04
					 6.03904000E-03	-5.17649000E-03	-9.04350000E-04
					 5.89178000E-03	-5.65895000E-03	-7.79976000E-04
					 4.98534000E-03	-5.77041000E-03	-8.25590000E-04
					 4.75408000E-03	-6.19027000E-03	-1.03814000E-03
					 4.54289000E-03	-6.52674000E-03	-9.17186000E-04
					 3.72103000E-03	-6.74608000E-03	-8.71480000E-04
					 3.74366000E-03	-6.76753000E-03	-9.92519000E-04
					 3.45871000E-03	-7.06362000E-03	-9.13123000E-04
					 3.05428000E-03	-7.40236000E-03	-8.00784000E-04
					 4.19483000E-03	-7.32769000E-03	-5.26592000E-04
					 3.13835000E-03	-5.79528000E-03	-1.66672000E-03
					 2.82465000E-03	-6.08407000E-03	-1.44420000E-03
					 3.70457000E-03	-5.81751000E-03	-1.58045000E-03
					 3.45819000E-03	-7.68065000E-03	-5.58067000E-04
					 3.77394000E-03	-7.44194000E-03	-5.18732000E-04
					 4.08403000E-03	-7.21523000E-03	-5.44221000E-04
					 4.61647000E-03	-7.20903000E-03	-4.54545000E-04
					 3.42880000E-03	-6.09163000E-03	-1.39757000E-03
					 2.11909000E-03	-6.09165000E-03	-1.57760000E-03
					 7.76538000E-04	-6.55252000E-03	-1.91809000E-03
					 1.40613000E-03	-6.25650000E-03	-1.78539000E-03
					 4.84535000E-03	-6.94335000E-03	-5.38300000E-04
					 1.21332000E-03	-6.02087000E-03	-2.00333000E-03
					 1.84839000E-03	-5.78474000E-03	-1.90547000E-03
					 2.50200000E-03	-5.71050000E-03	-1.77846000E-03
					 3.12171000E-03	-8.18809000E-03	-5.66477000E-04
					 3.51037000E-03	-7.85011000E-03	-5.41934000E-04
					 3.84208000E-03	-7.52838000E-03	-5.55406000E-04
					 4.41394000E-03	-7.05352000E-03	-5.75683000E-04
					 9.44408000E-03	-3.11321000E-03	-1.72838000E-04
					 1.36308000E-02	 4.04396000E-04	 6.59338000E-04
					 1.81772000E-02	 4.56412000E-03	 1.64335000E-03
					 2.28672000E-02	 9.08413000E-03	 2.70365000E-03
					 2.75707000E-02	 1.37474000E-02	 3.77600000E-03
					 9.10750000E-03	-1.07554000E-03	-3.17192000E-04
					 1.32963000E-02	 3.11833000E-03	 5.80758000E-04
					 1.79321000E-02	 7.74020000E-03	 1.61670000E-03
					 2.27506000E-02	 1.25359000E-02	 2.71169000E-03
					 2.75866000E-02	 1.73591000E-02	 3.81995000E-03
					 7.73729000E-03	-2.52335000E-04	-4.73378000E-04
					 1.15928000E-02	 3.93355000E-03	 3.09352000E-04
					 1.60003000E-02	 8.51724000E-03	 1.25457000E-03
					 2.06838000E-02	 1.32638000E-02	 2.28271000E-03
					 2.54451000E-02	 1.80335000E-02	 3.34862000E-03
					 8.45238000E-03	-3.20316000E-03	-2.87063000E-04
					 1.25702000E-02	 3.44704000E-04	 4.94950000E-04
					 1.70755000E-02	 4.51073000E-03	 1.43925000E-03
					 2.17419000E-02	 9.02783000E-03	 2.46950000E-03