<?xml version="1.0"?>
<VTKFile type="UnstructuredGrid" version="0.1" byte_order="LittleEndian">
	<UnstructuredGrid>
		<Piece NumberOfPoints="1720" NumberOfCells="832">
			<Points>
				<DataArray type="Float64" NumberOfComponents="3" format="ascii">
					-1.27552000E-02	 3.65262000E-01	 1.66670000E-01
					 1.51975000E-02	 9.95069000E-01	 1.66670000E-01
					 9.56709000E-02	 2.30970000E-01	 0.00000000E+00
					-1.03673000E-01	 2.27490000E-01	 1.66670000E-01
					-1.74497000E-02	 4.99695000E-01	 1.66670000E-01
					 1.43506000E-01	 3.46455000E-01	 0.00000000E+00
					-8.72514000E-03	 2.49855000E-01	 1.66670000E-01
					-1.55510000E-01	 3.41235000E-01	 1.66670000E-01
					 1.91342000E-01	 4.61940000E-01	 0.00000000E+00
					 8.75518000E-02	 2.34168000E-01	 1.66670000E-01
					 1.53086000E-17	 2.50008000E-01	 0.00000000E+00
					-9.56709000E-02	 2.30970000E-01	 0.00000000E+00
					 1.10401000E-01	 5.88124000E-01	 0.00000000E+00
					-5.87745000E-17	 3.65485000E-01	 0.00000000E+00
					-1.43506000E-01	 3.46455000E-01	 0.00000000E+00
					 1.12583000E-01	 6.88100000E-01	 0.00000000E+00
					-8.04061000E-17	 5.00000000E-01	 0.00000000E+00
					 8.81865000E-02	 8.00147000E-01	-3.79961000E-04
					 3.91018000E-02	 8.94866000E-01	 0.00000000E+00
					 1.75104000E-01	 4.68336000E-01	 1.66670000E-01
					 3.25615000E-02	 9.94652000E-01	 0.00000000E+00
					-9.64874000E-17	 6.00000000E-01	 0.00000000E+00
					-1.12583000E-01	 6.88100000E-01	 0.00000000E+00
					-1.12569000E-16	 7.00000000E-01	 0.00000000E+00
					 4.89859000E-17	 8.00000000E-01	 0.00000000E+00
					 5.51091000E-17	 9.00000000E-01	 0.00000000E+00
					 6.12323000E-17	 1.00000000E+00	 0.00000000E+00
					-2.09397000E-02	 5.99634000E-01	 1.66670000E-01
					-2.44296000E-02	 6.99574000E-01	 1.66670000E-01
					-2.07347000E-01	 4.54981000E-01	 1.66670000E-01
					-2.79196000E-02	 7.99513000E-01	 1.66670000E-01
					-3.14095000E-02	 8.99452000E-01	 1.66670000E-01
					-3.17591000E-02	 7.95756000E-01	 0.00000000E+00
					-3.48995000E-02	 9.99391000E-01	 1.66670000E-01
					-1.30859000E-01	 5.83913000E-01	 1.66670000E-01
					 1.31328000E-01	 3.51252000E-01	 1.66670000E-01
					-1.36529000E-01	 6.83752000E-01	 1.66670000E-01
					-1.10401000E-01	 5.88124000E-01	 0.00000000E+00
					-1.00993000E-01	 7.89959000E-01	 1.66670000E-01
					-1.01429000E-01	 8.89959000E-01	 1.66670000E-01
					-2.34783000E-02	 8.95412000E-01	 0.00000000E+00
					-1.01866000E-01	 9.89958000E-01	 1.66670000E-01
					 8.98088000E-02	 5.91619000E-01	 1.66670000E-01
					-1.51975000E-02	 9.95069000E-01	 0.00000000E+00
					-1.91342000E-01	 4.61940000E-01	 0.00000000E+00
					 8.84998000E-02	 6.91610000E-01	 1.66670000E-01
					 3.17591000E-02	 7.95756000E-01	 1.66670000E-01
					 2.34783000E-02	 8.95412000E-01	 1.66670000E-01
					 6.43091000E-02	 6.94278000E-01	 3.33337000E-01
					 4.00400000E-02	 6.96099000E-01	 5.00003000E-01
					 1.57221000E-02	 6.97072000E-01	 6.66670000E-01
					 6.91069000E-02	 5.94393000E-01	 3.33337000E-01
					 4.83208000E-02	 5.96442000E-01	 5.00003000E-01
					 2.74758000E-02	 5.97766000E-01	 6.66670000E-01
					-1.70673000E-01	 9.80440000E-01	 3.33337000E-01
					-2.21752000E-01	 9.70164000E-01	 5.00003000E-01
					-2.12967000E-01	 9.70344000E-01	 6.40408000E-01
					-1.63263000E-01	 8.80715000E-01	 3.33337000E-01
					-2.09132000E-01	 8.70964000E-01	 5.00003000E-01
					-2.28435000E-01	 8.70398000E-01	 6.68452000E-01
					-1.55852000E-01	 7.80990000E-01	 3.33337000E-01
					-1.96512000E-01	 7.71763000E-01	 5.00003000E-01
					-2.23326000E-01	 7.64435000E-01	 6.66670000E-01
					-1.60308000E-01	 6.78571000E-01	 3.33337000E-01
					-1.83892000E-01	 6.72563000E-01	 5.00003000E-01
					-2.07252000E-01	 6.65735000E-01	 6.66670000E-01
					 1.18989000E-01	 3.55621000E-01	 3.33337000E-01
					 1.06506000E-01	 3.59557000E-01	 5.00003000E-01
					 9.38925000E-02	 3.63055000E-01	 6.66670000E-01
					-1.51158000E-01	 5.78990000E-01	 3.33337000E-01
					-1.71272000E-01	 5.73362000E-01	 5.00003000E-01
					-1.91178000E-01	 5.67036000E-01	 6.66670000E-01
					-6.97565000E-02	 9.97564000E-01	 3.33337000E-01
					-1.04528000E-01	 9.94522000E-01	 5.00003000E-01
					-1.39173000E-01	 9.90268000E-01	 6.66670000E-01
					-6.27808000E-02	 8.97808000E-01	 3.33337000E-01
					-9.40756000E-02	 8.95070000E-01	 5.00003000E-01
					-1.25256000E-01	 8.91241000E-01	 6.66670000E-01
					-5.58052000E-02	 7.98051000E-01	 3.33337000E-01
					-8.36228000E-02	 7.95618000E-01	 5.00003000E-01
					-1.11338000E-01	 7.92214000E-01	 6.66670000E-01
					-2.23099000E-01	 4.47467000E-01	 3.33337000E-01
					-2.38579000E-01	 4.39409000E-01	 5.00003000E-01
					-2.53769000E-01	 4.30815000E-01	 6.66670000E-01
					-4.88295000E-02	 6.98295000E-01	 3.33337000E-01
					-7.31699000E-02	 6.96165000E-01	 5.00003000E-01
					-9.74212000E-02	 6.93188000E-01	 6.66670000E-01
					-4.18539000E-02	 5.98538000E-01	 3.33337000E-01
					-6.27171000E-02	 5.96713000E-01	 5.00003000E-01
					-8.35039000E-02	 5.94161000E-01	 6.66670000E-01
					 1.58652000E-01	 4.74162000E-01	 3.33337000E-01
					 1.42008000E-01	 4.79410000E-01	 5.00003000E-01
					 1.25190000E-01	 4.84074000E-01	 6.66670000E-01
					 7.93262000E-02	 2.37081000E-01	 3.33337000E-01
					 7.10038000E-02	 2.39705000E-01	 5.00003000E-01
					 6.25950000E-02	 2.42037000E-01	 6.66670000E-01
					-1.67324000E-01	 3.35600000E-01	 3.33337000E-01
					-1.78935000E-01	 3.29556000E-01	 5.00003000E-01
					-1.90327000E-01	 3.23111000E-01	 6.66670000E-01
					-1.74397000E-02	 2.49399000E-01	 3.33337000E-01
					-2.61329000E-02	 2.48638000E-01	 5.00003000E-01
					-3.47943000E-02	 2.47575000E-01	 6.66670000E-01
					-3.48782000E-02	 4.98782000E-01	 3.33337000E-01
					-5.22642000E-02	 4.97261000E-01	 5.00003000E-01
					-6.95866000E-02	 4.95134000E-01	 6.66670000E-01
					-1.11549000E-01	 2.23734000E-01	 3.33337000E-01
					-1.19290000E-01	 2.19704000E-01	 5.00003000E-01
					-1.26885000E-01	 2.15407000E-01	 6.66670000E-01
					-2.54949000E-02	 3.64595000E-01	 3.33337000E-01
					-3.82036000E-02	 3.63483000E-01	 5.00003000E-01
					-5.08657000E-02	 3.61928000E-01	 6.66670000E-01
					-1.95392000E-02	 9.94993000E-01	 3.33337000E-01
					-1.95392000E-02	 9.94993000E-01	 5.00003000E-01
					-6.53167000E-02	 9.91143000E-01	 6.44012000E-01
					-7.78541000E-03	 8.95686000E-01	 3.33337000E-01
					-7.78541000E-03	 8.95686000E-01	 5.00003000E-01
					-3.99021000E-02	 8.87826000E-01	 6.53001000E-01
					 3.96833000E-03	 7.96379000E-01	 3.33337000E-01
					 3.96833000E-03	 7.96379000E-01	 5.00003000E-01
					 3.96833000E-03	 7.96379000E-01	 6.66670000E-01
					 1.88491000E-01	 6.92919000E-01	 1.66670000E-01
					-2.42037000E-01	 7.77922000E-01	 1.66670000E-01
					-2.36368000E-01	 6.78083000E-01	 1.66670000E-01
					-2.14740000E-01	 7.85895000E-01	 0.00000000E+00
					 1.03275000E-01	 8.08133000E-01	 6.66670000E-01
					 1.31416000E-01	 8.04036000E-01	 5.00003000E-01
					 1.59396000E-01	 7.98960000E-01	 3.33337000E-01
					 2.12559000E-01	 6.85919000E-01	 0.00000000E+00
					-2.12559000E-01	 6.85919000E-01	 0.00000000E+00
					-2.59888000E-01	 6.69421000E-01	 3.33337000E-01
					-3.05952000E-01	 6.49661000E-01	 6.66670000E-01
					-2.83093000E-01	 6.59943000E-01	 5.00003000E-01
					 2.14740000E-01	 7.85895000E-01	 0.00000000E+00
					-3.22026000E-01	 7.48361000E-01	 6.66670000E-01
					-2.95713000E-01	 7.59143000E-01	 5.00003000E-01
					-2.69039000E-01	 7.69001000E-01	 3.33337000E-01
					 1.15029000E-01	 7.08826000E-01	 6.66670000E-01
					 1.39697000E-01	 7.04380000E-01	 5.00003000E-01
					 1.64194000E-01	 6.99075000E-01	 3.33337000E-01
					 1.87182000E-01	 7.92911000E-01	 1.66670000E-01
					-1.95392000E-02	 1.19499000E+00	 5.00003000E-01
					-1.95392000E-02	 1.39499000E+00	 5.00003000E-01
					-1.95392000E-02	 1.59499000E+00	 5.00003000E-01
					-1.95392000E-02	 1.79499000E+00	 5.00003000E-01
					-1.95392000E-02	 1.99499000E+00	 5.00003000E-01
					-1.51975000E-02	 1.19507000E+00	 0.00000000E+00
					-1.51975000E-02	 1.39507000E+00	 0.00000000E+00
					-1.51975000E-02	 1.59507000E+00	 0.00000000E+00
					-1.51975000E-02	 1.79507000E+00	 0.00000000E+00
					-1.51975000E-02	 1.99507000E+00	 0.00000000E+00
					-1.01866000E-01	 1.18996000E+00	 1.66670000E-01
					-1.01866000E-01	 1.38996000E+00	 1.66670000E-01
					-1.01866000E-01	 1.58996000E+00	 1.66670000E-01
					-1.01866000E-01	 1.78996000E+00	 1.66670000E-01
					-1.01866000E-01	 1.98996000E+00	 1.66670000E-01
					-6.53167000E-02	 1.19114000E+00	 6.44012000E-01
					-6.53167000E-02	 1.39114000E+00	 6.44012000E-01
					-6.53167000E-02	 1.59114000E+00	 6.44012000E-01
					-6.53167000E-02	 1.79114000E+00	 6.44012000E-01
					-6.53167000E-02	 1.99114000E+00	 6.44012000E-01
					-2.21752000E-01	 1.17016000E+00	 5.00003000E-01
					-2.21752000E-01	 1.37016000E+00	 5.00003000E-01
					-2.21752000E-01	 1.57016000E+00	 5.00003000E-01
					-2.21752000E-01	 1.77016000E+00	 5.00003000E-01
					-2.21752000E-01	 1.97016000E+00	 5.00003000E-01
					-2.12967000E-01	 1.17034000E+00	 6.40408000E-01
					-2.12967000E-01	 1.37034000E+00	 6.40408000E-01
					-2.12967000E-01	 1.57034000E+00	 6.40408000E-01
					-2.12967000E-01	 1.77034000E+00	 6.40408000E-01
					-2.12967000E-01	 1.97034000E+00	 6.40408000E-01
					-3.48995000E-02	 1.19939000E+00	 1.66670000E-01
					-3.48995000E-02	 1.39939000E+00	 1.66670000E-01
					-3.48995000E-02	 1.59939000E+00	 1.66670000E-01
					-3.48995000E-02	 1.79939000E+00	 1.66670000E-01
					-3.48995000E-02	 1.99939000E+00	 1.66670000E-01
					-1.70673000E-01	 1.18044000E+00	 3.33337000E-01
					-1.70673000E-01	 1.38044000E+00	 3.33337000E-01
					-1.70673000E-01	 1.58044000E+00	 3.33337000E-01
					-1.70673000E-01	 1.78044000E+00	 3.33337000E-01
					-1.70673000E-01	 1.98044000E+00	 3.33337000E-01
					-1.39173000E-01	 1.19027000E+00	 6.66670000E-01
					-1.39173000E-01	 1.39027000E+00	 6.66670000E-01
					-1.39173000E-01	 1.59027000E+00	 6.66670000E-01
[...]
			<PointData>
				<DataArray type="Float32" Name="U" NumberOfComponents="3" ComponentName0="D1" ComponentName1="D2" ComponentName2="D3" format="ascii">
					 1.82338000E-04	-1.98599000E-02	 6.01725000E-03
					-7.41325000E-03	-1.17523000E-03	-1.32806000E-02
					 4.14352000E-03	-1.40937000E-02	-2.17715000E-03
					-6.79711000E-04	-2.00005000E-02	 1.20549000E-02
					-3.55533000E-03	-1.56568000E-02	 6.85214000E-03
					 5.09715000E-04	-1.32230000E-02	-9.29475000E-04
					 3.83358000E-03	-1.99622000E-02	 7.79763000E-03
					 2.41397000E-03	-1.80497000E-02	 1.12380000E-02
					-3.52029000E-03	-1.09212000E-02	 1.09638000E-03
					 7.99441000E-03	-1.63430000E-02	-2.05718000E-03
					-3.49408000E-04	-1.91744000E-02	 6.75904000E-03
					-1.80407000E-03	-2.04383000E-02	 1.20795000E-02
					-1.02762000E-02	-1.33502000E-02	 1.62428000E-03
					-5.05639000E-04	-1.80967000E-02	 6.19634000E-03
					 2.03679000E-03	-1.93334000E-02	 1.15029000E-02
					-1.25151000E-02	-1.23145000E-02	-3.44312000E-03
					-5.71232000E-03	-1.80207000E-02	 6.87008000E-03
					-2.04676000E-02	-1.17690000E-02	-1.17232000E-02
					-2.78051000E-02	-8.34049000E-03	-1.69163000E-02
					-3.45388000E-03	-8.54334000E-03	 1.62800000E-03
					-1.62838000E-02	-8.03037000E-04	-1.04539000E-02
					-1.02105000E-02	-1.69063000E-02	 4.41172000E-03
					-1.48927000E-02	-2.17887000E-02	 2.62626000E-04
					-1.42282000E-02	-1.48639000E-02	-1.81712000E-03
					-2.29876000E-02	-1.28112000E-02	-9.58044000E-03
					-2.67208000E-02	-5.78864000E-03	-1.36450000E-02
					-1.47266000E-02	 4.44233000E-03	-8.49883000E-03
					-6.85403000E-03	-1.11078000E-02	 3.42540000E-03
					-1.24673000E-02	-7.78340000E-03	-3.39101000E-03
					 3.74598000E-03	-1.43660000E-02	 6.65990000E-03
					-1.68051000E-02	-5.68927000E-03	-1.14707000E-02
					-1.37384000E-02	-2.18775000E-03	-1.49887000E-02
					-2.28132000E-02	-1.53568000E-02	-8.23951000E-03
					-6.69985000E-03	 2.59520000E-03	-1.07984000E-02
					-6.22385000E-03	-1.40327000E-02	 4.80241000E-03
					 7.52310000E-04	-1.33502000E-02	-1.47215000E-03
					-1.14332000E-02	-1.12738000E-02	-8.45304000E-04
					-1.01437000E-02	-1.99211000E-02	 5.39375000E-03
					-1.68960000E-02	-6.83035000E-03	-7.61731000E-03
					-1.24059000E-02	 1.18653000E-03	-1.05068000E-02
					-2.60332000E-02	-5.03491000E-03	-1.14978000E-02
					-6.79947000E-03	 6.91376000E-03	-9.34879000E-03
					-7.11584000E-03	-8.06982000E-03	 2.40474000E-03
					-1.49435000E-02	 6.69915000E-03	-8.02999000E-03
					 7.17416000E-04	-1.87805000E-02	 6.07137000E-03
					-1.16035000E-02	-4.07685000E-03	-4.11823000E-03
					-1.68415000E-02	-5.60039000E-03	-1.24702000E-02
					-1.45777000E-02	-4.60560000E-03	-1.86885000E-02
					-7.45222000E-03	 1.20855000E-03	-4.28901000E-03
					 1.31749000E-04	 3.46803000E-03	-4.86343000E-03
					 1.23236000E-03	 1.16625000E-02	-7.06935000E-03
					-5.40114000E-03	-5.62731000E-03	 1.85634000E-03
					 1.48181000E-03	-3.47473000E-03	-4.40698000E-04
					 7.03352000E-03	 2.47966000E-03	-4.40113000E-03
					-4.91625000E-05	 6.22794000E-03	-1.38741000E-02
					-3.93350000E-03	 6.89797000E-03	-1.94968000E-02
					-1.14584000E-02	 6.36192000E-03	-1.95348000E-02
					-2.57305000E-03	 2.63959000E-03	-1.23154000E-02
					-2.11855000E-03	 4.79900000E-03	-1.80101000E-02
					-6.17802000E-03	 8.10748000E-03	-2.05393000E-02
					-5.33660000E-03	-1.62154000E-03	-8.68280000E-03
					 1.41792000E-03	 3.12143000E-03	-1.12155000E-02
					 1.65193000E-03	 9.28184000E-03	-1.24849000E-02
					-5.67266000E-03	-4.48971000E-03	-3.60073000E-03
					 1.62978000E-03	 9.25415000E-04	-5.14374000E-03
					 3.71871000E-03	 7.13545000E-03	-5.35363000E-03
					 2.35977000E-03	-1.08684000E-02	 1.21541000E-03
					 3.93296000E-03	-1.01652000E-02	 1.36635000E-03
					 5.67352000E-03	-7.06653000E-03	 1.68250000E-03
					-2.48535000E-04	-7.58251000E-03	 3.81398000E-03
					 4.09776000E-03	-2.95063000E-03	 4.44946000E-03
					 8.45120000E-03	 2.99910000E-03	 3.36818000E-03
					-1.22442000E-03	 5.81271000E-03	-1.30337000E-02
					-4.68218000E-03	 1.02647000E-02	-1.33806000E-02
					-1.28124000E-02	 8.73609000E-03	-1.48398000E-02
					-3.69442000E-03	 2.43939000E-03	-1.40315000E-02
					-4.36232000E-03	 6.97434000E-03	-1.60420000E-02
					-6.67653000E-03	 1.08810000E-02	-1.70307000E-02
					-7.67931000E-03	-2.34758000E-04	-1.03025000E-02
					-2.68450000E-03	 2.85917000E-03	-1.31522000E-02
					-2.42175000E-03	 1.07784000E-02	-1.41470000E-02
					 6.31128000E-03	-9.24454000E-03	 8.19840000E-03
					 3.26781000E-03	-4.06082000E-03	 9.29561000E-03
					 4.97105000E-03	-2.30368000E-03	 7.21470000E-03
					-6.60577000E-03	-2.63125000E-03	-4.40652000E-03
					 1.53594000E-04	-8.64458000E-04	-5.39505000E-03
					 1.97127000E-03	 7.50561000E-03	-7.92380000E-03
					-2.78635000E-03	-5.54701000E-03	 1.76034000E-03
					 3.15710000E-03	-2.54252000E-03	 1.41888000E-03
					 7.26257000E-03	 3.75246000E-03	-5.76747000E-04
					-2.14652000E-03	-9.19402000E-03	 2.27287000E-03
					 3.31342000E-03	-8.73598000E-03	 1.55109000E-03
					 8.35611000E-03	-4.70885000E-03	 2.74500000E-04
					 7.97220000E-03	-1.12365000E-02	 1.06923000E-03
					 5.75037000E-03	-1.16539000E-02	 7.72521000E-04
					 6.05676000E-03	-9.13121000E-03	 2.36566000E-04
					 2.25438000E-03	-1.24937000E-02	 1.08415000E-02
					 2.30468000E-03	-7.31353000E-03	 9.71389000E-03
					 3.01913000E-03	-2.83836000E-03	 6.99102000E-03
					 4.69720000E-03	-1.33508000E-02	 9.19245000E-03
					 3.81441000E-03	-1.21010000E-02	 7.24402000E-03
					 3.66112000E-03	-7.33516000E-03	 5.38729000E-03
					-1.01969000E-03	-9.99787000E-03	 5.36562000E-03
					 3.74153000E-03	-5.61871000E-03	 5.40412000E-03
					 8.19499000E-03	-1.06875000E-03	 2.82133000E-03
					 3.73390000E-04	-1.41968000E-02	 1.05663000E-02
					-1.41232000E-03	-9.93913000E-03	 8.67278000E-03
					-1.49166000E-03	-5.24859000E-03	 5.47768000E-03
					 2.00174000E-03	-1.40154000E-02	 7.89652000E-03
					 4.84435000E-03	-1.05592000E-02	 6.56991000E-03
					 7.53647000E-03	-6.09508000E-03	 3.51527000E-03
					-2.56370000E-03	 5.09769000E-03	-1.33899000E-02
					-6.23044000E-03	 1.00908000E-02	-1.03091000E-02
					-1.11276000E-02	 1.02003000E-02	-1.20883000E-02
					-4.65229000E-03	 8.24802000E-04	-1.56148000E-02
					-5.93685000E-03	 7.58714000E-03	-1.51359000E-02
					-5.38189000E-03	 1.08945000E-02	-1.57410000E-02
					-9.24071000E-03	-6.25032000E-05	-1.05671000E-02
					-5.39122000E-03	 3.96726000E-03	-1.22388000E-02
					-3.86610000E-03	 1.30479000E-02	-1.28836000E-02
					-1.20564000E-02	-9.74387000E-04	-6.82660000E-03
					-1.77285000E-02	-1.87673000E-02	-7.02318000E-03
					-1.11157000E-02	-1.74525000E-02	 2.00319000E-03
					-2.57833000E-02	-3.36296000E-02	-6.80497000E-03
					-7.09402000E-03	 2.20353000E-02	-1.22937000E-02
					-8.46008000E-03	 1.49499000E-02	-1.21942000E-02
					-1.19597000E-02	 7.43384000E-03	-1.40022000E-02
					-1.28801000E-02	-6.27855000E-03	-7.58497000E-03
					-1.58011000E-02	-3.32289000E-02	 1.94594000E-03
					-7.49259000E-03	-9.51507000E-04	 4.26471000E-04
					 9.53379000E-04	 1.22537000E-02	-6.40230000E-03
					-9.92821000E-04	 6.49243000E-03	-3.85036000E-03
					-1.67811000E-02	-6.88925000E-03	-1.02611000E-02
					 4.35676000E-03	 1.31328000E-02	-8.31275000E-03
					 2.97719000E-03	 6.74583000E-03	-7.11361000E-03
					-5.11485000E-03	-1.75487000E-03	-5.57906000E-03
					 2.38859000E-03	 2.39621000E-02	-6.50963000E-03
					 1.71378000E-03	 1.74344000E-02	-7.07659000E-03
					-6.64261000E-03	 7.70894000E-03	-7.81130000E-03
					-1.61106000E-02	-1.17842000E-03	-1.29019000E-02
					-9.91604000E-03	 1.76007000E-02	-3.09119000E-03
					-1.90153000E-02	 2.03600000E-02	-6.58332000E-04
					-1.48143000E-02	 1.48767000E-02	-1.46460000E-03
					 1.33647000E-02	 1.64903000E-02	 4.32977000E-03
					 3.66570000E-02	 2.09552000E-02	 1.15000000E-02
					 6.10205000E-03	 1.79725000E-02	 3.30004000E-03
					 3.53652000E-03	 2.44007000E-02	 3.14154000E-03
					-1.41723000E-03	 2.95054000E-02	 3.86590000E-03
					-1.03691000E-02	 3.00677000E-02	 1.14706000E-02
					-1.38296000E-02	 3.08604000E-02	 1.54812000E-02
					 2.15894000E-03	 1.22489000E-02	-1.04524000E-03
					-1.04659000E-02	 1.59142000E-02	-4.03204000E-04
					-1.28300000E-02	 2.79502000E-02	-1.50554000E-05
					-2.51705000E-03	 3.22292000E-02	 1.47601000E-02
					 1.00504000E-02	 3.28373000E-02	 2.23108000E-02
					-1.55792000E-02	 1.39613000E-02	-5.44866000E-03
					-2.15021000E-02	 1.83075000E-02	-1.59951000E-03
					-1.67661000E-02	 1.72680000E-02	-1.08228000E-03
					 4.25654000E-03	 1.67769000E-02	 2.68098000E-03
					 3.20637000E-02	 1.82706000E-02	 1.11623000E-02
					-8.76668000E-03	 1.22465000E-02	-1.10696000E-02
					-1.75590000E-02	 1.98489000E-02	-2.00212000E-03
					-1.38028000E-02	 3.05713000E-02	-1.77596000E-03
					 9.12260000E-03	 3.82218000E-02	-5.33061000E-04
					 3.15263000E-02	 4.22067000E-02	 9.11517000E-03
					-1.30763000E-02	 1.01468000E-02	-1.11105000E-02
					-1.96327000E-02	 1.75330000E-02	-3.37856000E-03
					-1.63799000E-02	 2.64336000E-02	-3.56856000E-03
					 1.88723000E-03	 3.58191000E-02	-5.18316000E-03
					 2.85081000E-02	 3.80945000E-02	 5.36049000E-03
					 1.47531000E-03	 1.18792000E-02	 1.54445000E-03
					-1.17499000E-02	 2.03470000E-02	 2.14102000E-03
					-1.31320000E-02	 2.65243000E-02	 2.52114000E-03
					-1.82481000E-03	 2.76175000E-02	 1.21185000E-02
					 1.01653000E-02	 2.90970000E-02	 1.63992000E-02
					-1.50543000E-03	 1.10487000E-02	-7.11615000E-03
					-1.76043000E-02	 1.49532000E-02	-3.08114000E-05
					-1.44029000E-02	 2.77871000E-02	-1.32617000E-03
					 8.64380000E-03	 3.63534000E-02	 8.98342000E-03
					 2.77674000E-02	 3.83132000E-02	 1.91605000E-02
					-1.56072000E-02	 1.19218000E-02	-8.20004000E-03
					-2.13409000E-02	 1.84303000E-02	-2.40878000E-03
					-1.65926000E-02	 2.18927000E-02	-2.46985000E-03
					 2.82243000E-03	 2.60585000E-02	-1.47632000E-03
					 3.13040000E-02	 2.80570000E-02	 9.06953000E-03
					-9.45514000E-03	 1.46438000E-02	-6.76275000E-03
					-1.96590000E-02	 1.97417000E-02	-5.52164000E-04
					-1.44825000E-02	 2.22680000E-02	-2.00016000E-03
					 1.31011000E-02	 2.74280000E-02	 3.37227000E-03
					 3.59773000E-02	 3.00832000E-02	 1.23684000E-02
					-2.92332000E-03	 1.48967000E-02	-1.99723000E-03
					-1.94798000E-02	 1.84472000E-02	 5.52738000E-04
					-1.40228000E-02	 2.21372000E-02	-6.08786000E-04
					 1.10891000E-02	 2.50817000E-02	 8.65528000E-03
					 3.08815000E-02	 2.82438000E-02	 1.56946000E-02
					 5.97056000E-03	 1.73842000E-02	 3.80510000E-03
					 3.29498000E-03	 2.52207000E-02	 4.63029000E-03
					-1.66970000E-03	 3.01849000E-02	 5.48473000E-03
					-1.06330000E-02	 3.11238000E-02	 1.07473000E-02
					-1.38125000E-02	 3.15810000E-02	 1.31779000E-02
					-3.13898000E-03	 1.66862000E-02	-4.73506000E-04
					-1.91246000E-02	 2.07906000E-02	 5.87922000E-04
					-1.38118000E-02	 1.82949000E-02	-3.95294000E-04
					 1.11571000E-02	 1.90874000E-02	 6.48814000E-03
					 3.04506000E-02	 2.35129000E-02	 1.22327000E-02
					 7.10164000E-04	 1.15792000E-02	 2.29862000E-03
					-1.18047000E-02	 2.31673000E-02	 4.47311000E-03
					-1.32624000E-02	 2.46234000E-02	 4.79096000E-03
					-1.84915000E-03	 2.43306000E-02	 9.23507000E-03
					 9.94767000E-03	 2.60281000E-02	 1.01285000E-02
					 4.93380000E-03	 1.54573000E-02	 4.39607000E-03
					 3.06401000E-03	 2.62197000E-02	 8.02154000E-03
					-1.62738000E-03	 3.10932000E-02	 8.39116000E-03
					-1.05859000E-02	 3.25987000E-02	 9.07792000E-03
					-1.37169000E-02	 3.21989000E-02	 8.95003000E-03
					-2.77424000E-03	-9.06446000E-03	 8.43855000E-03
					 7.64935000E-05	-4.74184000E-03	-1.40901000E-03
					-1.80407000E-03	-2.04383000E-02	 1.20795000E-02
					-1.63430000E-02	-7.99441000E-03	 2.05718000E-03
					 4.19855000E-03	-3.08275000E-03	 4.48328000E-03
					 2.03679000E-03	-1.93334000E-02	 1.15029000E-02
					-8.84740000E-03	-1.42383000E-02	 8.39318000E-03
					-1.33502000E-02	-7.52310000E-04	 1.47215000E-03
					 7.17416000E-04	-1.87805000E-02	 6.07137000E-03
					-6.79711000E-04	-2.00005000E-02	 1.20549000E-02
					-8.05782000E-03	-1.27470000E-02	 9.11060000E-03
					-1.40937000E-02	-4.14352000E-03	 2.17715000E-03
					 7.80379000E-03	-5.66913000E-03	 1.68238000E-03
					-3.92242000E-03	-9.70642000E-03	 8.37490000E-03
					-1.32230000E-02	-5.09715000E-04	 9.29475000E-04
					 5.48251000E-03	-5.66010000E-03	 1.75704000E-04
					 1.60271000E-03	-6.61579000E-03	 3.63467000E-03
					 5.18884000E-03	-4.63731000E-03	 1.52877000E-04
					 4.95369000E-03	-2.40703000E-03	 3.12008000E-03
					 3.74598000E-03	-1.43660000E-02	 6.65990000E-03
					 2.87514000E-03	-4.34643000E-03	 6.55822000E-04
					 6.07025000E-03	-2.76512000E-03	 2.21762000E-03
					 4.09580000E-03	-2.87519000E-03	 5.33106000E-03
					 5.76623000E-03	-3.68249000E-03	 3.05451000E-03
					 4.87644000E-03	-3.18737000E-03	 2.73573000E-03
					 4.51505000E-03	-2.66046000E-03	 2.22116000E-03
					 2.12547000E-03	-3.47417000E-03	-3.72686000E-04
					 7.21974000E-03	-1.92339000E-04	 1.93693000E-03
					 7.11207000E-03	-1.15165000E-03	 3.09006000E-03
					-8.54334000E-03	 3.45388000E-03	-1.62800000E-03
					 5.02147000E-03	-1.50117000E-03	 2.56466000E-03
					 1.52676000E-03	-3.06078000E-03	 2.66177000E-04
					 4.79305000E-03	-3.70707000E-03	 3.55807000E-03
					-7.43498000E-04	-4.02501000E-03	-1.14920000E-03
					 3.58260000E-03	 7.31135000E-04	 2.03896000E-03
					 2.41397000E-03	-1.80497000E-02	 1.12380000E-02
					 6.39337000E-03	-2.91923000E-03	 4.88164000E-03
					 8.78353000E-04	 9.29325000E-04	 2.28512000E-03
					 6.86758000E-03	-3.14476000E-03	 4.06078000E-03
					 3.30819000E-03	-3.39913000E-03	 1.04501000E-03
					 4.91999000E-03	-2.96464000E-03	 1.73574000E-03
					-1.29771000E-03	-3.44990000E-03	-7.64771000E-04
					 9.06756000E-03	-2.91811000E-03	 2.38519000E-03
					 1.61508000E-03	-3.19520000E-03	-8.21862000E-04
					-1.09212000E-02	 3.52029000E-03	-1.09638000E-03
					 5.77317000E-03	-7.74377000E-04	 5.25297000E-04
					 4.22248000E-03	-7.57079000E-04	 1.06693000E-03
					 1.29455000E-03	-2.67506000E-03	 3.53934000E-04
					 9.68582000E-03	-1.43776000E-03	-2.42245000E-03
					 1.26058000E-02	-5.30914000E-03	-3.00389000E-03
					 1.54782000E-02	-3.52938000E-03	-1.00339000E-03
					 8.81649000E-03	-4.46879000E-03	 4.23924000E-03
					 6.14936000E-03	-4.59419000E-03	 5.05597000E-03
					 6.39488000E-03	-6.30110000E-03	 7.16061000E-03
					 6.22118000E-03	-4.78232000E-03	 2.54301000E-03
					 1.57903000E-02	-6.39488000E-03	 5.89045000E-03
					 2.09402000E-02	 3.12010000E-04	 7.07404000E-03
					 7.96325000E-03	-4.51771000E-03	 3.15229000E-03
					 1.43245000E-02	-6.00855000E-03	 7.39549000E-03
					 1.84628000E-02	 2.55788000E-04	 8.64702000E-03
					 8.69300000E-03	-6.32072000E-03	 4.07562000E-03
					 1.36673000E-02	-7.35912000E-03	 6.22323000E-03
					 1.50882000E-02	-6.24923000E-03	 6.50210000E-03
					 1.01340000E-02	-4.57407000E-03	 2.22545000E-03
					 1.20165000E-02	-6.30395000E-03	 3.55427000E-03
					 1.45586000E-02	-3.75572000E-03	 6.90832000E-03
					 2.25438000E-03	-1.24937000E-02	 1.08415000E-02
					 2.30468000E-03	-7.31353000E-03	 9.71389000E-03
					 3.01913000E-03	-2.83836000E-03	 6.99102000E-03
					 4.43629000E-03	-1.01760000E-03	 2.19272000E-03
					 3.02570000E-03	-3.98865000E-03	 2.27381000E-03
					 3.85866000E-03	-5.38934000E-03	 5.48351000E-03
					 4.69659000E-03	-3.72242000E-03	-1.26207000E-03
					 1.50701000E-02	-5.59861000E-03	-2.47747000E-04
					 2.26909000E-02	 1.69140000E-03	 9.10634000E-04
					 5.48318000E-03	-4.56358000E-03	 7.20667000E-04
					 1.46112000E-02	-5.95804000E-03	 1.66002000E-03
					 2.09704000E-02	-1.24903000E-03	 2.87858000E-03
					 7.30926000E-03	-4.53305000E-03	 2.08090000E-03
					 1.37843000E-02	-6.36067000E-03	 1.49723000E-03
					 1.62852000E-02	-2.59567000E-03	 1.54877000E-03
					-9.19402000E-03	 2.14652000E-03	-2.27287000E-03
					-8.73598000E-03	-3.31342000E-03	-1.55109000E-03
					-4.70885000E-03	-8.35611000E-03	-2.74500000E-04
					 9.14581000E-03	-2.94407000E-03	 2.20300000E-03
					 1.13295000E-02	-6.26532000E-03	 1.92869000E-03
					 1.22073000E-02	-3.07691000E-03	 3.42131000E-03
					 8.59764000E-03	-2.21016000E-03	 2.54910000E-03
					 7.76021000E-03	-5.58833000E-03	 2.65121000E-03
					 8.19933000E-03	-6.13915000E-03	 5.56755000E-03
					 6.31128000E-03	-9.24454000E-03	 8.19840000E-03
					 3.26781000E-03	-4.06082000E-03	 9.29561000E-03
					 4.97105000E-03	-2.30368000E-03	 7.21470000E-03
					 3.73390000E-04	-1.41968000E-02	 1.05663000E-02
					-1.41232000E-03	-9.93913000E-03	 8.67278000E-03
					-1.49166000E-03	-5.24859000E-03	 5.47768000E-03
					-1.08684000E-02	-2.35977000E-03	-1.21541000E-03
					-1.01652000E-02	-3.93296000E-03	-1.36635000E-03
					-7.06653000E-03	-5.67352000E-03	-1.68250000E-03
					-5.51401000E-03	-1.13162000E-02	 7.98333000E-03
					-7.63335000E-03	-6.68685000E-03	 5.09566000E-03
					-6.06564000E-03	-5.54990000E-03	 2.50450000E-03
					 5.17865000E-03	-5.49945000E-03	 5.83840000E-03
					 1.99788000E-03	-4.74038000E-03	 5.52874000E-03
					 9.14433000E-04	-7.26793000E-03	 6.85824000E-03
					-1.12365000E-02	-7.97220000E-03	-1.06923000E-03
					-1.16539000E-02	-5.75037000E-03	-7.72521000E-04
					-9.13121000E-03	-6.05676000E-03	-2.36566000E-04
					-1.64813000E-03	-9.67386000E-03	 7.37117000E-03
					-4.14664000E-03	-4.81434000E-03	 6.22435000E-03
					-3.30711000E-03	-3.56760000E-03	 4.84588000E-03
					 5.22814000E-03	-3.79130000E-03	-2.81257000E-03
					 1.55476000E-02	-5.77669000E-03	-4.73885000E-03
					 2.17646000E-02	 4.72129000E-04	-3.16548000E-03
					 5.22069000E-03	-4.87327000E-03	-7.20006000E-04
					 1.47568000E-02	-5.99249000E-03	-2.94633000E-03
					 2.07859000E-02	-1.96770000E-03	-1.51614000E-03
					 7.76173000E-03	-3.43304000E-03	-1.68231000E-04
					 1.45875000E-02	-5.56353000E-03	-3.25122000E-03
					 1.91410000E-02	-2.59428000E-03	-4.33101000E-03
					 3.80011000E-03	 1.61254000E-03	-4.61224000E-03
					 4.85008000E-03	-4.41804000E-03	 9.44940000E-03
					 4.51673000E-03	-4.35828000E-03	 5.91297000E-03
					 3.00023000E-03	-6.03780000E-03	 8.37884000E-03
					 1.99900000E-02	-2.49715000E-03	-7.48323000E-03
					 1.56499000E-02	-3.86843000E-03	-6.22437000E-03
					 7.10528000E-03	-1.26462000E-03	-4.16305000E-03
					 4.18014000E-03	-4.74845000E-03	-1.91529000E-03
					 3.04870000E-03	-5.22814000E-03	 7.77308000E-03
					 1.37482000E-02	-7.83239000E-03	 4.68409000E-03
					 2.59652000E-02	-7.22011000E-03	 7.98556000E-03
					 1.79257000E-02	-7.38381000E-03	 6.60434000E-03
					 3.40242000E-03	-4.82304000E-03	-5.70610000E-03
					 2.00777000E-02	-1.44726000E-02	 9.98687000E-03
					 1.51488000E-02	-9.68522000E-03	 9.00819000E-03
					 1.13085000E-02	-1.09425000E-02	 8.19515000E-03
					 1.98273000E-02	-3.50116000E-03	-9.23996000E-03
					 1.49602000E-02	-4.66008000E-03	-9.40710000E-03
					 8.85459000E-03	-1.81132000E-04	-7.99641000E-03
					 3.34185000E-03	 3.67586000E-04	-4.67164000E-03
					 1.28690000E-02	-4.71956000E-03	-4.70500000E-03
					 5.39065000E-03	-9.73253000E-03	-2.01083000E-04
					 4.34229000E-03	-1.05590000E-02	 3.96258000E-03
					 7.80330000E-03	-6.04801000E-03	-6.77522000E-03
					 9.42496000E-03	-5.35626000E-03	-1.07079000E-02
					 1.13099000E-02	 8.32785000E-03	-3.26820000E-03
					 1.96571000E-02	 1.24206000E-02	 3.58301000E-03
					 1.45070000E-02	-6.40394000E-03	 3.85841000E-03
					 6.80811000E-03	-2.48606000E-02	-8.44729000E-04
					 6.79143000E-03	-2.72489000E-02	-1.00288000E-02
					 3.73639000E-03	 2.01978000E-03	-4.08262000E-03
					 1.24037000E-02	-2.61566000E-04	 8.01246000E-04
					 1.58124000E-02	-7.46665000E-03	 5.39675000E-03
					 8.30708000E-03	-1.73390000E-02	 2.09381000E-03
					 8.85426000E-03	-1.28598000E-02	-7.33273000E-03
					 1.62080000E-02	-1.04146000E-03	-5.67529000E-03
					 9.96838000E-03	-9.24784000E-03	-1.77482000E-03
					 6.43633000E-03	-1.17871000E-02	 2.17090000E-04
					 1.00228000E-02	-5.99283000E-03	-6.79801000E-03