    1C
    1UUSER                                                              
    1UDATE              28.may.2019                                     
    1UTIME              18:33:36                                        
    1UHOST                                                              
    1UPGM               CalculiX                                        
    1UVERSION           Version 2.15                             
    1UCOMPILETIME       Fri 15 Mar 11:57:46 CET 2019                    
    1UDIR                                                               
    1UDBN                                                               
    1UMAT    1STEEL                                                     
    2C                            15                                     1
 -1         1-1.67767E+02 1.26250E+02-4.70002E-14
 -1         2-1.65000E+02 1.26250E+02-4.63859E-14
 -1         3-1.64694E+02 1.26106E+02-3.06622E+00
 -1         4-1.67767E+02 1.27439E+02-4.70800E-14
 -1         5-1.65000E+02 1.27367E+02-4.64608E-14
 -1         6-1.64694E+02 1.27227E+02-3.06384E+00
 -1         7-1.66383E+02 1.26250E+02-4.66930E-14
 -1         8-1.64847E+02 1.26178E+02-1.53311E+00
 -1         9-1.66230E+02 1.26178E+02-1.53311E+00
 -1        10-1.66383E+02 1.27403E+02-4.67704E-14
 -1        11-1.64847E+02 1.27297E+02-1.53192E+00
 -1        12-1.66230E+02 1.27333E+02-1.53192E+00
 -1        13-1.67767E+02 1.26844E+02-4.70401E-14
 -1        14-1.65000E+02 1.26808E+02-4.64233E-14
 -1        15-1.64694E+02 1.26667E+02-3.06503E+00
 -3
    3C                             1                                     1
 -1         1    5    0    1
 -2         1         2         3         4         5         6         7         8         9        13
 -2        14        15        10        11        12
 -3
