    1C
    1UUSER                                                              
    1UDATE              31.may.2019                                     
    1UTIME              11:32:44                                        
    1UHOST                                                              
    1UPGM               CalculiX                                        
    1UVERSION           Version 2.15                             
    1UCOMPILETIME       Fri 15 Mar 11:57:46 CET 2019                    
    1UDIR                                                               
    1UDBN                                                               
    1UMAT    1STEEL                                                     
    2C                            20                                     1
 -1         1-1.86500E+02 1.30900E+02-1.06581E-14
 -1         2-1.86500E+02 1.29350E+02-1.06581E-14
 -1         3-1.86500E+02 1.29197E+02-3.30782E+00
 -1         4-1.86500E+02 1.30740E+02-3.45084E+00
 -1         5-1.84867E+02 1.30900E+02-2.75712E-14
 -1         6-1.84867E+02 1.29350E+02-2.75685E-14
 -1         7-1.84867E+02 1.29197E+02-3.30782E+00
 -1         8-1.84867E+02 1.30740E+02-3.45084E+00
 -1         9-1.86500E+02 1.30125E+02-1.06581E-14
 -1        10-1.86500E+02 1.29274E+02-1.65391E+00
 -1        11-1.86500E+02 1.29969E+02-3.37933E+00
 -1        12-1.86500E+02 1.30820E+02-1.72542E+00
 -1        13-1.84867E+02 1.30125E+02-2.75699E-14
 -1        14-1.84867E+02 1.29274E+02-1.65391E+00
 -1        15-1.84867E+02 1.29969E+02-3.37933E+00
 -1        16-1.84867E+02 1.30820E+02-1.72542E+00
 -1        17-1.85683E+02 1.30900E+02-1.91147E-14
 -1        18-1.85683E+02 1.29350E+02-1.91133E-14
 -1        19-1.85683E+02 1.29197E+02-3.30782E+00
 -1        20-1.85683E+02 1.30740E+02-3.45084E+00
 -3
    3C                             1                                     1
 -1         1    4    0    1
 -2         1         2         3         4         5         6         7         8         9        10
 -2        11        12        17        18        19        20        13        14        15        16
 -3
