    1C
    1UUSER                                                              
    1UDATE              31.may.2019                                     
    1UTIME              11:32:46                                        
    1UHOST                                                              
    1UPGM               CalculiX                                        
    1UVERSION           Version 2.15                             
    1UCOMPILETIME       Fri 15 Mar 11:57:46 CET 2019                    
    1UDIR                                                               
    1UDBN                                                               
    1UMAT    1STEEL                                                     
    2C                            24                                     1
 -1         1 6.00000E+00 6.00000E+00 0.00000E+00
 -1         2 5.00000E+00 9.00000E+00 0.00000E+00
 -1         3 3.00000E+00 7.00000E+00 0.00000E+00
 -1         4 5.50000E+00 7.50000E+00 0.00000E+00
 -1         5 4.00000E+00 8.00000E+00 0.00000E+00
 -1         6 4.50000E+00 6.50000E+00 0.00000E+00
 -1         7 6.00000E+00 6.00000E+00-5.00000E-02
 -1         8 6.00000E+00 6.00000E+00 0.00000E+00
 -1         9 6.00000E+00 6.00000E+00 5.00000E-02
 -1        10 5.00000E+00 9.00000E+00-5.00000E-02
 -1        11 5.00000E+00 9.00000E+00 0.00000E+00
 -1        12 5.00000E+00 9.00000E+00 5.00000E-02
 -1        13 3.00000E+00 7.00000E+00-5.00000E-02
 -1        14 3.00000E+00 7.00000E+00 0.00000E+00
 -1        15 3.00000E+00 7.00000E+00 5.00000E-02
 -1        16 5.50000E+00 7.50000E+00-5.00000E-02
 -1        17 5.50000E+00 7.50000E+00 0.00000E+00
 -1        18 5.50000E+00 7.50000E+00 5.00000E-02
 -1        19 4.00000E+00 8.00000E+00-5.00000E-02
 -1        20 4.00000E+00 8.00000E+00 0.00000E+00
 -1        21 4.00000E+00 8.00000E+00 5.00000E-02
 -1        22 4.50000E+00 6.50000E+00-5.00000E-02
 -1        23 4.50000E+00 6.50000E+00 0.00000E+00
 -1        24 4.50000E+00 6.50000E+00 5.00000E-02
 -3
    3C                             1                                     1
 -1         1    5    0    1
 -2         7        10        13         9        12        15        16        19        22         8
 -2        11        14        18        21        24
 -3
