    1C
    1UUSER                                                              
    1UDATE              26.may.2019                                     
    1UTIME              22:07:56                                        
    1UHOST                                                              
    1UPGM               CalculiX                                        
    1UVERSION           Version 2.15                             
    1UCOMPILETIME       Fri 15 Mar 11:57:46 CET 2019                    
    1UDIR                                                               
    1UDBN                                                               
    1UMAT    1STEEL                                                     
    2C                            32                                     1
 -1         1 0.00000E+00 1.00000E+01 0.00000E+00
 -1         2 0.00000E+00 5.00000E+00 0.00000E+00
 -1         3 5.00000E+00 5.00000E+00 0.00000E+00
 -1         4 5.00000E+00 1.00000E+01 0.00000E+00
 -1         5 0.00000E+00 7.50000E+00 0.00000E+00
 -1         6 2.50000E+00 5.00000E+00 0.00000E+00
 -1         7 5.00000E+00 7.50000E+00 0.00000E+00
 -1         8 2.50000E+00 1.00000E+01 0.00000E+00
 -1         9 0.00000E+00 1.00000E+01-5.00000E-02
 -1        10 0.00000E+00 1.00000E+01 0.00000E+00
 -1        11 0.00000E+00 1.00000E+01 5.00000E-02
 -1        12 0.00000E+00 5.00000E+00-5.00000E-02
 -1        13 0.00000E+00 5.00000E+00 0.00000E+00
 -1        14 0.00000E+00 5.00000E+00 5.00000E-02
 -1        15 5.00000E+00 5.00000E+00-5.00000E-02
 -1        16 5.00000E+00 5.00000E+00 0.00000E+00
 -1        17 5.00000E+00 5.00000E+00 5.00000E-02
 -1        18 5.00000E+00 1.00000E+01-5.00000E-02
 -1        19 5.00000E+00 1.00000E+01 0.00000E+00
 -1        20 5.00000E+00 1.00000E+01 5.00000E-02
 -1        21 0.00000E+00 7.50000E+00-5.00000E-02
 -1        22 0.00000E+00 7.50000E+00 0.00000E+00
 -1        23 0.00000E+00 7.50000E+00 5.00000E-02
 -1        24 2.50000E+00 5.00000E+00-5.00000E-02
 -1        25 2.50000E+00 5.00000E+00 0.00000E+00
 -1        26 2.50000E+00 5.00000E+00 5.00000E-02
 -1        27 5.00000E+00 7.50000E+00-5.00000E-02
 -1        28 5.00000E+00 7.50000E+00 0.00000E+00
 -1        29 5.00000E+00 7.50000E+00 5.00000E-02
 -1        30 2.50000E+00 1.00000E+01-5.00000E-02
 -1        31 2.50000E+00 1.00000E+01 0.00000E+00
 -1        32 2.50000E+00 1.00000E+01 5.00000E-02
 -3
    3C                             1                                     1
 -1         1    4    0    1
 -2         9        12        15        18        11        14        17        20        21        24
 -2        27        30        10        13        16        19        23        26        29        32
 -3
