    1C
    1UUSER                                                              
    1UDATE              01.august.2019                                  
    1UTIME              09:23:56                                        
    1UHOST                                                              
    1UPGM               CalculiX                                        
    1UVERSION           Version 2.15                             
    1UCOMPILETIME       Fri 15 Mar 11:57:46 CET 2019                    
    1UDIR                                                               
    1UDBN                                                               
    1UMAT    1ALUM                                                      
    2C                            48                                     1
 -1        12-1.25000E-01 1.25000E-01 0.00000E+00
 -1        13-1.25000E-01-1.25000E-01 0.00000E+00
 -1        14 1.25000E-01-1.25000E-01 0.00000E+00
 -1        15 1.25000E-01 1.25000E-01 0.00000E+00
 -1        20-1.25000E-01 1.25000E-01 1.00000E+00
 -1        21-1.25000E-01-1.25000E-01 1.00000E+00
 -1        22 1.25000E-01-1.25000E-01 1.00000E+00
 -1        23 1.25000E-01 1.25000E-01 1.00000E+00
 -1        28-1.25000E-01 1.25000E-01 2.00000E+00
 -1        29-1.25000E-01-1.25000E-01 2.00000E+00
 -1        30 1.25000E-01-1.25000E-01 2.00000E+00
 -1        31 1.25000E-01 1.25000E-01 2.00000E+00
 -1        36-1.25000E-01 1.25000E-01 3.00000E+00
 -1        37-1.25000E-01-1.25000E-01 3.00000E+00
 -1        38 1.25000E-01-1.25000E-01 3.00000E+00
 -1        39 1.25000E-01 1.25000E-01 3.00000E+00
 -1        44-1.25000E-01 1.25000E-01 4.00000E+00
 -1        45-1.25000E-01-1.25000E-01 4.00000E+00
 -1        46 1.25000E-01-1.25000E-01 4.00000E+00
 -1        47 1.25000E-01 1.25000E-01 4.00000E+00
 -1        52-1.25000E-01 1.25000E-01 5.00000E+00
 -1        53-1.25000E-01-1.25000E-01 5.00000E+00
 -1        54 1.25000E-01-1.25000E-01 5.00000E+00
 -1        55 1.25000E-01 1.25000E-01 5.00000E+00
 -1        60-1.25000E-01 1.25000E-01 6.00000E+00
 -1        61-1.25000E-01-1.25000E-01 6.00000E+00
 -1        62 1.25000E-01-1.25000E-01 6.00000E+00
 -1        63 1.25000E-01 1.25000E-01 6.00000E+00
 -1        68-1.25000E-01 1.25000E-01 7.00000E+00
 -1        69-1.25000E-01-1.25000E-01 7.00000E+00
 -1        70 1.25000E-01-1.25000E-01 7.00000E+00
 -1        71 1.25000E-01 1.25000E-01 7.00000E+00
 -1        76-1.25000E-01 1.25000E-01 8.00000E+00
 -1        77-1.25000E-01-1.25000E-01 8.00000E+00
 -1        78 1.25000E-01-1.25000E-01 8.00000E+00
 -1        79 1.25000E-01 1.25000E-01 8.00000E+00
 -1        84-1.25000E-01 1.25000E-01 9.00000E+00
 -1        85-1.25000E-01-1.25000E-01 9.00000E+00
 -1        86 1.25000E-01-1.25000E-01 9.00000E+00
 -1        87 1.25000E-01 1.25000E-01 9.00000E+00
 -1        92-1.50000E-01 2.50000E-01 9.00000E+00
 -1        93-1.50000E-01-2.50000E-01 9.00000E+00
 -1        94 1.50000E-01-2.50000E-01 9.00000E+00
 -1        95 1.50000E-01 2.50000E-01 9.00000E+00
 -1       118-2.00000E-01 1.50000E-01 1.00000E+01
 -1       119-2.00000E-01-1.50000E-01 1.00000E+01
 -1       120 2.00000E-01-1.50000E-01 1.00000E+01
 -1       121 2.00000E-01 1.50000E-01 1.00000E+01
 -3
    3C                            10                                     1
 -1         1    1    0    1
 -2        12        20        21        13        15        23        22        14
 -1         2    1    0    1
 -2        20        28        29        21        23        31        30        22
 -1         3    1    0    1
 -2        28        36        37        29        31        39        38        30
 -1         4    1    0    1
 -2        36        44        45        37        39        47        46        38
 -1         5    1    0    1
 -2        44        52        53        45        47        55        54        46
 -1         6    1    0    1
 -2        52        60        61        53        55        63        62        54
 -1         7    1    0    1
 -2        60        68        69        61        63        71        70        62
 -1         8    1    0    1
 -2        68        76        77        69        71        79        78        70
 -1         9    1    0    1
 -2        76        84        85        77        79        87        86        78
 -1        10    1    0    1
 -2        92       118       119        93        95       121       120        94
 -3
 9999
