<?xml version="1.0"?>
<VTKFile type="UnstructuredGrid" version="0.1" byte_order="LittleEndian">
	<UnstructuredGrid>
		<Piece NumberOfPoints="261" NumberOfCells="32">
			<Points>
				<DataArray type="Float64" NumberOfComponents="3" format="ascii">
					 0.00000000E+00	 0.00000000E+00	 0.00000000E+00
					 1.00000000E+00	 0.00000000E+00	 0.00000000E+00
					 1.00000000E+00	 1.50000000E+00	 0.00000000E+00
					 0.00000000E+00	 1.50000000E+00	 0.00000000E+00
					 0.00000000E+00	 0.00000000E+00	 8.00000000E+00
					 1.00000000E+00	 0.00000000E+00	 8.00000000E+00
					 1.00000000E+00	 1.50000000E+00	 8.00000000E+00
					 0.00000000E+00	 1.50000000E+00	 8.00000000E+00
					 2.50000000E-01	 0.00000000E+00	 0.00000000E+00
					 5.00000000E-01	 0.00000000E+00	 0.00000000E+00
					 7.50000000E-01	 0.00000000E+00	 0.00000000E+00
					 1.00000000E+00	 3.75000000E-01	 0.00000000E+00
					 1.00000000E+00	 7.50000000E-01	 0.00000000E+00
					 1.00000000E+00	 1.12500000E+00	 0.00000000E+00
					 7.50000000E-01	 1.50000000E+00	 0.00000000E+00
					 5.00000000E-01	 1.50000000E+00	 0.00000000E+00
					 2.50000000E-01	 1.50000000E+00	 0.00000000E+00
					 0.00000000E+00	 1.12500000E+00	 0.00000000E+00
					 0.00000000E+00	 7.50000000E-01	 0.00000000E+00
					 0.00000000E+00	 3.75000000E-01	 0.00000000E+00
					 2.50000000E-01	 0.00000000E+00	 8.00000000E+00
					 5.00000000E-01	 0.00000000E+00	 8.00000000E+00
					 7.50000000E-01	 0.00000000E+00	 8.00000000E+00
					 1.00000000E+00	 3.75000000E-01	 8.00000000E+00
					 1.00000000E+00	 7.50000000E-01	 8.00000000E+00
					 1.00000000E+00	 1.12500000E+00	 8.00000000E+00
					 7.50000000E-01	 1.50000000E+00	 8.00000000E+00
					 5.00000000E-01	 1.50000000E+00	 8.00000000E+00
					 2.50000000E-01	 1.50000000E+00	 8.00000000E+00
					 0.00000000E+00	 1.12500000E+00	 8.00000000E+00
					 0.00000000E+00	 7.50000000E-01	 8.00000000E+00
					 0.00000000E+00	 3.75000000E-01	 8.00000000E+00
					 1.00000000E+00	 0.00000000E+00	 5.00000000E-01
					 1.00000000E+00	 0.00000000E+00	 1.00000000E+00
					 1.00000000E+00	 0.00000000E+00	 1.50000000E+00
					 1.00000000E+00	 0.00000000E+00	 2.00000000E+00
					 1.00000000E+00	 0.00000000E+00	 2.50000000E+00
					 1.00000000E+00	 0.00000000E+00	 3.00000000E+00
					 1.00000000E+00	 0.00000000E+00	 3.50000000E+00
					 1.00000000E+00	 0.00000000E+00	 4.00000000E+00
					 1.00000000E+00	 0.00000000E+00	 4.50000000E+00
					 1.00000000E+00	 0.00000000E+00	 5.00000000E+00
					 1.00000000E+00	 0.00000000E+00	 5.50000000E+00
					 1.00000000E+00	 0.00000000E+00	 6.00000000E+00
					 1.00000000E+00	 0.00000000E+00	 6.50000000E+00
					 1.00000000E+00	 0.00000000E+00	 7.00000000E+00
					 1.00000000E+00	 0.00000000E+00	 7.50000000E+00
					 0.00000000E+00	 0.00000000E+00	 7.50000000E+00
					 0.00000000E+00	 0.00000000E+00	 7.00000000E+00
					 0.00000000E+00	 0.00000000E+00	 6.50000000E+00
					 0.00000000E+00	 0.00000000E+00	 6.00000000E+00
					 0.00000000E+00	 0.00000000E+00	 5.50000000E+00
					 0.00000000E+00	 0.00000000E+00	 5.00000000E+00
					 0.00000000E+00	 0.00000000E+00	 4.50000000E+00
					 0.00000000E+00	 0.00000000E+00	 4.00000000E+00
					 0.00000000E+00	 0.00000000E+00	 3.50000000E+00
					 0.00000000E+00	 0.00000000E+00	 3.00000000E+00
					 0.00000000E+00	 0.00000000E+00	 2.50000000E+00
					 0.00000000E+00	 0.00000000E+00	 2.00000000E+00
					 0.00000000E+00	 0.00000000E+00	 1.50000000E+00
					 0.00000000E+00	 0.00000000E+00	 1.00000000E+00
					 0.00000000E+00	 0.00000000E+00	 5.00000000E-01
					 1.00000000E+00	 1.50000000E+00	 5.00000000E-01
					 1.00000000E+00	 1.50000000E+00	 1.00000000E+00
					 1.00000000E+00	 1.50000000E+00	 1.50000000E+00
					 1.00000000E+00	 1.50000000E+00	 2.00000000E+00
					 1.00000000E+00	 1.50000000E+00	 2.50000000E+00
					 1.00000000E+00	 1.50000000E+00	 3.00000000E+00
					 1.00000000E+00	 1.50000000E+00	 3.50000000E+00
					 1.00000000E+00	 1.50000000E+00	 4.00000000E+00
					 1.00000000E+00	 1.50000000E+00	 4.50000000E+00
					 1.00000000E+00	 1.50000000E+00	 5.00000000E+00
					 1.00000000E+00	 1.50000000E+00	 5.50000000E+00
					 1.00000000E+00	 1.50000000E+00	 6.00000000E+00
					 1.00000000E+00	 1.50000000E+00	 6.50000000E+00
					 1.00000000E+00	 1.50000000E+00	 7.00000000E+00
					 1.00000000E+00	 1.50000000E+00	 7.50000000E+00
					 0.00000000E+00	 1.50000000E+00	 5.00000000E-01
					 0.00000000E+00	 1.50000000E+00	 1.00000000E+00
					 0.00000000E+00	 1.50000000E+00	 1.50000000E+00
					 0.00000000E+00	 1.50000000E+00	 2.00000000E+00
					 0.00000000E+00	 1.50000000E+00	 2.50000000E+00
					 0.00000000E+00	 1.50000000E+00	 3.00000000E+00
					 0.00000000E+00	 1.50000000E+00	 3.50000000E+00
					 0.00000000E+00	 1.50000000E+00	 4.00000000E+00
					 0.00000000E+00	 1.50000000E+00	 4.50000000E+00
					 0.00000000E+00	 1.50000000E+00	 5.00000000E+00
					 0.00000000E+00	 1.50000000E+00	 5.50000000E+00
					 0.00000000E+00	 1.50000000E+00	 6.00000000E+00
					 0.00000000E+00	 1.50000000E+00	 6.50000000E+00
					 0.00000000E+00	 1.50000000E+00	 7.00000000E+00
					 0.00000000E+00	 1.50000000E+00	 7.50000000E+00
					 5.00000000E-01	 3.75000000E-01	 0.00000000E+00
					 2.50000000E-01	 7.50000000E-01	 0.00000000E+00
					 5.00000000E-01	 7.50000000E-01	 0.00000000E+00
					 7.50000000E-01	 7.50000000E-01	 0.00000000E+00
					 5.00000000E-01	 1.12500000E+00	 0.00000000E+00
					 5.00000000E-01	 3.75000000E-01	 8.00000000E+00
					 2.50000000E-01	 7.50000000E-01	 8.00000000E+00
					 5.00000000E-01	 7.50000000E-01	 8.00000000E+00
					 7.50000000E-01	 7.50000000E-01	 8.00000000E+00
					 5.00000000E-01	 1.12500000E+00	 8.00000000E+00
					 5.00000000E-01	 0.00000000E+00	 5.00000000E-01
					 2.50000000E-01	 0.00000000E+00	 1.00000000E+00
					 5.00000000E-01	 0.00000000E+00	 1.00000000E+00
					 7.50000000E-01	 0.00000000E+00	 1.00000000E+00
					 5.00000000E-01	 0.00000000E+00	 1.50000000E+00
					 2.50000000E-01	 0.00000000E+00	 2.00000000E+00
					 5.00000000E-01	 0.00000000E+00	 2.00000000E+00
					 7.50000000E-01	 0.00000000E+00	 2.00000000E+00
					 5.00000000E-01	 0.00000000E+00	 2.50000000E+00
					 2.50000000E-01	 0.00000000E+00	 3.00000000E+00
					 5.00000000E-01	 0.00000000E+00	 3.00000000E+00
					 7.50000000E-01	 0.00000000E+00	 3.00000000E+00
					 5.00000000E-01	 0.00000000E+00	 3.50000000E+00
					 2.50000000E-01	 0.00000000E+00	 4.00000000E+00
					 5.00000000E-01	 0.00000000E+00	 4.00000000E+00
					 7.50000000E-01	 0.00000000E+00	 4.00000000E+00
					 5.00000000E-01	 0.00000000E+00	 4.50000000E+00
					 2.50000000E-01	 0.00000000E+00	 5.00000000E+00
					 5.00000000E-01	 0.00000000E+00	 5.00000000E+00
					 7.50000000E-01	 0.00000000E+00	 5.00000000E+00
					 5.00000000E-01	 0.00000000E+00	 5.50000000E+00
					 2.50000000E-01	 0.00000000E+00	 6.00000000E+00
					 5.00000000E-01	 0.00000000E+00	 6.00000000E+00
					 7.50000000E-01	 0.00000000E+00	 6.00000000E+00
					 5.00000000E-01	 0.00000000E+00	 6.50000000E+00
					 2.50000000E-01	 0.00000000E+00	 7.00000000E+00
					 5.00000000E-01	 0.00000000E+00	 7.00000000E+00
					 7.50000000E-01	 0.00000000E+00	 7.00000000E+00
					 5.00000000E-01	 0.00000000E+00	 7.50000000E+00
					 1.00000000E+00	 7.50000000E-01	 5.00000000E-01
					 1.00000000E+00	 3.75000000E-01	 1.00000000E+00
					 1.00000000E+00	 7.50000000E-01	 1.00000000E+00
					 1.00000000E+00	 1.12500000E+00	 1.00000000E+00
					 1.00000000E+00	 7.50000000E-01	 1.50000000E+00
					 1.00000000E+00	 3.75000000E-01	 2.00000000E+00
					 1.00000000E+00	 7.50000000E-01	 2.00000000E+00
					 1.00000000E+00	 1.12500000E+00	 2.00000000E+00
					 1.00000000E+00	 7.50000000E-01	 2.50000000E+00
					 1.00000000E+00	 3.75000000E-01	 3.00000000E+00
					 1.00000000E+00	 7.50000000E-01	 3.00000000E+00
					 1.00000000E+00	 1.12500000E+00	 3.00000000E+00
					 1.00000000E+00	 7.50000000E-01	 3.50000000E+00
					 1.00000000E+00	 3.75000000E-01	 4.00000000E+00
					 1.00000000E+00	 7.50000000E-01	 4.00000000E+00
					 1.00000000E+00	 1.12500000E+00	 4.00000000E+00
					 1.00000000E+00	 7.50000000E-01	 4.50000000E+00
					 1.00000000E+00	 3.75000000E-01	 5.00000000E+00
					 1.00000000E+00	 7.50000000E-01	 5.00000000E+00
					 1.00000000E+00	 1.12500000E+00	 5.00000000E+00
					 1.00000000E+00	 7.50000000E-01	 5.50000000E+00
					 1.00000000E+00	 3.75000000E-01	 6.00000000E+00
					 1.00000000E+00	 7.50000000E-01	 6.00000000E+00
					 1.00000000E+00	 1.12500000E+00	 6.00000000E+00
					 1.00000000E+00	 7.50000000E-01	 6.50000000E+00
					 1.00000000E+00	 3.75000000E-01	 7.00000000E+00
					 1.00000000E+00	 7.50000000E-01	 7.00000000E+00
					 1.00000000E+00	 1.12500000E+00	 7.00000000E+00
					 1.00000000E+00	 7.50000000E-01	 7.50000000E+00
					 5.00000000E-01	 1.50000000E+00	 5.00000000E-01
					 7.50000000E-01	 1.50000000E+00	 1.00000000E+00
					 5.00000000E-01	 1.50000000E+00	 1.00000000E+00
					 2.50000000E-01	 1.50000000E+00	 1.00000000E+00
					 5.00000000E-01	 1.50000000E+00	 1.50000000E+00
					 7.50000000E-01	 1.50000000E+00	 2.00000000E+00
					 5.00000000E-01	 1.50000000E+00	 2.00000000E+00
					 2.50000000E-01	 1.50000000E+00	 2.00000000E+00
					 5.00000000E-01	 1.50000000E+00	 2.50000000E+00
					 7.50000000E-01	 1.50000000E+00	 3.00000000E+00
					 5.00000000E-01	 1.50000000E+00	 3.00000000E+00
					 2.50000000E-01	 1.50000000E+00	 3.00000000E+00
					 5.00000000E-01	 1.50000000E+00	 3.50000000E+00
					 7.50000000E-01	 1.50000000E+00	 4.00000000E+00
					 5.00000000E-01	 1.50000000E+00	 4.00000000E+00
					 2.50000000E-01	 1.50000000E+00	 4.00000000E+00
					 5.00000000E-01	 1.50000000E+00	 4.50000000E+00
					 7.50000000E-01	 1.50000000E+00	 5.00000000E+00
					 5.00000000E-01	 1.50000000E+00	 5.00000000E+00
					 2.50000000E-01	 1.50000000E+00	 5.00000000E+00
					 5.00000000E-01	 1.50000000E+00	 5.50000000E+00
					 7.50000000E-01	 1.50000000E+00	 6.00000000E+00
					 5.00000000E-01	 1.50000000E+00	 6.00000000E+00
					 2.50000000E-01	 1.50000000E+00	 6.00000000E+00
					 5.00000000E-01	 1.50000000E+00	 6.50000000E+00
					 7.50000000E-01	 1.50000000E+00	 7.00000000E+00
					 5.00000000E-01	 1.50000000E+00	 7.00000000E+00
					 2.50000000E-01	 1.50000000E+00	 7.00000000E+00
					 5.00000000E-01	 1.50000000E+00	 7.50000000E+00
					 0.00000000E+00	 7.50000000E-01	 5.00000000E-01
					 0.00000000E+00	 1.12500000E+00	 1.00000000E+00
					 0.00000000E+00	 7.50000000E-01	 1.00000000E+00
					 0.00000000E+00	 3.75000000E-01	 1.00000000E+00
					 0.00000000E+00	 7.50000000E-01	 1.50000000E+00
					 0.00000000E+00	 1.12500000E+00	 2.00000000E+00
					 0.00000000E+00	 7.50000000E-01	 2.00000000E+00
					 0.00000000E+00	 3.75000000E-01	 2.00000000E+00
					 0.00000000E+00	 7.50000000E-01	 2.50000000E+00
					 0.00000000E+00	 1.12500000E+00	 3.00000000E+00
					 0.00000000E+00	 7.50000000E-01	 3.00000000E+00
					 0.00000000E+00	 3.75000000E-01	 3.00000000E+00
					 0.00000000E+00	 7.50000000E-01	 3.50000000E+00
					 0.00000000E+00	 1.12500000E+00	 4.00000000E+00
					 0.00000000E+00	 7.50000000E-01	 4.00000000E+00
					 0.00000000E+00	 3.75000000E-01	 4.00000000E+00
					 0.00000000E+00	 7.50000000E-01	 4.50000000E+00
					 0.00000000E+00	 1.12500000E+00	 5.00000000E+00
					 0.00000000E+00	 7.50000000E-01	 5.00000000E+00
					 0.00000000E+00	 3.75000000E-01	 5.00000000E+00
					 0.00000000E+00	 7.50000000E-01	 5.50000000E+00
					 0.00000000E+00	 1.12500000E+00	 6.00000000E+00
					 0.00000000E+00	 7.50000000E-01	 6.00000000E+00
					 0.00000000E+00	 3.75000000E-01	 6.00000000E+00
					 0.00000000E+00	 7.50000000E-01	 6.50000000E+00
					 0.00000000E+00	 1.12500000E+00	 7.00000000E+00
					 0.00000000E+00	 7.50000000E-01	 7.00000000E+00
					 0.00000000E+00	 3.75000000E-01	 7.00000000E+00
					 0.00000000E+00	 7.50000000E-01	 7.50000000E+00
					 5.00000000E-01	 7.50000000E-01	 5.00000000E-01
					 5.00000000E-01	 3.75000000E-01	 1.00000000E+00
					 2.50000000E-01	 7.50000000E-01	 1.00000000E+00
					 5.00000000E-01	 7.50000000E-01	 1.00000000E+00
					 7.50000000E-01	 7.50000000E-01	 1.00000000E+00
					 5.00000000E-01	 1.12500000E+00	 1.00000000E+00
					 5.00000000E-01	 7.50000000E-01	 1.50000000E+00
					 5.00000000E-01	 3.75000000E-01	 2.00000000E+00
					 2.50000000E-01	 7.50000000E-01	 2.00000000E+00
					 5.00000000E-01	 7.50000000E-01	 2.00000000E+00
					 7.50000000E-01	 7.50000000E-01	 2.00000000E+00
					 5.00000000E-01	 1.12500000E+00	 2.00000000E+00
					 5.00000000E-01	 7.50000000E-01	 2.50000000E+00
					 5.00000000E-01	 3.75000000E-01	 3.00000000E+00
					 2.50000000E-01	 7.50000000E-01	 3.00000000E+00
					 5.00000000E-01	 7.50000000E-01	 3.00000000E+00
					 7.50000000E-01	 7.50000000E-01	 3.00000000E+00
					 5.00000000E-01	 1.12500000E+00	 3.00000000E+00
					 5.00000000E-01	 7.50000000E-01	 3.50000000E+00
					 5.00000000E-01	 3.75000000E-01	 4.00000000E+00
					 2.50000000E-01	 7.50000000E-01	 4.00000000E+00
					 5.00000000E-01	 7.50000000E-01	 4.00000000E+00
					 7.50000000E-01	 7.50000000E-01	 4.00000000E+00
					 5.00000000E-01	 1.12500000E+00	 4.00000000E+00
					 5.00000000E-01	 7.50000000E-01	 4.50000000E+00
					 5.00000000E-01	 3.75000000E-01	 5.00000000E+00
					 2.50000000E-01	 7.50000000E-01	 5.00000000E+00
					 5.00000000E-01	 7.50000000E-01	 5.00000000E+00
					 7.50000000E-01	 7.50000000E-01	 5.00000000E+00
					 5.00000000E-01	 1.12500000E+00	 5.00000000E+00
					 5.00000000E-01	 7.50000000E-01	 5.50000000E+00
					 5.00000000E-01	 3.75000000E-01	 6.00000000E+00
					 2.50000000E-01	 7.50000000E-01	 6.00000000E+00
					 5.00000000E-01	 7.50000000E-01	 6.00000000E+00
					 7.50000000E-01	 7.50000000E-01	 6.00000000E+00
					 5.00000000E-01	 1.12500000E+00	 6.00000000E+00
					 5.00000000E-01	 7.50000000E-01	 6.50000000E+00
					 5.00000000E-01	 3.75000000E-01	 7.00000000E+00
					 2.50000000E-01	 7.50000000E-01	 7.00000000E+00
					 5.00000000E-01	 7.50000000E-01	 7.00000000E+00
					 7.50000000E-01	 7.50000000E-01	 7.00000000E+00
					 5.00000000E-01	 1.12500000E+00	 7.00000000E+00
					 5.00000000E-01	 7.50000000E-01	 7.50000000E+00

				</DataArray>
			</Points>
			<Cells>
				<DataArray type="Int32" Name="connectivity" format="ascii">
					0 9 94 18 60 104 221 191 8 92 93 19 103 219 220 192 61 102 218 189 9 1 12 94 104 33 133 221 10 11 95 92 105 132 222 219 102 32 131 218 18 94 15 3 191 221 162 78 93 96 16 17 220 223 163 190 189 218 160 77 94 12 2 15 221 133 63 162 95 13 14 96 222 134 161 223 218 131 62 160 60 104 221 191 58 108 227 195 103 219 220 192 107 225 226 196 59 106 224 193 104 33 133 221 108 35 137 227 105 132 222 219 109 136 228 225 106 34 135 224 191 221 162 78 195 227 166 80 220 223 163 190 226 229 167 194 193 224 164 79 221 133 63 162 227 137 65 166 222 134 161 223 228 138 165 229 224 135 64 164 58 108 227 195 56 112 233 199 107 225 226 196 111 231 232 200 57 110 230 197 108 35 137 227 112 37 141 233 109 136 228 225 113 140 234 231 110 36 139 230 195 227 166 80 199 233 170 82 226 229 167 194 232 235 171 198 197 230 168 81 227 137 65 166 233 141 67 170 228 138 165 229 234 142 169 235 230 139 66 168 56 112 233 199 54 116 239 203 111 231 232 200 115 237 238 204 55 114 236 201 112 37 141 233 116 39 145 239 113 140 234 231 117 144 240 237 114 38 143 236 199 233 170 82 203 239 174 84 232 235 171 198 238 241 175 202 201 236 172 83 233 141 67 170 239 145 69 174 234 142 169 235 240 146 173 241 236 143 68 172 54 116 239 203 52 120 245 207 115 237 238 204 119 243 244 208 53 118 242 205 116 39 145 239 120 41 149 245 117 144 240 237 121 148 246 243 118 40 147 242 203 239 174 84 207 245 178 86 238 241 175 202 244 247 179 206 205 242 176 85 239 145 69 174 245 149 71 178 240 146 173 241 246 150 177 247 242 147 70 176 52 120 245 207 50 124 251 211 119 243 244 208 123 249 250 212 51 122 248 209 120 41 149 245 124 43 153 251 121 148 246 243 125 152 252 249 122 42 151 248 207 245 178 86 211 251 182 88 244 247 179 206 250 253 183 210 209 248 180 87 245 149 71 178 251 153 73 182 246 150 177 247 252 154 181 253 248 151 72 180 50 124 251 211 48 128 257 215 123 249 250 212 127 255 256 216 49 126 254 213 124 43 153 251 128 45 157 257 125 152 252 249 129 156 258 255 126 44 155 254 211 251 182 88 215 257 186 90 250 253 183 210 256 259 187 214 213 254 184 89 251 153 73 182 257 157 75 186 252 154 181 253 258 158 185 259 254 155 74 184 48 128 257 215 4 21 99 30 127 255 256 216 20 97 98 31 47 130 260 217 128 45 157 257 21 5 24 99 129 156 258 255 22 23 100 97 130 46 159 260 215 257 186 90 30 99 27 7 256 259 187 214 98 101 28 29 217 260 188 91 257 157 75 186 99 24 6 27 258 158 185 259 100 25 26 101 260 159 76 188 
				</DataArray>
				<DataArray type="Int32" Name="offsets" format="ascii">
					20 40 60 80 100 120 140 160 180 200 220 240 260 280 300 320 340 360 380 400 420 440 460 480 500 520 540 560 580 600 620 640 
				</DataArray>
				<DataArray type="UInt8" Name="types" format="ascii">
					25 25 25 25 25 25 25 25 25 25 25 25 25 25 25 25 25 25 25 25 25 25 25 25 25 25 25 25 25 25 25 25 
				</DataArray>
			</Cells>
			<PointData>
				<DataArray type="Float32" Name="U" NumberOfComponents="3" ComponentName0="D1" ComponentName1="D2" ComponentName2="D3" format="ascii">
					 0.00000000E+00	 0.00000000E+00	 0.00000000E+00
					 0.00000000E+00	 0.00000000E+00	 0.00000000E+00
					 0.00000000E+00	 0.00000000E+00	 0.00000000E+00
					 0.00000000E+00	 0.00000000E+00	 0.00000000E+00
					 8.14276000E+03	-1.06619000E+03	 1.99536000E+03
					 8.14276000E+03	 1.06619000E+03	-1.99536000E+03
					 3.29607000E+03	 1.08605000E+03	-1.98806000E+03
					 3.29607000E+03	-1.08605000E+03	 1.98806000E+03
					 0.00000000E+00	 0.00000000E+00	 0.00000000E+00
					 0.00000000E+00	 0.00000000E+00	 0.00000000E+00
					 0.00000000E+00	 0.00000000E+00	 0.00000000E+00
					 0.00000000E+00	 0.00000000E+00	 0.00000000E+00
					 0.00000000E+00	 0.00000000E+00	 0.00000000E+00
					 0.00000000E+00	 0.00000000E+00	 0.00000000E+00
					 0.00000000E+00	 0.00000000E+00	 0.00000000E+00
					 0.00000000E+00	 0.00000000E+00	 0.00000000E+00
					 0.00000000E+00	 0.00000000E+00	 0.00000000E+00
					 0.00000000E+00	 0.00000000E+00	 0.00000000E+00
					 0.00000000E+00	 0.00000000E+00	 0.00000000E+00
					 0.00000000E+00	 0.00000000E+00	 0.00000000E+00
					 8.14402000E+03	-5.37053000E+02	 9.94821000E+02
					 8.14582000E+03	 0.00000000E+00	-2.14686000E-09
					 8.14402000E+03	 5.37053000E+02	-9.94821000E+02
					 6.95018000E+03	 1.06486000E+03	-1.99893000E+03
					 5.74032000E+03	 1.07209000E+03	-2.00048000E+03
					 4.52887000E+03	 1.08257000E+03	-1.99670000E+03
					 3.30253000E+03	 5.40012000E+02	-9.90894000E+02
					 3.30980000E+03	 0.00000000E+00	-1.07093000E-09
					 3.30253000E+03	-5.40012000E+02	 9.90894000E+02
					 4.52887000E+03	-1.08257000E+03	 1.99670000E+03
					 5.74032000E+03	-1.07209000E+03	 2.00048000E+03
					 6.95018000E+03	-1.06486000E+03	 1.99893000E+03
					-1.35504000E+02	 2.49851000E+02	 2.93181000E+02
					-5.08617000E+02	 3.69172000E+02	 5.19289000E+02
					-1.11669000E+03	 5.00014000E+02	 6.05626000E+02
					-1.75233000E+03	 6.03841000E+02	 5.77012000E+02
					-2.32759000E+03	 6.97081000E+02	 4.37616000E+02
					-2.71620000E+03	 7.74591000E+02	 2.11898000E+02
					-2.84787000E+03	 8.33285000E+02	-8.24444000E+01
					-2.66474000E+03	 8.75646000E+02	-4.15718000E+02
					-2.13992000E+03	 9.05894000E+02	-7.61180000E+02
					-1.27769000E+03	 9.29476000E+02	-1.09398000E+03
					-1.07545000E+02	 9.51261000E+02	-1.38991000E+03
					 1.31879000E+03	 9.74641000E+02	-1.63488000E+03
					 2.92989000E+03	 1.00144000E+03	-1.81320000E+03
					 4.65595000E+03	 1.03046000E+03	-1.93044000E+03
					 6.40692000E+03	 1.05227000E+03	-1.98246000E+03
					 6.40692000E+03	-1.05227000E+03	 1.98246000E+03
					 4.65595000E+03	-1.03046000E+03	 1.93044000E+03
					 2.92989000E+03	-1.00144000E+03	 1.81320000E+03
					 1.31879000E+03	-9.74641000E+02	 1.63488000E+03
					-1.07545000E+02	-9.51261000E+02	 1.38991000E+03
					-1.27769000E+03	-9.29476000E+02	 1.09398000E+03
					-2.13992000E+03	-9.05894000E+02	 7.61180000E+02
					-2.66474000E+03	-8.75646000E+02	 4.15718000E+02
					-2.84787000E+03	-8.33285000E+02	 8.24444000E+01
					-2.71620000E+03	-7.74591000E+02	-2.11898000E+02
					-2.32759000E+03	-6.97081000E+02	-4.37616000E+02
					-1.75233000E+03	-6.03841000E+02	-5.77012000E+02
					-1.11669000E+03	-5.00014000E+02	-6.05626000E+02
					-5.08617000E+02	-3.69172000E+02	-5.19289000E+02
					-1.35504000E+02	-2.49851000E+02	-2.93181000E+02
					-4.86442000E+02	 1.75244000E+01	 4.19275000E+02
					-1.30013000E+03	 2.60347000E+02	 6.86173000E+02
					-2.39728000E+03	 4.83881000E+02	 7.84883000E+02
					-3.49087000E+03	 7.08205000E+02	 7.36548000E+02
					-4.52133000E+03	 8.90773000E+02	 5.63773000E+02
					-5.33658000E+03	 1.04008000E+03	 3.00140000E+02
					-5.87448000E+03	 1.14344000E+03	-3.06066000E+01
					-6.05910000E+03	 1.20593000E+03	-3.95879000E+02
					-5.86677000E+03	 1.23005000E+03	-7.66158000E+02
					-5.29493000E+03	 1.22596000E+03	-1.11429000E+03
					-4.37290000E+03	 1.20229000E+03	-1.41646000E+03
					-3.15175000E+03	 1.16916000E+03	-1.65954000E+03
					-1.69914000E+03	 1.13644000E+03	-1.83212000E+03
					-9.10633000E+01	 1.10738000E+03	-1.93875000E+03
					 1.59171000E+03	 1.09469000E+03	-1.98357000E+03
					-4.86442000E+02	-1.75244000E+01	-4.19275000E+02
					-1.30013000E+03	-2.60347000E+02	-6.86173000E+02
					-2.39728000E+03	-4.83881000E+02	-7.84883000E+02
					-3.49087000E+03	-7.08205000E+02	-7.36548000E+02
					-4.52133000E+03	-8.90773000E+02	-5.63773000E+02
					-5.33658000E+03	-1.04008000E+03	-3.00140000E+02
					-5.87448000E+03	-1.14344000E+03	 3.06066000E+01
					-6.05910000E+03	-1.20593000E+03	 3.95879000E+02
					-5.86677000E+03	-1.23005000E+03	 7.66158000E+02
					-5.29493000E+03	-1.22596000E+03	 1.11429000E+03
					-4.37290000E+03	-1.20229000E+03	 1.41646000E+03
					-3.15175000E+03	-1.16916000E+03	 1.65954000E+03
					-1.69914000E+03	-1.13644000E+03	 1.83212000E+03
					-9.10633000E+01	-1.10738000E+03	 1.93875000E+03
					 1.59171000E+03	-1.09469000E+03	 1.98357000E+03
					 0.00000000E+00	 0.00000000E+00	 0.00000000E+00
					 0.00000000E+00	 0.00000000E+00	 0.00000000E+00
					 0.00000000E+00	 0.00000000E+00	 0.00000000E+00
					 0.00000000E+00	 0.00000000E+00	 0.00000000E+00
					 0.00000000E+00	 0.00000000E+00	 0.00000000E+00
					 6.94282000E+03	 0.00000000E+00	-1.87206000E-09
					 5.75103000E+03	-5.34852000E+02	 1.00108000E+03
					 5.75539000E+03	 0.00000000E+00	-1.61140000E-09
					 5.75103000E+03	 5.34852000E+02	-1.00108000E+03
					 4.51457000E+03	 0.00000000E+00	-1.34605000E-09
					-7.18177000E+01	 0.00000000E+00	 0.00000000E+00
					-4.97772000E+02	-1.87537000E+02	-2.63380000E+02
					-5.06135000E+02	 0.00000000E+00	 0.00000000E+00
					-4.97772000E+02	 1.87537000E+02	 2.63380000E+02
					-1.10499000E+03	 0.00000000E+00	 0.00000000E+00
					-1.76958000E+03	-3.01100000E+02	-2.90298000E+02
					-1.77736000E+03	 0.00000000E+00	 0.00000000E+00
					-1.76958000E+03	 3.01100000E+02	 2.90298000E+02
					-2.35484000E+03	 0.00000000E+00	 0.00000000E+00
					-2.74982000E+03	-3.87336000E+02	-1.13831000E+02
					-2.76255000E+03	 0.00000000E+00	 0.00000000E+00
					-2.74982000E+03	 3.87336000E+02	 1.13831000E+02
					-2.89759000E+03	 0.00000000E+00	 0.00000000E+00
					-2.70676000E+03	-4.38985000E+02	 1.95351000E+02
					-2.72130000E+03	 0.00000000E+00	 0.00000000E+00
					-2.70676000E+03	 4.38985000E+02	-1.95351000E+02
					-2.19351000E+03	 0.00000000E+00	 0.00000000E+00
					-1.31566000E+03	-4.67604000E+02	 5.30457000E+02
					-1.32901000E+03	 0.00000000E+00	 0.00000000E+00
					-1.31566000E+03	 4.67604000E+02	-5.30457000E+02
					-1.49044000E+02	 0.00000000E+00	 0.00000000E+00
					 1.29386000E+03	-4.91385000E+02	 7.99973000E+02
					 1.28480000E+03	 0.00000000E+00	 0.00000000E+00
					 1.29386000E+03	 4.91385000E+02	-7.99973000E+02
					 2.90747000E+03	 0.00000000E+00	-1.12891000E-09
					 4.64394000E+03	-5.17833000E+02	 9.53000000E+02
					 4.63602000E+03	 0.00000000E+00	-1.46997000E-09
					 4.64394000E+03	 5.17833000E+02	-9.53000000E+02
					 6.40773000E+03	 0.00000000E+00	-1.81944000E-09
					-3.75523000E+02	 1.60261000E+02	 3.50236000E+02
					-7.55138000E+02	 3.33289000E+02	 5.16015000E+02
					-9.56986000E+02	 3.08495000E+02	 6.10805000E+02
					-1.14685000E+03	 2.92489000E+02	 7.14705000E+02
					-1.76666000E+03	 4.88198000E+02	 6.97243000E+02
					-2.16184000E+03	 6.25865000E+02	 5.81932000E+02
					-2.59369000E+03	 6.54542000E+02	 6.58910000E+02
					-3.03375000E+03	 6.86982000E+02	 7.56078000E+02
					-3.35868000E+03	 7.95188000E+02	 5.02662000E+02
					-3.29951000E+03	 8.35423000E+02	 1.98893000E+02
					-3.93516000E+03	 9.07762000E+02	 2.57635000E+02
					-4.61517000E+03	 9.81150000E+02	 3.26671000E+02
					-4.24999000E+03	 9.88504000E+02	-5.59158000E+01
					-3.42062000E+03	 9.52608000E+02	-4.40557000E+02
					-4.24265000E+03	 1.04092000E+03	-4.06025000E+02
					-5.12171000E+03	 1.12923000E+03	-3.68373000E+02
					-3.88345000E+03	 1.06752000E+03	-7.65025000E+02
					-2.19847000E+03	 9.97581000E+02	-1.12422000E+03
					-3.17661000E+03	 1.07668000E+03	-1.10581000E+03
					-4.20805000E+03	 1.15498000E+03	-1.09171000E+03
					-2.14501000E+03	 1.07523000E+03	-1.40597000E+03
					 2.55399000E+02	 1.01746000E+03	-1.66016000E+03
					-8.44237000E+02	 1.06993000E+03	-1.64890000E+03
					-1.97788000E+03	 1.12128000E+03	-1.64664000E+03
					 6.67952000E+02	 1.06638000E+03	-1.82659000E+03
					 3.48682000E+03	 1.04524000E+03	-1.94361000E+03
					 2.31154000E+03	 1.06645000E+03	-1.93548000E+03
					 1.11740000E+03	 1.08757000E+03	-1.93514000E+03
					 4.02013000E+03	 1.07156000E+03	-1.98871000E+03
					-4.20729000E+02	 0.00000000E+00	 0.00000000E+00
					-1.29529000E+03	 1.27660000E+02	 2.82299000E+02
					-1.31569000E+03	 0.00000000E+00	 0.00000000E+00
					-1.29529000E+03	-1.27660000E+02	-2.82299000E+02
					-2.37816000E+03	 0.00000000E+00	 0.00000000E+00
					-3.51172000E+03	 3.48312000E+02	 3.23700000E+02
					-3.52079000E+03	 0.00000000E+00	 0.00000000E+00
					-3.51172000E+03	-3.48312000E+02	-3.23700000E+02
					-4.54503000E+03	 0.00000000E+00	 0.00000000E+00
					-5.37156000E+03	 5.13726000E+02	 1.16065000E+02
					-5.38422000E+03	 0.00000000E+00	 0.00000000E+00
					-5.37156000E+03	-5.13726000E+02	-1.16065000E+02
					-5.92057000E+03	 0.00000000E+00	 0.00000000E+00
					-6.10181000E+03	 5.98346000E+02	-2.16153000E+02
					-6.11455000E+03	 0.00000000E+00	 0.00000000E+00
					-6.10181000E+03	-5.98346000E+02	 2.16153000E+02
					-5.91807000E+03	 0.00000000E+00	 0.00000000E+00
					-5.33349000E+03	 6.11327000E+02	-5.61492000E+02
					-5.34510000E+03	 0.00000000E+00	 0.00000000E+00
					-5.33349000E+03	-6.11327000E+02	 5.61492000E+02
					-4.41354000E+03	 0.00000000E+00	 0.00000000E+00
					-3.17685000E+03	 5.85214000E+02	-8.25084000E+02
					-3.18394000E+03	 0.00000000E+00	 0.00000000E+00
					-3.17685000E+03	-5.85214000E+02	 8.25084000E+02
					-1.72388000E+03	 0.00000000E+00	 0.00000000E+00
					-1.03030000E+02	 5.55755000E+02	-9.63047000E+02
					-1.08942000E+02	 0.00000000E+00	 0.00000000E+00
					-1.03030000E+02	-5.55755000E+02	 9.63047000E+02
					 1.59490000E+03	 0.00000000E+00	 0.00000000E+00
					-3.75523000E+02	-1.60261000E+02	-3.50236000E+02
					-1.14685000E+03	-2.92489000E+02	-7.14705000E+02
					-9.56986000E+02	-3.08495000E+02	-6.10805000E+02
					-7.55138000E+02	-3.33289000E+02	-5.16015000E+02
					-1.76666000E+03	-4.88198000E+02	-6.97243000E+02
					-3.03375000E+03	-6.86982000E+02	-7.56078000E+02
					-2.59369000E+03	-6.54542000E+02	-6.58910000E+02
					-2.16184000E+03	-6.25865000E+02	-5.81932000E+02
					-3.35868000E+03	-7.95188000E+02	-5.02662000E+02
					-4.61517000E+03	-9.81150000E+02	-3.26671000E+02
					-3.93516000E+03	-9.07762000E+02	-2.57635000E+02
					-3.29951000E+03	-8.35423000E+02	-1.98893000E+02
					-4.24999000E+03	-9.88504000E+02	 5.59158000E+01
					-5.12171000E+03	-1.12923000E+03	 3.68373000E+02
					-4.24265000E+03	-1.04092000E+03	 4.06025000E+02
					-3.42062000E+03	-9.52608000E+02	 4.40557000E+02
					-3.88345000E+03	-1.06752000E+03	 7.65025000E+02
					-4.20805000E+03	-1.15498000E+03	 1.09171000E+03
					-3.17661000E+03	-1.07668000E+03	 1.10581000E+03
					-2.19847000E+03	-9.97581000E+02	 1.12422000E+03
					-2.14501000E+03	-1.07523000E+03	 1.40597000E+03
					-1.97788000E+03	-1.12128000E+03	 1.64664000E+03
					-8.44237000E+02	-1.06993000E+03	 1.64890000E+03
					 2.55399000E+02	-1.01746000E+03	 1.66016000E+03
					 6.67952000E+02	-1.06638000E+03	 1.82659000E+03
					 1.11740000E+03	-1.08757000E+03	 1.93514000E+03
					 2.31154000E+03	-1.06645000E+03	 1.93548000E+03
					 3.48682000E+03	-1.04524000E+03	 1.94361000E+03
					 4.02013000E+03	-1.07156000E+03	 1.98871000E+03
					-3.06162000E+02	 0.00000000E+00	 0.00000000E+00
					-7.57991000E+02	 0.00000000E+00	 0.00000000E+00
					-9.44951000E+02	-1.57778000E+02	-2.83350000E+02
					-9.57929000E+02	 0.00000000E+00	 0.00000000E+00
					-9.44951000E+02	 1.57778000E+02	 2.83350000E+02
					-1.15413000E+03	 0.00000000E+00	 0.00000000E+00
					-1.75126000E+03	 0.00000000E+00	 0.00000000E+00
					-2.18585000E+03	 0.00000000E+00	 0.00000000E+00
					-2.61257000E+03	-3.24284000E+02	-3.17651000E+02
					-2.61980000E+03	 0.00000000E+00	 0.00000000E+00
					-2.61257000E+03	 3.24284000E+02	 3.17651000E+02
					-3.06196000E+03	 0.00000000E+00	 0.00000000E+00
					-3.38684000E+03	 0.00000000E+00	 0.00000000E+00
					-3.34478000E+03	 0.00000000E+00	 0.00000000E+00
					-3.96958000E+03	-4.50197000E+02	-1.21286000E+02
					-3.98200000E+03	 0.00000000E+00	 0.00000000E+00
					-3.96958000E+03	 4.50197000E+02	 1.21286000E+02
					-4.66284000E+03	 0.00000000E+00	 0.00000000E+00
					-4.30001000E+03	 0.00000000E+00	 0.00000000E+00
					-3.47547000E+03	 0.00000000E+00	 0.00000000E+00
					-4.28549000E+03	-5.17422000E+02	 2.04148000E+02
					-4.29904000E+03	 0.00000000E+00	 0.00000000E+00
					-4.28549000E+03	 5.17422000E+02	-2.04148000E+02
					-5.17847000E+03	 0.00000000E+00	 0.00000000E+00