# vtk DataFile Version 3.0

ASCII
DATASET UNSTRUCTURED_GRID

POINTS 261 double
	 0.00000000E+00	 0.00000000E+00	 0.00000000E+00
	 1.00000000E+00	 0.00000000E+00	 0.00000000E+00
	 1.00000000E+00	 1.00000000E+00	 0.00000000E+00
	 0.00000000E+00	 1.00000000E+00	 0.00000000E+00
	 0.00000000E+00	 0.00000000E+00	 8.00000000E+00
	 1.00000000E+00	 0.00000000E+00	 8.00000000E+00
	 1.00000000E+00	 1.00000000E+00	 8.00000000E+00
	 0.00000000E+00	 1.00000000E+00	 8.00000000E+00
	 2.50000000E-01	 0.00000000E+00	 0.00000000E+00
	 5.00000000E-01	 0.00000000E+00	 0.00000000E+00
	 7.50000000E-01	 0.00000000E+00	 0.00000000E+00
	 1.00000000E+00	 2.50000000E-01	 0.00000000E+00
	 1.00000000E+00	 5.00000000E-01	 0.00000000E+00
	 1.00000000E+00	 7.50000000E-01	 0.00000000E+00
	 7.50000000E-01	 1.00000000E+00	 0.00000000E+00
	 5.00000000E-01	 1.00000000E+00	 0.00000000E+00
	 2.50000000E-01	 1.00000000E+00	 0.00000000E+00
	 0.00000000E+00	 7.50000000E-01	 0.00000000E+00
	 0.00000000E+00	 5.00000000E-01	 0.00000000E+00
	 0.00000000E+00	 2.50000000E-01	 0.00000000E+00
	 2.50000000E-01	 0.00000000E+00	 8.00000000E+00
	 5.00000000E-01	 0.00000000E+00	 8.00000000E+00
	 7.50000000E-01	 0.00000000E+00	 8.00000000E+00
	 1.00000000E+00	 2.50000000E-01	 8.00000000E+00
	 1.00000000E+00	 5.00000000E-01	 8.00000000E+00
	 1.00000000E+00	 7.50000000E-01	 8.00000000E+00
	 7.50000000E-01	 1.00000000E+00	 8.00000000E+00
	 5.00000000E-01	 1.00000000E+00	 8.00000000E+00
	 2.50000000E-01	 1.00000000E+00	 8.00000000E+00
	 0.00000000E+00	 7.50000000E-01	 8.00000000E+00
	 0.00000000E+00	 5.00000000E-01	 8.00000000E+00
	 0.00000000E+00	 2.50000000E-01	 8.00000000E+00
	 1.00000000E+00	 0.00000000E+00	 5.00000000E-01
	 1.00000000E+00	 0.00000000E+00	 1.00000000E+00
	 1.00000000E+00	 0.00000000E+00	 1.50000000E+00
	 1.00000000E+00	 0.00000000E+00	 2.00000000E+00
	 1.00000000E+00	 0.00000000E+00	 2.50000000E+00
	 1.00000000E+00	 0.00000000E+00	 3.00000000E+00
	 1.00000000E+00	 0.00000000E+00	 3.50000000E+00
	 1.00000000E+00	 0.00000000E+00	 4.00000000E+00
	 1.00000000E+00	 0.00000000E+00	 4.50000000E+00
	 1.00000000E+00	 0.00000000E+00	 5.00000000E+00
	 1.00000000E+00	 0.00000000E+00	 5.50000000E+00
	 1.00000000E+00	 0.00000000E+00	 6.00000000E+00
	 1.00000000E+00	 0.00000000E+00	 6.50000000E+00
	 1.00000000E+00	 0.00000000E+00	 7.00000000E+00
	 1.00000000E+00	 0.00000000E+00	 7.50000000E+00
	 0.00000000E+00	 0.00000000E+00	 7.50000000E+00
	 0.00000000E+00	 0.00000000E+00	 7.00000000E+00
	 0.00000000E+00	 0.00000000E+00	 6.50000000E+00
	 0.00000000E+00	 0.00000000E+00	 6.00000000E+00
	 0.00000000E+00	 0.00000000E+00	 5.50000000E+00
	 0.00000000E+00	 0.00000000E+00	 5.00000000E+00
	 0.00000000E+00	 0.00000000E+00	 4.50000000E+00
	 0.00000000E+00	 0.00000000E+00	 4.00000000E+00
	 0.00000000E+00	 0.00000000E+00	 3.50000000E+00
	 0.00000000E+00	 0.00000000E+00	 3.00000000E+00
	 0.00000000E+00	 0.00000000E+00	 2.50000000E+00
	 0.00000000E+00	 0.00000000E+00	 2.00000000E+00
	 0.00000000E+00	 0.00000000E+00	 1.50000000E+00
	 0.00000000E+00	 0.00000000E+00	 1.00000000E+00
	 0.00000000E+00	 0.00000000E+00	 5.00000000E-01
	 1.00000000E+00	 1.00000000E+00	 5.00000000E-01
	 1.00000000E+00	 1.00000000E+00	 1.00000000E+00
	 1.00000000E+00	 1.00000000E+00	 1.50000000E+00
	 1.00000000E+00	 1.00000000E+00	 2.00000000E+00
	 1.00000000E+00	 1.00000000E+00	 2.50000000E+00
	 1.00000000E+00	 1.00000000E+00	 3.00000000E+00
	 1.00000000E+00	 1.00000000E+00	 3.50000000E+00
	 1.00000000E+00	 1.00000000E+00	 4.00000000E+00
	 1.00000000E+00	 1.00000000E+00	 4.50000000E+00
	 1.00000000E+00	 1.00000000E+00	 5.00000000E+00
	 1.00000000E+00	 1.00000000E+00	 5.50000000E+00
	 1.00000000E+00	 1.00000000E+00	 6.00000000E+00
	 1.00000000E+00	 1.00000000E+00	 6.50000000E+00
	 1.00000000E+00	 1.00000000E+00	 7.00000000E+00
	 1.00000000E+00	 1.00000000E+00	 7.50000000E+00
	 0.00000000E+00	 1.00000000E+00	 5.00000000E-01
	 0.00000000E+00	 1.00000000E+00	 1.00000000E+00
	 0.00000000E+00	 1.00000000E+00	 1.50000000E+00
	 0.00000000E+00	 1.00000000E+00	 2.00000000E+00
	 0.00000000E+00	 1.00000000E+00	 2.50000000E+00
	 0.00000000E+00	 1.00000000E+00	 3.00000000E+00
	 0.00000000E+00	 1.00000000E+00	 3.50000000E+00
	 0.00000000E+00	 1.00000000E+00	 4.00000000E+00
	 0.00000000E+00	 1.00000000E+00	 4.50000000E+00
	 0.00000000E+00	 1.00000000E+00	 5.00000000E+00
	 0.00000000E+00	 1.00000000E+00	 5.50000000E+00
	 0.00000000E+00	 1.00000000E+00	 6.00000000E+00
	 0.00000000E+00	 1.00000000E+00	 6.50000000E+00
	 0.00000000E+00	 1.00000000E+00	 7.00000000E+00
	 0.00000000E+00	 1.00000000E+00	 7.50000000E+00
	 5.00000000E-01	 2.50000000E-01	 0.00000000E+00
	 2.50000000E-01	 5.00000000E-01	 0.00000000E+00
	 5.00000000E-01	 5.00000000E-01	 0.00000000E+00
	 7.50000000E-01	 5.00000000E-01	 0.00000000E+00
	 5.00000000E-01	 7.50000000E-01	 0.00000000E+00
	 5.00000000E-01	 2.50000000E-01	 8.00000000E+00
	 2.50000000E-01	 5.00000000E-01	 8.00000000E+00
	 5.00000000E-01	 5.00000000E-01	 8.00000000E+00
	 7.50000000E-01	 5.00000000E-01	 8.00000000E+00
	 5.00000000E-01	 7.50000000E-01	 8.00000000E+00
	 5.00000000E-01	 0.00000000E+00	 5.00000000E-01
	 2.50000000E-01	 0.00000000E+00	 1.00000000E+00
	 5.00000000E-01	 0.00000000E+00	 1.00000000E+00
	 7.50000000E-01	 0.00000000E+00	 1.00000000E+00
	 5.00000000E-01	 0.00000000E+00	 1.50000000E+00
	 2.50000000E-01	 0.00000000E+00	 2.00000000E+00
	 5.00000000E-01	 0.00000000E+00	 2.00000000E+00
	 7.50000000E-01	 0.00000000E+00	 2.00000000E+00
	 5.00000000E-01	 0.00000000E+00	 2.50000000E+00
	 2.50000000E-01	 0.00000000E+00	 3.00000000E+00
	 5.00000000E-01	 0.00000000E+00	 3.00000000E+00
	 7.50000000E-01	 0.00000000E+00	 3.00000000E+00
	 5.00000000E-01	 0.00000000E+00	 3.50000000E+00
	 2.50000000E-01	 0.00000000E+00	 4.00000000E+00
	 5.00000000E-01	 0.00000000E+00	 4.00000000E+00
	 7.50000000E-01	 0.00000000E+00	 4.00000000E+00
	 5.00000000E-01	 0.00000000E+00	 4.50000000E+00
	 2.50000000E-01	 0.00000000E+00	 5.00000000E+00
	 5.00000000E-01	 0.00000000E+00	 5.00000000E+00
	 7.50000000E-01	 0.00000000E+00	 5.00000000E+00
	 5.00000000E-01	 0.00000000E+00	 5.50000000E+00
	 2.50000000E-01	 0.00000000E+00	 6.00000000E+00
	 5.00000000E-01	 0.00000000E+00	 6.00000000E+00
	 7.50000000E-01	 0.00000000E+00	 6.00000000E+00
	 5.00000000E-01	 0.00000000E+00	 6.50000000E+00
	 2.50000000E-01	 0.00000000E+00	 7.00000000E+00
	 5.00000000E-01	 0.00000000E+00	 7.00000000E+00
	 7.50000000E-01	 0.00000000E+00	 7.00000000E+00
	 5.00000000E-01	 0.00000000E+00	 7.50000000E+00
	 1.00000000E+00	 5.00000000E-01	 5.00000000E-01
	 1.00000000E+00	 2.50000000E-01	 1.00000000E+00
	 1.00000000E+00	 5.00000000E-01	 1.00000000E+00
	 1.00000000E+00	 7.50000000E-01	 1.00000000E+00
	 1.00000000E+00	 5.00000000E-01	 1.50000000E+00
	 1.00000000E+00	 2.50000000E-01	 2.00000000E+00
	 1.00000000E+00	 5.00000000E-01	 2.00000000E+00
	 1.00000000E+00	 7.50000000E-01	 2.00000000E+00
	 1.00000000E+00	 5.00000000E-01	 2.50000000E+00
	 1.00000000E+00	 2.50000000E-01	 3.00000000E+00
	 1.00000000E+00	 5.00000000E-01	 3.00000000E+00
	 1.00000000E+00	 7.50000000E-01	 3.00000000E+00
	 1.00000000E+00	 5.00000000E-01	 3.50000000E+00
	 1.00000000E+00	 2.50000000E-01	 4.00000000E+00
	 1.00000000E+00	 5.00000000E-01	 4.00000000E+00
	 1.00000000E+00	 7.50000000E-01	 4.00000000E+00
	 1.00000000E+00	 5.00000000E-01	 4.50000000E+00
	 1.00000000E+00	 2.50000000E-01	 5.00000000E+00
	 1.00000000E+00	 5.00000000E-01	 5.00000000E+00
	 1.00000000E+00	 7.50000000E-01	 5.00000000E+00
	 1.00000000E+00	 5.00000000E-01	 5.50000000E+00
	 1.00000000E+00	 2.50000000E-01	 6.00000000E+00
	 1.00000000E+00	 5.00000000E-01	 6.00000000E+00
	 1.00000000E+00	 7.50000000E-01	 6.00000000E+00
	 1.00000000E+00	 5.00000000E-01	 6.50000000E+00
	 1.00000000E+00	 2.50000000E-01	 7.00000000E+00
	 1.00000000E+00	 5.00000000E-01	 7.00000000E+00
	 1.00000000E+00	 7.50000000E-01	 7.00000000E+00
	 1.00000000E+00	 5.00000000E-01	 7.50000000E+00
	 5.00000000E-01	 1.00000000E+00	 5.00000000E-01
	 7.50000000E-01	 1.00000000E+00	 1.00000000E+00
	 5.00000000E-01	 1.00000000E+00	 1.00000000E+00
	 2.50000000E-01	 1.00000000E+00	 1.00000000E+00
	 5.00000000E-01	 1.00000000E+00	 1.50000000E+00
	 7.50000000E-01	 1.00000000E+00	 2.00000000E+00
	 5.00000000E-01	 1.00000000E+00	 2.00000000E+00
	 2.50000000E-01	 1.00000000E+00	 2.00000000E+00
	 5.00000000E-01	 1.00000000E+00	 2.50000000E+00
	 7.50000000E-01	 1.00000000E+00	 3.00000000E+00
	 5.00000000E-01	 1.00000000E+00	 3.00000000E+00
	 2.50000000E-01	 1.00000000E+00	 3.00000000E+00
	 5.00000000E-01	 1.00000000E+00	 3.50000000E+00
	 7.50000000E-01	 1.00000000E+00	 4.00000000E+00
	 5.00000000E-01	 1.00000000E+00	 4.00000000E+00
	 2.50000000E-01	 1.00000000E+00	 4.00000000E+00
	 5.00000000E-01	 1.00000000E+00	 4.50000000E+00
	 7.50000000E-01	 1.00000000E+00	 5.00000000E+00
	 5.00000000E-01	 1.00000000E+00	 5.00000000E+00
	 2.50000000E-01	 1.00000000E+00	 5.00000000E+00
	 5.00000000E-01	 1.00000000E+00	 5.50000000E+00
	 7.50000000E-01	 1.00000000E+00	 6.00000000E+00
	 5.00000000E-01	 1.00000000E+00	 6.00000000E+00
	 2.50000000E-01	 1.00000000E+00	 6.00000000E+00
	 5.00000000E-01	 1.00000000E+00	 6.50000000E+00
	 7.50000000E-01	 1.00000000E+00	 7.00000000E+00
	 5.00000000E-01	 1.00000000E+00	 7.00000000E+00
	 2.50000000E-01	 1.00000000E+00	 7.00000000E+00
	 5.00000000E-01	 1.00000000E+00	 7.50000000E+00
	 0.00000000E+00	 5.00000000E-01	 5.00000000E-01
	 0.00000000E+00	 7.50000000E-01	 1.00000000E+00
	 0.00000000E+00	 5.00000000E-01	 1.00000000E+00
	 0.00000000E+00	 2.50000000E-01	 1.00000000E+00
	 0.00000000E+00	 5.00000000E-01	 1.50000000E+00
	 0.00000000E+00	 7.50000000E-01	 2.00000000E+00
	 0.00000000E+00	 5.00000000E-01	 2.00000000E+00
	 0.00000000E+00	 2.50000000E-01	 2.00000000E+00
	 0.00000000E+00	 5.00000000E-01	 2.50000000E+00
	 0.00000000E+00	 7.50000000E-01	 3.00000000E+00
	 0.00000000E+00	 5.00000000E-01	 3.00000000E+00
	 0.00000000E+00	 2.50000000E-01	 3.00000000E+00
	 0.00000000E+00	 5.00000000E-01	 3.50000000E+00
	 0.00000000E+00	 7.50000000E-01	 4.00000000E+00
	 0.00000000E+00	 5.00000000E-01	 4.00000000E+00
	 0.00000000E+00	 2.50000000E-01	 4.00000000E+00
	 0.00000000E+00	 5.00000000E-01	 4.50000000E+00
	 0.00000000E+00	 7.50000000E-01	 5.00000000E+00
	 0.00000000E+00	 5.00000000E-01	 5.00000000E+00
	 0.00000000E+00	 2.50000000E-01	 5.00000000E+00
	 0.00000000E+00	 5.00000000E-01	 5.50000000E+00
	 0.00000000E+00	 7.50000000E-01	 6.00000000E+00
	 0.00000000E+00	 5.00000000E-01	 6.00000000E+00
	 0.00000000E+00	 2.50000000E-01	 6.00000000E+00
	 0.00000000E+00	 5.00000000E-01	 6.50000000E+00
	 0.00000000E+00	 7.50000000E-01	 7.00000000E+00
	 0.00000000E+00	 5.00000000E-01	 7.00000000E+00
	 0.00000000E+00	 2.50000000E-01	 7.00000000E+00
	 0.00000000E+00	 5.00000000E-01	 7.50000000E+00
	 5.00000000E-01	 5.00000000E-01	 5.00000000E-01
	 5.00000000E-01	 2.50000000E-01	 1.00000000E+00
	 2.50000000E-01	 5.00000000E-01	 1.00000000E+00
	 5.00000000E-01	 5.00000000E-01	 1.00000000E+00
	 7.50000000E-01	 5.00000000E-01	 1.00000000E+00
	 5.00000000E-01	 7.50000000E-01	 1.00000000E+00
	 5.00000000E-01	 5.00000000E-01	 1.50000000E+00
	 5.00000000E-01	 2.50000000E-01	 2.00000000E+00
	 2.50000000E-01	 5.00000000E-01	 2.00000000E+00
	 5.00000000E-01	 5.00000000E-01	 2.00000000E+00
	 7.50000000E-01	 5.00000000E-01	 2.00000000E+00
	 5.00000000E-01	 7.50000000E-01	 2.00000000E+00
	 5.00000000E-01	 5.00000000E-01	 2.50000000E+00
	 5.00000000E-01	 2.50000000E-01	 3.00000000E+00
	 2.50000000E-01	 5.00000000E-01	 3.00000000E+00
	 5.00000000E-01	 5.00000000E-01	 3.00000000E+00
	 7.50000000E-01	 5.00000000E-01	 3.00000000E+00
	 5.00000000E-01	 7.50000000E-01	 3.00000000E+00
	 5.00000000E-01	 5.00000000E-01	 3.50000000E+00
	 5.00000000E-01	 2.50000000E-01	 4.00000000E+00
	 2.50000000E-01	 5.00000000E-01	 4.00000000E+00
	 5.00000000E-01	 5.00000000E-01	 4.00000000E+00
	 7.50000000E-01	 5.00000000E-01	 4.00000000E+00
	 5.00000000E-01	 7.50000000E-01	 4.00000000E+00
	 5.00000000E-01	 5.00000000E-01	 4.50000000E+00
	 5.00000000E-01	 2.50000000E-01	 5.00000000E+00
	 2.50000000E-01	 5.00000000E-01	 5.00000000E+00
	 5.00000000E-01	 5.00000000E-01	 5.00000000E+00
	 7.50000000E-01	 5.00000000E-01	 5.00000000E+00
	 5.00000000E-01	 7.50000000E-01	 5.00000000E+00
	 5.00000000E-01	 5.00000000E-01	 5.50000000E+00
	 5.00000000E-01	 2.50000000E-01	 6.00000000E+00
	 2.50000000E-01	 5.00000000E-01	 6.00000000E+00
	 5.00000000E-01	 5.00000000E-01	 6.00000000E+00
	 7.50000000E-01	 5.00000000E-01	 6.00000000E+00
	 5.00000000E-01	 7.50000000E-01	 6.00000000E+00
	 5.00000000E-01	 5.00000000E-01	 6.50000000E+00
	 5.00000000E-01	 2.50000000E-01	 7.00000000E+00
	 2.50000000E-01	 5.00000000E-01	 7.00000000E+00
	 5.00000000E-01	 5.00000000E-01	 7.00000000E+00
	 7.50000000E-01	 5.00000000E-01	 7.00000000E+00
	 5.00000000E-01	 7.50000000E-01	 7.00000000E+00
	 5.00000000E-01	 5.00000000E-01	 7.50000000E+00

CELLS 32 672
	20 0 9 94 18 60 104 221 191 8 92 93 19 103 219 220 192 61 102 218 189 
	20 9 1 12 94 104 33 133 221 10 11 95 92 105 132 222 219 102 32 131 218 
	20 18 94 15 3 191 221 162 78 93 96 16 17 220 223 163 190 189 218 160 77 
	20 94 12 2 15 221 133 63 162 95 13 14 96 222 134 161 223 218 131 62 160 
	20 60 104 221 191 58 108 227 195 103 219 220 192 107 225 226 196 59 106 224 193 
	20 104 33 133 221 108 35 137 227 105 132 222 219 109 136 228 225 106 34 135 224 
	20 191 221 162 78 195 227 166 80 220 223 163 190 226 229 167 194 193 224 164 79 
	20 221 133 63 162 227 137 65 166 222 134 161 223 228 138 165 229 224 135 64 164 
	20 58 108 227 195 56 112 233 199 107 225 226 196 111 231 232 200 57 110 230 197 
	20 108 35 137 227 112 37 141 233 109 136 228 225 113 140 234 231 110 36 139 230 
	20 195 227 166 80 199 233 170 82 226 229 167 194 232 235 171 198 197 230 168 81 
	20 227 137 65 166 233 141 67 170 228 138 165 229 234 142 169 235 230 139 66 168 
	20 56 112 233 199 54 116 239 203 111 231 232 200 115 237 238 204 55 114 236 201 
	20 112 37 141 233 116 39 145 239 113 140 234 231 117 144 240 237 114 38 143 236 
	20 199 233 170 82 203 239 174 84 232 235 171 198 238 241 175 202 201 236 172 83 
	20 233 141 67 170 239 145 69 174 234 142 169 235 240 146 173 241 236 143 68 172 
	20 54 116 239 203 52 120 245 207 115 237 238 204 119 243 244 208 53 118 242 205 
	20 116 39 145 239 120 41 149 245 117 144 240 237 121 148 246 243 118 40 147 242 
	20 203 239 174 84 207 245 178 86 238 241 175 202 244 247 179 206 205 242 176 85 
	20 239 145 69 174 245 149 71 178 240 146 173 241 246 150 177 247 242 147 70 176 
	20 52 120 245 207 50 124 251 211 119 243 244 208 123 249 250 212 51 122 248 209 
	20 120 41 149 245 124 43 153 251 121 148 246 243 125 152 252 249 122 42 151 248 
	20 207 245 178 86 211 251 182 88 244 247 179 206 250 253 183 210 209 248 180 87 
	20 245 149 71 178 251 153 73 182 246 150 177 247 252 154 181 253 248 151 72 180 
	20 50 124 251 211 48 128 257 215 123 249 250 212 127 255 256 216 49 126 254 213 
	20 124 43 153 251 128 45 157 257 125 152 252 249 129 156 258 255 126 44 155 254 
	20 211 251 182 88 215 257 186 90 250 253 183 210 256 259 187 214 213 254 184 89 
	20 251 153 73 182 257 157 75 186 252 154 181 253 258 158 185 259 254 155 74 184 
	20 48 128 257 215 4 21 99 30 127 255 256 216 20 97 98 31 47 130 260 217 
	20 128 45 157 257 21 5 24 99 129 156 258 255 22 23 100 97 130 46 159 260 
	20 215 257 186 90 30 99 27 7 256 259 187 214 98 101 28 29 217 260 188 91 
	20 257 157 75 186 99 24 6 27 258 158 185 259 100 25 26 101 260 159 76 188 

CELL_TYPES 32
	25
	25
	25
	25
	25
	25
	25
	25
	25
	25
	25
	25
	25
	25
	25
	25
	25
	25
	25
	25
	25
	25
	25
	25
	25
	25
	25
	25
	25
	25
	25
	25

POINT_DATA 261
FIELD U 1
	U 3 261 double
		 0.00000000E+00	 0.00000000E+00	 0.00000000E+00
		 0.00000000E+00	 0.00000000E+00	 0.00000000E+00
		 0.00000000E+00	 0.00000000E+00	 0.00000000E+00
		 0.00000000E+00	 0.00000000E+00	 0.00000000E+00
		 2.11969000E-05	 1.52323000E-02	 2.41444000E-03
		-1.99306000E-05	 1.52333000E-02	 2.41452000E-03
		 2.02546000E-05	 1.52196000E-02	-2.47294000E-03
		-2.12748000E-05	 1.52200000E-02	-2.47323000E-03
		 0.00000000E+00	 0.00000000E+00	 0.00000000E+00
		 0.00000000E+00	 0.00000000E+00	 0.00000000E+00
		 0.00000000E+00	 0.00000000E+00	 0.00000000E+00
		 0.00000000E+00	 0.00000000E+00	 0.00000000E+00
		 0.00000000E+00	 0.00000000E+00	 0.00000000E+00
		 0.00000000E+00	 0.00000000E+00	 0.00000000E+00
		 0.00000000E+00	 0.00000000E+00	 0.00000000E+00
		 0.00000000E+00	 0.00000000E+00	 0.00000000E+00
		 0.00000000E+00	 0.00000000E+00	 0.00000000E+00
		 0.00000000E+00	 0.00000000E+00	 0.00000000E+00
		 0.00000000E+00	 0.00000000E+00	 0.00000000E+00
		 0.00000000E+00	 0.00000000E+00	 0.00000000E+00
		 1.66214000E-05	 1.52521000E-02	 2.42236000E-03
		 5.14821000E-07	 1.52235000E-02	 2.42433000E-03
		-1.55187000E-05	 1.52525000E-02	 2.42258000E-03
		 5.20899000E-07	 1.52170000E-02	 1.17902000E-03
		-1.73962000E-07	 1.51917000E-02	-2.92241000E-05
		-2.70872000E-07	 1.52102000E-02	-1.23781000E-03
		 1.55945000E-05	 1.52398000E-02	-2.48097000E-03
		-5.02609000E-07	 1.52127000E-02	-2.48326000E-03
		-1.65896000E-05	 1.52405000E-02	-2.48129000E-03
		-1.24310000E-08	 1.52095000E-02	-1.23744000E-03
		 9.57813000E-08	 1.51895000E-02	-2.91807000E-05
		 4.29528000E-09	 1.52154000E-02	 1.17894000E-03
		 4.39602000E-05	-1.69320000E-04	-1.58898000E-04
		 8.86519000E-07	-4.49133000E-04	-2.43130000E-04
		-1.65238000E-05	-7.86519000E-04	-2.30187000E-04
		-4.40708000E-05	-1.04370000E-03	-1.29379000E-04
		-6.40595000E-05	-1.15954000E-03	 5.23203000E-05
		-8.16143000E-05	-1.03766000E-03	 2.97503000E-04
		-9.08684000E-05	-6.29936000E-04	 5.88000000E-04
		-9.30683000E-05	 1.07882000E-04	 8.97865000E-04
		-8.79532000E-05	 1.16963000E-03	 1.19936000E-03
		-7.87755000E-05	 2.54413000E-03	 1.47822000E-03
		-6.88708000E-05	 4.17183000E-03	 1.71925000E-03
		-6.04856000E-05	 6.04017000E-03	 1.93405000E-03
		-5.56917000E-05	 8.09590000E-03	 2.11932000E-03
		-3.98719000E-05	 1.03713000E-02	 2.28459000E-03
		-3.55578000E-05	 1.27487000E-02	 2.38475000E-03
		 3.60060000E-05	 1.27481000E-02	 2.38464000E-03
		 4.00113000E-05	 1.03707000E-02	 2.28434000E-03
		 5.52888000E-05	 8.09615000E-03	 2.11922000E-03
		 5.99733000E-05	 6.04084000E-03	 1.93413000E-03
		 6.83098000E-05	 4.17232000E-03	 1.71921000E-03
		 7.84800000E-05	 2.54455000E-03	 1.47827000E-03
		 8.78577000E-05	 1.16969000E-03	 1.19935000E-03
		 9.31899000E-05	 1.07816000E-04	 8.97880000E-04
		 9.10992000E-05	-6.30182000E-04	 5.87996000E-04
		 8.19355000E-05	-1.03795000E-03	 2.97505000E-04
		 6.43974000E-05	-1.15987000E-03	 5.23168000E-05
		 4.43958000E-05	-1.04400000E-03	-1.29377000E-04
		 1.67887000E-05	-7.86777000E-04	-2.30186000E-04
		-7.03177000E-07	-4.49307000E-04	-2.43127000E-04
		-4.38736000E-05	-1.69405000E-04	-1.58896000E-04
		-4.40813000E-05	-1.69525000E-04	 1.59198000E-04
		-9.94807000E-07	-4.49379000E-04	 2.43665000E-04
		 1.63985000E-05	-7.86751000E-04	 2.30928000E-04
		 4.39730000E-05	-1.04388000E-03	 1.30387000E-04
		 6.39677000E-05	-1.15970000E-03	-5.10078000E-05
		 8.15363000E-05	-1.03800000E-03	-2.95963000E-04
		 9.07920000E-05	-6.30818000E-04	-5.86611000E-04
		 9.29856000E-05	 1.06077000E-04	-8.97422000E-04
		 8.78936000E-05	 1.16658000E-03	-1.20095000E-03
		 7.87096000E-05	 2.53946000E-03	-1.48337000E-03
		 6.87706000E-05	 4.16587000E-03	-1.72957000E-03
		 6.04337000E-05	 6.03206000E-03	-1.95127000E-03
		 5.56886000E-05	 8.08697000E-03	-2.14461000E-03
		 4.05321000E-05	 1.03581000E-02	-2.31868000E-03
		 3.48282000E-05	 1.27385000E-02	-2.43060000E-03
		 4.39999000E-05	-1.69610000E-04	 1.59200000E-04
		 8.25033000E-07	-4.49552000E-04	 2.43667000E-04
		-1.66444000E-05	-7.87008000E-04	 2.30930000E-04
		-4.42734000E-05	-1.04418000E-03	 1.30386000E-04
		-6.42882000E-05	-1.16004000E-03	-5.10101000E-05
		-8.18420000E-05	-1.03829000E-03	-2.95971000E-04
		-9.10280000E-05	-6.31068000E-04	-5.86607000E-04
		-9.30960000E-05	 1.06022000E-04	-8.97417000E-04
		-8.77881000E-05	 1.16664000E-03	-1.20096000E-03
		-7.83612000E-05	 2.53996000E-03	-1.48345000E-03
		-6.82483000E-05	 4.16628000E-03	-1.72952000E-03
		-5.98605000E-05	 6.03305000E-03	-1.95119000E-03
		-5.53172000E-05	 8.08697000E-03	-2.14461000E-03
		-4.05542000E-05	 1.03595000E-02	-2.31970000E-03
		-3.58614000E-05	 1.27366000E-02	-2.43116000E-03
		 0.00000000E+00	 0.00000000E+00	 0.00000000E+00
		 0.00000000E+00	 0.00000000E+00	 0.00000000E+00
		 0.00000000E+00	 0.00000000E+00	 0.00000000E+00
		 0.00000000E+00	 0.00000000E+00	 0.00000000E+00
		 0.00000000E+00	 0.00000000E+00	 0.00000000E+00
		 2.57639000E-07	 1.53043000E-02	 1.20473000E-03
		 0.00000000E+00	 1.52600000E-02	-2.93365000E-05
		-5.86187000E-08	 1.53976000E-02	-2.94887000E-05
		-5.42448000E-08	 1.52613000E-02	-2.94385000E-05
		-3.07594000E-07	 1.52987000E-02	-1.26371000E-03
		 4.54877000E-08	-1.87014000E-04	-1.58631000E-04
		-1.53119000E-07	-4.55072000E-04	-2.51825000E-04
		 9.05503000E-08	-4.54324000E-04	-2.52993000E-04
		 3.35197000E-07	-4.54984000E-04	-2.51810000E-04
		 1.32146000E-07	-7.76854000E-04	-2.34858000E-04
		 2.22736000E-05	-1.02805000E-03	-1.35271000E-04
		 1.58069000E-07	-1.02430000E-03	-1.35411000E-04
		-2.19527000E-05	-1.02790000E-03	-1.35266000E-04
		 1.70562000E-07	-1.12660000E-03	 4.83565000E-05
		 4.10269000E-05	-1.00848000E-03	 2.94043000E-04
		 1.52741000E-07	-9.99579000E-04	 2.94160000E-04
		-4.07135000E-05	-1.00833000E-03	 2.94034000E-04
		 1.17107000E-07	-5.83111000E-04	 5.86912000E-04
		 4.66262000E-05	 1.41089000E-04	 8.97813000E-04
		 3.71233000E-08	 1.50016000E-04	 8.97173000E-04
		-4.65280000E-05	 1.41116000E-04	 8.97784000E-04
		-3.27548000E-08	 1.21636000E-03	 1.20152000E-03
		 3.90706000E-05	 2.56846000E-03	 1.47968000E-03
		-1.68181000E-07	 2.57396000E-03	 1.47803000E-03
		-3.93864000E-05	 2.56828000E-03	 1.47960000E-03
		-2.63809000E-07	 4.21334000E-03	 1.72205000E-03
		 2.99568000E-05	 6.05640000E-03	 1.93212000E-03
		-3.98656000E-07	 6.05255000E-03	 1.92906000E-03
		-3.06152000E-05	 6.05600000E-03	 1.93213000E-03
		-5.56441000E-08	 8.13518000E-03	 2.12700000E-03
		 1.97188000E-05	 1.03607000E-02	 2.28298000E-03
		 1.24880000E-07	 1.03532000E-02	 2.27874000E-03
		-1.94996000E-05	 1.03612000E-02	 2.28314000E-03
		 3.13142000E-07	 1.27988000E-02	 2.39217000E-03
		-6.10303000E-08	-1.45001000E-04	 1.51383000E-07
		 4.62732000E-07	-4.50521000E-04	-1.04012000E-04
		-5.59957000E-08	-4.59045000E-04	 2.69466000E-07
		-5.73361000E-07	-4.50629000E-04	 1.04550000E-04
		-5.44828000E-08	-7.89096000E-04	 3.64064000E-07
		-2.19984000E-05	-1.06376000E-03	-5.21737000E-05
		-4.64283000E-08	-1.07148000E-03	 4.80373000E-07
		 2.19042000E-05	-1.06384000E-03	 5.31470000E-05
		-2.52412000E-08	-1.18870000E-03	 6.37036000E-07
		-4.07745000E-05	-1.06994000E-03	 1.56502000E-04
		-1.08911000E-08	-1.08149000E-03	 7.77436000E-07
		 4.07288000E-05	-1.07013000E-03	-1.54950000E-04
		 0.00000000E+00	-6.72215000E-04	 7.34788000E-07
		-4.64349000E-05	 7.07088000E-05	 4.48072000E-04
		-3.03926000E-09	 5.75662000E-05	 3.34757000E-07
		 4.64014000E-05	 6.97957000E-05	-4.47471000E-04
		-4.45649000E-09	 1.12722000E-03	-7.11408000E-07
		-3.95546000E-05	 2.50922000E-03	 7.32347000E-04
		-9.87090000E-09	 2.49425000E-03	-2.44952000E-06
		 3.94998000E-05	 2.50691000E-03	-7.37299000E-04
		-1.07554000E-08	 4.14014000E-03	-5.05248000E-06
		-2.96644000E-05	 6.00940000E-03	 9.59296000E-04
		-7.80475000E-08	 5.99295000E-03	-8.26290000E-06
		 2.96359000E-05	 6.00535000E-03	-9.76045000E-04
		-7.45902000E-08	 8.07242000E-03	-1.28192000E-05
		-2.23005000E-05	 1.03253000E-02	 1.12684000E-03
		-1.95607000E-07	 1.02939000E-02	-1.82201000E-05
		 2.23147000E-05	 1.03188000E-02	-1.16157000E-03
		 9.14287000E-08	 1.27740000E-02	-2.37159000E-05
		-4.30026000E-08	-1.87214000E-04	 1.58894000E-04
		-3.85327000E-07	-4.55243000E-04	 2.52337000E-04
		-8.43404000E-08	-4.54586000E-04	 2.53528000E-04
		 2.16142000E-07	-4.55330000E-04	 2.52355000E-04
		-1.21946000E-07	-7.77091000E-04	 2.35616000E-04
		 2.19105000E-05	-1.02809000E-03	 1.36302000E-04
		-1.48185000E-07	-1.02449000E-03	 1.36450000E-04
		-2.22088000E-05	-1.02824000E-03	 1.36307000E-04
		-1.59705000E-07	-1.12677000E-03	-4.70347000E-05
		 4.06845000E-05	-1.00869000E-03	-2.92514000E-04
		-1.50832000E-07	-9.99922000E-04	-2.92646000E-04
		-4.09889000E-05	-1.00883000E-03	-2.92524000E-04
		-1.15762000E-07	-5.84010000E-04	-5.85628000E-04
		 4.64910000E-05	 1.39308000E-04	-8.97441000E-04
		-5.14037000E-08	 1.48240000E-04	-8.96856000E-04
		-4.65965000E-05	 1.39285000E-04	-8.97466000E-04
		 5.16563000E-08	 1.21326000E-03	-1.20337000E-03
		 3.93583000E-05	 2.56370000E-03	-1.48496000E-03
		 1.58004000E-07	 2.56952000E-03	-1.48341000E-03
		-3.90296000E-05	 2.56393000E-03	-1.48503000E-03
		 2.87725000E-07	 4.20717000E-03	-1.73264000E-03
		 3.05402000E-05	 6.04825000E-03	-1.94930000E-03
		 3.01798000E-07	 6.04528000E-03	-1.94637000E-03
		-2.99468000E-05	 6.04883000E-03	-1.94936000E-03
		 1.90163000E-07	 8.12555000E-03	-2.15251000E-03
		 1.99239000E-05	 1.03502000E-02	-2.31833000E-03
		-1.51424000E-07	 1.03439000E-02	-2.31428000E-03
		-2.00755000E-05	 1.03506000E-02	-2.31855000E-03
		-3.33752000E-07	 1.27863000E-02	-2.43923000E-03
		 6.39900000E-08	-1.45089000E-04	 1.53474000E-07
		 4.91129000E-07	-4.50805000E-04	 1.04536000E-04
		 6.16978000E-08	-4.59223000E-04	 2.72005000E-07
		-3.67942000E-07	-4.50697000E-04	-1.03992000E-04
		 6.46284000E-08	-7.89349000E-04	 3.65752000E-07
		-2.20495000E-05	-1.06415000E-03	 5.31404000E-05
		 5.53899000E-08	-1.07180000E-03	 4.79441000E-07
		 2.21646000E-05	-1.06407000E-03	-5.21676000E-05
		 3.57511000E-08	-1.18902000E-03	 6.35355000E-07
		-4.08820000E-05	-1.07044000E-03	-1.54949000E-04
		 1.13881000E-08	-1.08181000E-03	 7.73207000E-07
		 4.09360000E-05	-1.07025000E-03	 1.56493000E-04
		 4.55872000E-09	-6.72435000E-04	 7.34054000E-07
		-4.64572000E-05	 6.96992000E-05	-4.47451000E-04
		-8.47338000E-09	 5.74297000E-05	 3.28362000E-07
		 4.64862000E-05	 7.06078000E-05	 4.48057000E-04
		 1.56250000E-08	 1.12734000E-03	-6.96452000E-07
		-3.93452000E-05	 2.50726000E-03	-7.37274000E-04
		-2.31042000E-09	 2.49445000E-03	-2.44256000E-06
		 3.94095000E-05	 2.50952000E-03	 7.32300000E-04
		 4.04563000E-08	 4.14075000E-03	-5.04163000E-06
		-2.93333000E-05	 6.00602000E-03	-9.76147000E-04
		 1.54443000E-09	 5.99327000E-03	-8.36212000E-06
		 2.93486000E-05	 6.00991000E-03	 9.59349000E-04
		 3.47570000E-08	 8.07312000E-03	-1.25427000E-05
		-2.23650000E-05	 1.03187000E-02	-1.16147000E-03
		 1.12036000E-07	 1.02924000E-02	-1.73722000E-05
		 2.23904000E-05	 1.03242000E-02	 1.12650000E-03
		 2.89967000E-08	 1.27741000E-02	-2.33400000E-05
		 1.21239000E-09	-1.61041000E-04	 1.32572000E-07
		 4.70682000E-08	-4.54548000E-04	-1.11787000E-04
		 3.31068000E-08	-4.64130000E-04	 2.68780000E-07
		 3.58615000E-09	-4.62441000E-04	 2.71701000E-07
		-2.66750000E-08	-4.64042000E-04	 2.67734000E-07
		-4.03936000E-08	-4.54666000E-04	 1.12327000E-04
		 4.64635000E-09	-7.80822000E-04	 3.71715000E-07
		 8.23726000E-08	-1.04317000E-03	-5.77171000E-05
		 3.08484000E-08	-1.05464000E-03	 4.91684000E-07
		 6.53459000E-09	-1.04950000E-03	 4.92811000E-07
		-1.97792000E-08	-1.05448000E-03	 4.92158000E-07
		-7.08349000E-08	-1.04326000E-03	 5.87185000E-05
		 3.99446000E-09	-1.15778000E-03	 6.42846000E-07
		 7.82426000E-08	-1.03001000E-03	 1.53314000E-04
		 7.04870000E-09	-1.05037000E-03	 7.62185000E-07
		 5.21324000E-09	-1.03964000E-03	 7.54270000E-07
		-1.44033000E-09	-1.05021000E-03	 7.64211000E-07
		-7.27627000E-08	-1.03021000E-03	-1.51798000E-04
		-1.87528000E-09	-6.28765000E-04	 6.90740000E-07
		 2.52283000E-08	 1.16608000E-04	 4.47970000E-04
		-3.68805000E-09	 9.42122000E-05	 2.56045000E-07
		 6.39026000E-09	 1.07659000E-04	 2.31698000E-07
		 3.72936000E-09	 9.42817000E-05	 2.57933000E-07
		-2.29231000E-08	 1.15702000E-04	-4.47541000E-04
		-1.48942000E-09	 1.16790000E-03	-7.97750000E-07
		-8.57115000E-08	 2.54900000E-03	 7.33236000E-04
		 1.32796000E-08	 2.52957000E-03	-2.55915000E-06
		 2.79683000E-08	 2.54310000E-03	-2.61939000E-06
		 8.72296000E-09	 2.52946000E-03	-2.55228000E-06
		 9.51141000E-08	 2.54680000E-03	-7.38458000E-04
		-1.29007000E-08	 4.16832000E-03	-5.07813000E-06
		-1.32660000E-07	 6.04240000E-03	 9.58430000E-04
		 1.07815000E-08	 6.02545000E-03	-8.45242000E-06
		 1.95307000E-08	 6.04947000E-03	-8.45884000E-06
		-2.55256000E-08	 6.02532000E-03	-8.44293000E-06
		 1.48263000E-07	 6.03876000E-03	-9.75616000E-04
		-3.19885000E-08	 8.08135000E-03	-1.24942000E-05
		-9.73146000E-08	 1.03642000E-02	 1.12233000E-03
		 1.27407000E-07	 1.03540000E-02	-1.75180000E-05
		 9.99996000E-08	 1.03806000E-02	-1.75956000E-05
		-1.16272000E-07	 1.03547000E-02	-1.78047000E-05
		-2.51003000E-08	 1.03597000E-02	-1.15771000E-03
		 1.35210000E-07	 1.27436000E-02	-2.30151000E-05
