# vtk DataFile Version 3.0

ASCII
DATASET UNSTRUCTURED_GRID

POINTS 261 double
	 0.00000000E+00	 0.00000000E+00	 0.00000000E+00
	 1.00000000E+00	 0.00000000E+00	 0.00000000E+00
	 1.00000000E+00	 1.50000000E+00	 0.00000000E+00
	 0.00000000E+00	 1.50000000E+00	 0.00000000E+00
	 0.00000000E+00	 0.00000000E+00	 8.00000000E+00
	 1.00000000E+00	 0.00000000E+00	 8.00000000E+00
	 1.00000000E+00	 1.50000000E+00	 8.00000000E+00
	 0.00000000E+00	 1.50000000E+00	 8.00000000E+00
	 2.50000000E-01	 0.00000000E+00	 0.00000000E+00
	 5.00000000E-01	 0.00000000E+00	 0.00000000E+00
	 7.50000000E-01	 0.00000000E+00	 0.00000000E+00
	 1.00000000E+00	 3.75000000E-01	 0.00000000E+00
	 1.00000000E+00	 7.50000000E-01	 0.00000000E+00
	 1.00000000E+00	 1.12500000E+00	 0.00000000E+00
	 7.50000000E-01	 1.50000000E+00	 0.00000000E+00
	 5.00000000E-01	 1.50000000E+00	 0.00000000E+00
	 2.50000000E-01	 1.50000000E+00	 0.00000000E+00
	 0.00000000E+00	 1.12500000E+00	 0.00000000E+00
	 0.00000000E+00	 7.50000000E-01	 0.00000000E+00
	 0.00000000E+00	 3.75000000E-01	 0.00000000E+00
	 2.50000000E-01	 0.00000000E+00	 8.00000000E+00
	 5.00000000E-01	 0.00000000E+00	 8.00000000E+00
	 7.50000000E-01	 0.00000000E+00	 8.00000000E+00
	 1.00000000E+00	 3.75000000E-01	 8.00000000E+00
	 1.00000000E+00	 7.50000000E-01	 8.00000000E+00
	 1.00000000E+00	 1.12500000E+00	 8.00000000E+00
	 7.50000000E-01	 1.50000000E+00	 8.00000000E+00
	 5.00000000E-01	 1.50000000E+00	 8.00000000E+00
	 2.50000000E-01	 1.50000000E+00	 8.00000000E+00
	 0.00000000E+00	 1.12500000E+00	 8.00000000E+00
	 0.00000000E+00	 7.50000000E-01	 8.00000000E+00
	 0.00000000E+00	 3.75000000E-01	 8.00000000E+00
	 1.00000000E+00	 0.00000000E+00	 5.00000000E-01
	 1.00000000E+00	 0.00000000E+00	 1.00000000E+00
	 1.00000000E+00	 0.00000000E+00	 1.50000000E+00
	 1.00000000E+00	 0.00000000E+00	 2.00000000E+00
	 1.00000000E+00	 0.00000000E+00	 2.50000000E+00
	 1.00000000E+00	 0.00000000E+00	 3.00000000E+00
	 1.00000000E+00	 0.00000000E+00	 3.50000000E+00
	 1.00000000E+00	 0.00000000E+00	 4.00000000E+00
	 1.00000000E+00	 0.00000000E+00	 4.50000000E+00
	 1.00000000E+00	 0.00000000E+00	 5.00000000E+00
	 1.00000000E+00	 0.00000000E+00	 5.50000000E+00
	 1.00000000E+00	 0.00000000E+00	 6.00000000E+00
	 1.00000000E+00	 0.00000000E+00	 6.50000000E+00
	 1.00000000E+00	 0.00000000E+00	 7.00000000E+00
	 1.00000000E+00	 0.00000000E+00	 7.50000000E+00
	 0.00000000E+00	 0.00000000E+00	 7.50000000E+00
	 0.00000000E+00	 0.00000000E+00	 7.00000000E+00
	 0.00000000E+00	 0.00000000E+00	 6.50000000E+00
	 0.00000000E+00	 0.00000000E+00	 6.00000000E+00
	 0.00000000E+00	 0.00000000E+00	 5.50000000E+00
	 0.00000000E+00	 0.00000000E+00	 5.00000000E+00
	 0.00000000E+00	 0.00000000E+00	 4.50000000E+00
	 0.00000000E+00	 0.00000000E+00	 4.00000000E+00
	 0.00000000E+00	 0.00000000E+00	 3.50000000E+00
	 0.00000000E+00	 0.00000000E+00	 3.00000000E+00
	 0.00000000E+00	 0.00000000E+00	 2.50000000E+00
	 0.00000000E+00	 0.00000000E+00	 2.00000000E+00
	 0.00000000E+00	 0.00000000E+00	 1.50000000E+00
	 0.00000000E+00	 0.00000000E+00	 1.00000000E+00
	 0.00000000E+00	 0.00000000E+00	 5.00000000E-01
	 1.00000000E+00	 1.50000000E+00	 5.00000000E-01
	 1.00000000E+00	 1.50000000E+00	 1.00000000E+00
	 1.00000000E+00	 1.50000000E+00	 1.50000000E+00
	 1.00000000E+00	 1.50000000E+00	 2.00000000E+00
	 1.00000000E+00	 1.50000000E+00	 2.50000000E+00
	 1.00000000E+00	 1.50000000E+00	 3.00000000E+00
	 1.00000000E+00	 1.50000000E+00	 3.50000000E+00
	 1.00000000E+00	 1.50000000E+00	 4.00000000E+00
	 1.00000000E+00	 1.50000000E+00	 4.50000000E+00
	 1.00000000E+00	 1.50000000E+00	 5.00000000E+00
	 1.00000000E+00	 1.50000000E+00	 5.50000000E+00
	 1.00000000E+00	 1.50000000E+00	 6.00000000E+00
	 1.00000000E+00	 1.50000000E+00	 6.50000000E+00
	 1.00000000E+00	 1.50000000E+00	 7.00000000E+00
	 1.00000000E+00	 1.50000000E+00	 7.50000000E+00
	 0.00000000E+00	 1.50000000E+00	 5.00000000E-01
	 0.00000000E+00	 1.50000000E+00	 1.00000000E+00
	 0.00000000E+00	 1.50000000E+00	 1.50000000E+00
	 0.00000000E+00	 1.50000000E+00	 2.00000000E+00
	 0.00000000E+00	 1.50000000E+00	 2.50000000E+00
	 0.00000000E+00	 1.50000000E+00	 3.00000000E+00
	 0.00000000E+00	 1.50000000E+00	 3.50000000E+00
	 0.00000000E+00	 1.50000000E+00	 4.00000000E+00
	 0.00000000E+00	 1.50000000E+00	 4.50000000E+00
	 0.00000000E+00	 1.50000000E+00	 5.00000000E+00
	 0.00000000E+00	 1.50000000E+00	 5.50000000E+00
	 0.00000000E+00	 1.50000000E+00	 6.00000000E+00
	 0.00000000E+00	 1.50000000E+00	 6.50000000E+00
	 0.00000000E+00	 1.50000000E+00	 7.00000000E+00
	 0.00000000E+00	 1.50000000E+00	 7.50000000E+00
	 5.00000000E-01	 3.75000000E-01	 0.00000000E+00
	 2.50000000E-01	 7.50000000E-01	 0.00000000E+00
	 5.00000000E-01	 7.50000000E-01	 0.00000000E+00
	 7.50000000E-01	 7.50000000E-01	 0.00000000E+00
	 5.00000000E-01	 1.12500000E+00	 0.00000000E+00
	 5.00000000E-01	 3.75000000E-01	 8.00000000E+00
	 2.50000000E-01	 7.50000000E-01	 8.00000000E+00
	 5.00000000E-01	 7.50000000E-01	 8.00000000E+00
	 7.50000000E-01	 7.50000000E-01	 8.00000000E+00
	 5.00000000E-01	 1.12500000E+00	 8.00000000E+00
	 5.00000000E-01	 0.00000000E+00	 5.00000000E-01
	 2.50000000E-01	 0.00000000E+00	 1.00000000E+00
	 5.00000000E-01	 0.00000000E+00	 1.00000000E+00
	 7.50000000E-01	 0.00000000E+00	 1.00000000E+00
	 5.00000000E-01	 0.00000000E+00	 1.50000000E+00
	 2.50000000E-01	 0.00000000E+00	 2.00000000E+00
	 5.00000000E-01	 0.00000000E+00	 2.00000000E+00
	 7.50000000E-01	 0.00000000E+00	 2.00000000E+00
	 5.00000000E-01	 0.00000000E+00	 2.50000000E+00
	 2.50000000E-01	 0.00000000E+00	 3.00000000E+00
	 5.00000000E-01	 0.00000000E+00	 3.00000000E+00
	 7.50000000E-01	 0.00000000E+00	 3.00000000E+00
	 5.00000000E-01	 0.00000000E+00	 3.50000000E+00
	 2.50000000E-01	 0.00000000E+00	 4.00000000E+00
	 5.00000000E-01	 0.00000000E+00	 4.00000000E+00
	 7.50000000E-01	 0.00000000E+00	 4.00000000E+00
	 5.00000000E-01	 0.00000000E+00	 4.50000000E+00
	 2.50000000E-01	 0.00000000E+00	 5.00000000E+00
	 5.00000000E-01	 0.00000000E+00	 5.00000000E+00
	 7.50000000E-01	 0.00000000E+00	 5.00000000E+00
	 5.00000000E-01	 0.00000000E+00	 5.50000000E+00
	 2.50000000E-01	 0.00000000E+00	 6.00000000E+00
	 5.00000000E-01	 0.00000000E+00	 6.00000000E+00
	 7.50000000E-01	 0.00000000E+00	 6.00000000E+00
	 5.00000000E-01	 0.00000000E+00	 6.50000000E+00
	 2.50000000E-01	 0.00000000E+00	 7.00000000E+00
	 5.00000000E-01	 0.00000000E+00	 7.00000000E+00
	 7.50000000E-01	 0.00000000E+00	 7.00000000E+00
	 5.00000000E-01	 0.00000000E+00	 7.50000000E+00
	 1.00000000E+00	 7.50000000E-01	 5.00000000E-01
	 1.00000000E+00	 3.75000000E-01	 1.00000000E+00
	 1.00000000E+00	 7.50000000E-01	 1.00000000E+00
	 1.00000000E+00	 1.12500000E+00	 1.00000000E+00
	 1.00000000E+00	 7.50000000E-01	 1.50000000E+00
	 1.00000000E+00	 3.75000000E-01	 2.00000000E+00
	 1.00000000E+00	 7.50000000E-01	 2.00000000E+00
	 1.00000000E+00	 1.12500000E+00	 2.00000000E+00
	 1.00000000E+00	 7.50000000E-01	 2.50000000E+00
	 1.00000000E+00	 3.75000000E-01	 3.00000000E+00
	 1.00000000E+00	 7.50000000E-01	 3.00000000E+00
	 1.00000000E+00	 1.12500000E+00	 3.00000000E+00
	 1.00000000E+00	 7.50000000E-01	 3.50000000E+00
	 1.00000000E+00	 3.75000000E-01	 4.00000000E+00
	 1.00000000E+00	 7.50000000E-01	 4.00000000E+00
	 1.00000000E+00	 1.12500000E+00	 4.00000000E+00
	 1.00000000E+00	 7.50000000E-01	 4.50000000E+00
	 1.00000000E+00	 3.75000000E-01	 5.00000000E+00
	 1.00000000E+00	 7.50000000E-01	 5.00000000E+00
	 1.00000000E+00	 1.12500000E+00	 5.00000000E+00
	 1.00000000E+00	 7.50000000E-01	 5.50000000E+00
	 1.00000000E+00	 3.75000000E-01	 6.00000000E+00
	 1.00000000E+00	 7.50000000E-01	 6.00000000E+00
	 1.00000000E+00	 1.12500000E+00	 6.00000000E+00
	 1.00000000E+00	 7.50000000E-01	 6.50000000E+00
	 1.00000000E+00	 3.75000000E-01	 7.00000000E+00
	 1.00000000E+00	 7.50000000E-01	 7.00000000E+00
	 1.00000000E+00	 1.12500000E+00	 7.00000000E+00
	 1.00000000E+00	 7.50000000E-01	 7.50000000E+00
	 5.00000000E-01	 1.50000000E+00	 5.00000000E-01
	 7.50000000E-01	 1.50000000E+00	 1.00000000E+00
	 5.00000000E-01	 1.50000000E+00	 1.00000000E+00
	 2.50000000E-01	 1.50000000E+00	 1.00000000E+00
	 5.00000000E-01	 1.50000000E+00	 1.50000000E+00
	 7.50000000E-01	 1.50000000E+00	 2.00000000E+00
	 5.00000000E-01	 1.50000000E+00	 2.00000000E+00
	 2.50000000E-01	 1.50000000E+00	 2.00000000E+00
	 5.00000000E-01	 1.50000000E+00	 2.50000000E+00
	 7.50000000E-01	 1.50000000E+00	 3.00000000E+00
	 5.00000000E-01	 1.50000000E+00	 3.00000000E+00
	 2.50000000E-01	 1.50000000E+00	 3.00000000E+00
	 5.00000000E-01	 1.50000000E+00	 3.50000000E+00
	 7.50000000E-01	 1.50000000E+00	 4.00000000E+00
	 5.00000000E-01	 1.50000000E+00	 4.00000000E+00
	 2.50000000E-01	 1.50000000E+00	 4.00000000E+00
	 5.00000000E-01	 1.50000000E+00	 4.50000000E+00
	 7.50000000E-01	 1.50000000E+00	 5.00000000E+00
	 5.00000000E-01	 1.50000000E+00	 5.00000000E+00
	 2.50000000E-01	 1.50000000E+00	 5.00000000E+00
	 5.00000000E-01	 1.50000000E+00	 5.50000000E+00
	 7.50000000E-01	 1.50000000E+00	 6.00000000E+00
	 5.00000000E-01	 1.50000000E+00	 6.00000000E+00
	 2.50000000E-01	 1.50000000E+00	 6.00000000E+00
	 5.00000000E-01	 1.50000000E+00	 6.50000000E+00
	 7.50000000E-01	 1.50000000E+00	 7.00000000E+00
	 5.00000000E-01	 1.50000000E+00	 7.00000000E+00
	 2.50000000E-01	 1.50000000E+00	 7.00000000E+00
	 5.00000000E-01	 1.50000000E+00	 7.50000000E+00
	 0.00000000E+00	 7.50000000E-01	 5.00000000E-01
	 0.00000000E+00	 1.12500000E+00	 1.00000000E+00
	 0.00000000E+00	 7.50000000E-01	 1.00000000E+00
	 0.00000000E+00	 3.75000000E-01	 1.00000000E+00
	 0.00000000E+00	 7.50000000E-01	 1.50000000E+00
	 0.00000000E+00	 1.12500000E+00	 2.00000000E+00
	 0.00000000E+00	 7.50000000E-01	 2.00000000E+00
	 0.00000000E+00	 3.75000000E-01	 2.00000000E+00
	 0.00000000E+00	 7.50000000E-01	 2.50000000E+00
	 0.00000000E+00	 1.12500000E+00	 3.00000000E+00
	 0.00000000E+00	 7.50000000E-01	 3.00000000E+00
	 0.00000000E+00	 3.75000000E-01	 3.00000000E+00
	 0.00000000E+00	 7.50000000E-01	 3.50000000E+00
	 0.00000000E+00	 1.12500000E+00	 4.00000000E+00
	 0.00000000E+00	 7.50000000E-01	 4.00000000E+00
	 0.00000000E+00	 3.75000000E-01	 4.00000000E+00
	 0.00000000E+00	 7.50000000E-01	 4.50000000E+00
	 0.00000000E+00	 1.12500000E+00	 5.00000000E+00
	 0.00000000E+00	 7.50000000E-01	 5.00000000E+00
	 0.00000000E+00	 3.75000000E-01	 5.00000000E+00
	 0.00000000E+00	 7.50000000E-01	 5.50000000E+00
	 0.00000000E+00	 1.12500000E+00	 6.00000000E+00
	 0.00000000E+00	 7.50000000E-01	 6.00000000E+00
	 0.00000000E+00	 3.75000000E-01	 6.00000000E+00
	 0.00000000E+00	 7.50000000E-01	 6.50000000E+00
	 0.00000000E+00	 1.12500000E+00	 7.00000000E+00
	 0.00000000E+00	 7.50000000E-01	 7.00000000E+00
	 0.00000000E+00	 3.75000000E-01	 7.00000000E+00
	 0.00000000E+00	 7.50000000E-01	 7.50000000E+00
	 5.00000000E-01	 7.50000000E-01	 5.00000000E-01
	 5.00000000E-01	 3.75000000E-01	 1.00000000E+00
	 2.50000000E-01	 7.50000000E-01	 1.00000000E+00
	 5.00000000E-01	 7.50000000E-01	 1.00000000E+00
	 7.50000000E-01	 7.50000000E-01	 1.00000000E+00
	 5.00000000E-01	 1.12500000E+00	 1.00000000E+00
	 5.00000000E-01	 7.50000000E-01	 1.50000000E+00
	 5.00000000E-01	 3.75000000E-01	 2.00000000E+00
	 2.50000000E-01	 7.50000000E-01	 2.00000000E+00
	 5.00000000E-01	 7.50000000E-01	 2.00000000E+00
	 7.50000000E-01	 7.50000000E-01	 2.00000000E+00
	 5.00000000E-01	 1.12500000E+00	 2.00000000E+00
	 5.00000000E-01	 7.50000000E-01	 2.50000000E+00
	 5.00000000E-01	 3.75000000E-01	 3.00000000E+00
	 2.50000000E-01	 7.50000000E-01	 3.00000000E+00
	 5.00000000E-01	 7.50000000E-01	 3.00000000E+00
	 7.50000000E-01	 7.50000000E-01	 3.00000000E+00
	 5.00000000E-01	 1.12500000E+00	 3.00000000E+00
	 5.00000000E-01	 7.50000000E-01	 3.50000000E+00
	 5.00000000E-01	 3.75000000E-01	 4.00000000E+00
	 2.50000000E-01	 7.50000000E-01	 4.00000000E+00
	 5.00000000E-01	 7.50000000E-01	 4.00000000E+00
	 7.50000000E-01	 7.50000000E-01	 4.00000000E+00
	 5.00000000E-01	 1.12500000E+00	 4.00000000E+00
	 5.00000000E-01	 7.50000000E-01	 4.50000000E+00
	 5.00000000E-01	 3.75000000E-01	 5.00000000E+00
	 2.50000000E-01	 7.50000000E-01	 5.00000000E+00
	 5.00000000E-01	 7.50000000E-01	 5.00000000E+00
	 7.50000000E-01	 7.50000000E-01	 5.00000000E+00
	 5.00000000E-01	 1.12500000E+00	 5.00000000E+00
	 5.00000000E-01	 7.50000000E-01	 5.50000000E+00
	 5.00000000E-01	 3.75000000E-01	 6.00000000E+00
	 2.50000000E-01	 7.50000000E-01	 6.00000000E+00
	 5.00000000E-01	 7.50000000E-01	 6.00000000E+00
	 7.50000000E-01	 7.50000000E-01	 6.00000000E+00
	 5.00000000E-01	 1.12500000E+00	 6.00000000E+00
	 5.00000000E-01	 7.50000000E-01	 6.50000000E+00
	 5.00000000E-01	 3.75000000E-01	 7.00000000E+00
	 2.50000000E-01	 7.50000000E-01	 7.00000000E+00
	 5.00000000E-01	 7.50000000E-01	 7.00000000E+00
	 7.50000000E-01	 7.50000000E-01	 7.00000000E+00
	 5.00000000E-01	 1.12500000E+00	 7.00000000E+00
	 5.00000000E-01	 7.50000000E-01	 7.50000000E+00

CELLS 32 672
	20 0 9 94 18 60 104 221 191 8 92 93 19 103 219 220 192 61 102 218 189 
	20 9 1 12 94 104 33 133 221 10 11 95 92 105 132 222 219 102 32 131 218 
	20 18 94 15 3 191 221 162 78 93 96 16 17 220 223 163 190 189 218 160 77 
	20 94 12 2 15 221 133 63 162 95 13 14 96 222 134 161 223 218 131 62 160 
	20 60 104 221 191 58 108 227 195 103 219 220 192 107 225 226 196 59 106 224 193 
	20 104 33 133 221 108 35 137 227 105 132 222 219 109 136 228 225 106 34 135 224 
	20 191 221 162 78 195 227 166 80 220 223 163 190 226 229 167 194 193 224 164 79 
	20 221 133 63 162 227 137 65 166 222 134 161 223 228 138 165 229 224 135 64 164 
	20 58 108 227 195 56 112 233 199 107 225 226 196 111 231 232 200 57 110 230 197 
	20 108 35 137 227 112 37 141 233 109 136 228 225 113 140 234 231 110 36 139 230 
	20 195 227 166 80 199 233 170 82 226 229 167 194 232 235 171 198 197 230 168 81 
	20 227 137 65 166 233 141 67 170 228 138 165 229 234 142 169 235 230 139 66 168 
	20 56 112 233 199 54 116 239 203 111 231 232 200 115 237 238 204 55 114 236 201 
	20 112 37 141 233 116 39 145 239 113 140 234 231 117 144 240 237 114 38 143 236 
	20 199 233 170 82 203 239 174 84 232 235 171 198 238 241 175 202 201 236 172 83 
	20 233 141 67 170 239 145 69 174 234 142 169 235 240 146 173 241 236 143 68 172 
	20 54 116 239 203 52 120 245 207 115 237 238 204 119 243 244 208 53 118 242 205 
	20 116 39 145 239 120 41 149 245 117 144 240 237 121 148 246 243 118 40 147 242 
	20 203 239 174 84 207 245 178 86 238 241 175 202 244 247 179 206 205 242 176 85 
	20 239 145 69 174 245 149 71 178 240 146 173 241 246 150 177 247 242 147 70 176 
	20 52 120 245 207 50 124 251 211 119 243 244 208 123 249 250 212 51 122 248 209 
	20 120 41 149 245 124 43 153 251 121 148 246 243 125 152 252 249 122 42 151 248 
	20 207 245 178 86 211 251 182 88 244 247 179 206 250 253 183 210 209 248 180 87 
	20 245 149 71 178 251 153 73 182 246 150 177 247 252 154 181 253 248 151 72 180 
	20 50 124 251 211 48 128 257 215 123 249 250 212 127 255 256 216 49 126 254 213 
	20 124 43 153 251 128 45 157 257 125 152 252 249 129 156 258 255 126 44 155 254 
	20 211 251 182 88 215 257 186 90 250 253 183 210 256 259 187 214 213 254 184 89 
	20 251 153 73 182 257 157 75 186 252 154 181 253 258 158 185 259 254 155 74 184 
	20 48 128 257 215 4 21 99 30 127 255 256 216 20 97 98 31 47 130 260 217 
	20 128 45 157 257 21 5 24 99 129 156 258 255 22 23 100 97 130 46 159 260 
	20 215 257 186 90 30 99 27 7 256 259 187 214 98 101 28 29 217 260 188 91 
	20 257 157 75 186 99 24 6 27 258 158 185 259 100 25 26 101 260 159 76 188 

CELL_TYPES 32
	25
	25
	25
	25
	25
	25
	25
	25
	25
	25
	25
	25
	25
	25
	25
	25
	25
	25
	25
	25
	25
	25
	25
	25
	25
	25
	25
	25
	25
	25
	25
	25

POINT_DATA 261
FIELD U 1
	U 3 261 double
		 0.00000000E+00	 0.00000000E+00	 0.00000000E+00
		 0.00000000E+00	 0.00000000E+00	 0.00000000E+00
		 0.00000000E+00	 0.00000000E+00	 0.00000000E+00
		 0.00000000E+00	 0.00000000E+00	 0.00000000E+00
		-2.62234000E+00	 5.92516000E+03	 2.50696000E+03
		 2.62234000E+00	 5.92516000E+03	 2.50696000E+03
		-2.62234000E+00	 5.92516000E+03	-2.50696000E+03
		 2.62234000E+00	 5.92516000E+03	-2.50696000E+03
		 0.00000000E+00	 0.00000000E+00	 0.00000000E+00
		 0.00000000E+00	 0.00000000E+00	 0.00000000E+00
		 0.00000000E+00	 0.00000000E+00	 0.00000000E+00
		 0.00000000E+00	 0.00000000E+00	 0.00000000E+00
		 0.00000000E+00	 0.00000000E+00	 0.00000000E+00
		 0.00000000E+00	 0.00000000E+00	 0.00000000E+00
		 0.00000000E+00	 0.00000000E+00	 0.00000000E+00
		 0.00000000E+00	 0.00000000E+00	 0.00000000E+00
		 0.00000000E+00	 0.00000000E+00	 0.00000000E+00
		 0.00000000E+00	 0.00000000E+00	 0.00000000E+00
		 0.00000000E+00	 0.00000000E+00	 0.00000000E+00
		 0.00000000E+00	 0.00000000E+00	 0.00000000E+00
		-1.23591000E+00	 5.92508000E+03	 2.51017000E+03
		 0.00000000E+00	 5.92574000E+03	 2.51144000E+03
		 1.23591000E+00	 5.92508000E+03	 2.51017000E+03
		 1.59283000E+00	 5.92077000E+03	 1.24843000E+03
		 0.00000000E+00	 5.91392000E+03	 0.00000000E+00
		-1.59283000E+00	 5.92077000E+03	-1.24843000E+03
		-1.23591000E+00	 5.92508000E+03	-2.51017000E+03
		 0.00000000E+00	 5.92574000E+03	-2.51144000E+03
		 1.23591000E+00	 5.92508000E+03	-2.51017000E+03
		 1.59283000E+00	 5.92077000E+03	-1.24843000E+03
		 0.00000000E+00	 5.91392000E+03	 0.00000000E+00
		-1.59283000E+00	 5.92077000E+03	 1.24843000E+03
		 1.57391000E+02	-4.59228000E+02	-5.06415000E+02
		 4.54071000E+01	-1.14698000E+03	-8.66402000E+02
		 1.65812000E+01	-2.03846000E+03	-1.01033000E+03
		-3.80536000E+01	-2.89838000E+03	-9.76200000E+02
		-7.58710000E+01	-3.67753000E+03	-7.86704000E+02
		-1.11072000E+02	-4.23913000E+03	-4.72806000E+02
		-1.32883000E+02	-4.51717000E+03	-6.32700000E+01
		-1.43768000E+02	-4.45154000E+03	 4.01500000E+02
		-1.42493000E+02	-4.02364000E+03	 8.81675000E+02
		-1.30865000E+02	-3.23782000E+03	 1.34171000E+03
		-1.10427000E+02	-2.12921000E+03	 1.74434000E+03
		-8.41143000E+01	-7.53357000E+02	 2.07196000E+03
		-5.54323000E+01	 8.16301000E+02	 2.30168000E+03
		-2.84996000E+01	 2.50119000E+03	 2.44276000E+03
		-9.09823000E+00	 4.22295000E+03	 2.49954000E+03
		 9.09823000E+00	 4.22295000E+03	 2.49954000E+03
		 2.84996000E+01	 2.50119000E+03	 2.44276000E+03
		 5.54323000E+01	 8.16301000E+02	 2.30168000E+03
		 8.41143000E+01	-7.53357000E+02	 2.07196000E+03
		 1.10427000E+02	-2.12921000E+03	 1.74434000E+03
		 1.30865000E+02	-3.23782000E+03	 1.34171000E+03
		 1.42493000E+02	-4.02364000E+03	 8.81675000E+02
		 1.43768000E+02	-4.45154000E+03	 4.01500000E+02
		 1.32883000E+02	-4.51717000E+03	-6.32700000E+01
		 1.11072000E+02	-4.23913000E+03	-4.72806000E+02
		 7.58710000E+01	-3.67753000E+03	-7.86704000E+02
		 3.80536000E+01	-2.89838000E+03	-9.76200000E+02
		-1.65812000E+01	-2.03846000E+03	-1.01033000E+03
		-4.54071000E+01	-1.14698000E+03	-8.66402000E+02
		-1.57391000E+02	-4.59228000E+02	-5.06415000E+02
		-1.57391000E+02	-4.59228000E+02	 5.06415000E+02
		-4.54071000E+01	-1.14698000E+03	 8.66402000E+02
		-1.65812000E+01	-2.03846000E+03	 1.01033000E+03
		 3.80536000E+01	-2.89838000E+03	 9.76200000E+02
		 7.58710000E+01	-3.67753000E+03	 7.86704000E+02
		 1.11072000E+02	-4.23913000E+03	 4.72806000E+02
		 1.32883000E+02	-4.51717000E+03	 6.32700000E+01
		 1.43768000E+02	-4.45154000E+03	-4.01500000E+02
		 1.42493000E+02	-4.02364000E+03	-8.81675000E+02
		 1.30865000E+02	-3.23782000E+03	-1.34171000E+03
		 1.10427000E+02	-2.12921000E+03	-1.74434000E+03
		 8.41143000E+01	-7.53357000E+02	-2.07196000E+03
		 5.54323000E+01	 8.16301000E+02	-2.30168000E+03
		 2.84996000E+01	 2.50119000E+03	-2.44276000E+03
		 9.09823000E+00	 4.22295000E+03	-2.49954000E+03
		 1.57391000E+02	-4.59228000E+02	 5.06415000E+02
		 4.54071000E+01	-1.14698000E+03	 8.66402000E+02
		 1.65812000E+01	-2.03846000E+03	 1.01033000E+03
		-3.80536000E+01	-2.89838000E+03	 9.76200000E+02
		-7.58710000E+01	-3.67753000E+03	 7.86704000E+02
		-1.11072000E+02	-4.23913000E+03	 4.72806000E+02
		-1.32883000E+02	-4.51717000E+03	 6.32700000E+01
		-1.43768000E+02	-4.45154000E+03	-4.01500000E+02
		-1.42493000E+02	-4.02364000E+03	-8.81675000E+02
		-1.30865000E+02	-3.23782000E+03	-1.34171000E+03
		-1.10427000E+02	-2.12921000E+03	-1.74434000E+03
		-8.41143000E+01	-7.53357000E+02	-2.07196000E+03
		-5.54323000E+01	 8.16301000E+02	-2.30168000E+03
		-2.84996000E+01	 2.50119000E+03	-2.44276000E+03
		-9.09823000E+00	 4.22295000E+03	-2.49954000E+03
		 0.00000000E+00	 0.00000000E+00	 0.00000000E+00
		 0.00000000E+00	 0.00000000E+00	 0.00000000E+00
		 0.00000000E+00	 0.00000000E+00	 0.00000000E+00
		 0.00000000E+00	 0.00000000E+00	 0.00000000E+00
		 0.00000000E+00	 0.00000000E+00	 0.00000000E+00
		 0.00000000E+00	 5.92180000E+03	 1.25137000E+03
		 0.00000000E+00	 5.91405000E+03	 0.00000000E+00
		 0.00000000E+00	 5.91529000E+03	 0.00000000E+00
		 0.00000000E+00	 5.91405000E+03	 0.00000000E+00
		 0.00000000E+00	 5.92180000E+03	-1.25137000E+03
		 0.00000000E+00	-5.04027000E+02	-4.99660000E+02
		-2.27660000E+01	-1.17058000E+03	-8.90880000E+02
		 0.00000000E+00	-1.17315000E+03	-8.99269000E+02
		 2.27660000E+01	-1.17058000E+03	-8.90880000E+02
		 0.00000000E+00	-2.04085000E+03	-1.02443000E+03
		 1.92916000E+01	-2.88906000E+03	-9.89794000E+02
		 0.00000000E+00	-2.88914000E+03	-9.93004000E+02
		-1.92916000E+01	-2.88906000E+03	-9.89794000E+02
		 0.00000000E+00	-3.65048000E+03	-7.98352000E+02
		 5.55837000E+01	-4.21182000E+03	-4.81160000E+02
		 0.00000000E+00	-4.20316000E+03	-4.81891000E+02
		-5.55837000E+01	-4.21182000E+03	-4.81160000E+02
		 0.00000000E+00	-4.47190000E+03	-6.84140000E+01
		 7.19992000E+01	-4.41484000E+03	 4.00218000E+02
		 0.00000000E+00	-4.40349000E+03	 3.99902000E+02
		-7.19992000E+01	-4.41484000E+03	 4.00218000E+02
		 0.00000000E+00	-3.97543000E+03	 8.83649000E+02
		 6.55022000E+01	-3.20456000E+03	 1.34625000E+03
		 0.00000000E+00	-3.19392000E+03	 1.34658000E+03
		-6.55022000E+01	-3.20456000E+03	 1.34625000E+03
		 0.00000000E+00	-2.09203000E+03	 1.75158000E+03
		 4.20949000E+01	-7.32153000E+02	 2.07980000E+03
		 0.00000000E+00	-7.25212000E+02	 2.08027000E+03
		-4.20949000E+01	-7.32153000E+02	 2.07980000E+03
		 0.00000000E+00	 8.34611000E+02	 2.31034000E+03
		 1.42229000E+01	 2.50790000E+03	 2.44944000E+03
		 0.00000000E+00	 2.51054000E+03	 2.44994000E+03
		-1.42229000E+01	 2.50790000E+03	 2.44944000E+03
		 0.00000000E+00	 4.22566000E+03	 2.50468000E+03
		 0.00000000E+00	-3.60125000E+02	 0.00000000E+00
		 2.18184000E+01	-1.11702000E+03	-3.57446000E+02
		 0.00000000E+00	-1.13474000E+03	 0.00000000E+00
		-2.18184000E+01	-1.11702000E+03	 3.57446000E+02
		 0.00000000E+00	-2.00699000E+03	 0.00000000E+00
		-1.78927000E+01	-2.92455000E+03	-4.37739000E+02
		 0.00000000E+00	-2.93074000E+03	 0.00000000E+00
		 1.78927000E+01	-2.92455000E+03	 4.37739000E+02
		 0.00000000E+00	-3.72599000E+03	 0.00000000E+00
		-5.49838000E+01	-4.29909000E+03	-2.04787000E+02
		 0.00000000E+00	-4.31770000E+03	 0.00000000E+00
		 5.49838000E+01	-4.29909000E+03	 2.04787000E+02
		 0.00000000E+00	-4.60683000E+03	 0.00000000E+00
		-7.10743000E+01	-4.52998000E+03	 2.06621000E+02
		 0.00000000E+00	-4.55230000E+03	 0.00000000E+00
		 7.10743000E+01	-4.52998000E+03	-2.06621000E+02
		 0.00000000E+00	-4.12212000E+03	 0.00000000E+00
		-6.48728000E+01	-3.30932000E+03	 6.53937000E+02
		 0.00000000E+00	-3.33055000E+03	 0.00000000E+00
		 6.48728000E+01	-3.30932000E+03	-6.53937000E+02
		 0.00000000E+00	-2.20736000E+03	 0.00000000E+00
		-4.19011000E+01	-8.00434000E+02	 1.00666000E+03
		 0.00000000E+00	-8.15613000E+02	 0.00000000E+00
		 4.19011000E+01	-8.00434000E+02	-1.00666000E+03
		 0.00000000E+00	 7.72933000E+02	 0.00000000E+00
		-1.48103000E+01	 2.48282000E+03	 1.19759000E+03
		 0.00000000E+00	 2.47413000E+03	 0.00000000E+00
		 1.48103000E+01	 2.48282000E+03	-1.19759000E+03
		 0.00000000E+00	 4.21131000E+03	 0.00000000E+00
		 0.00000000E+00	-5.04027000E+02	 4.99660000E+02
		-2.27660000E+01	-1.17058000E+03	 8.90880000E+02
		 0.00000000E+00	-1.17315000E+03	 8.99269000E+02
		 2.27660000E+01	-1.17058000E+03	 8.90880000E+02
		 0.00000000E+00	-2.04085000E+03	 1.02443000E+03
		 1.92916000E+01	-2.88906000E+03	 9.89794000E+02
		 0.00000000E+00	-2.88914000E+03	 9.93004000E+02
		-1.92916000E+01	-2.88906000E+03	 9.89794000E+02
		 0.00000000E+00	-3.65048000E+03	 7.98352000E+02
		 5.55837000E+01	-4.21182000E+03	 4.81160000E+02
		 0.00000000E+00	-4.20316000E+03	 4.81891000E+02
		-5.55837000E+01	-4.21182000E+03	 4.81160000E+02
		 0.00000000E+00	-4.47190000E+03	 6.84140000E+01
		 7.19992000E+01	-4.41484000E+03	-4.00218000E+02
		 0.00000000E+00	-4.40349000E+03	-3.99902000E+02
		-7.19992000E+01	-4.41484000E+03	-4.00218000E+02
		 0.00000000E+00	-3.97543000E+03	-8.83649000E+02
		 6.55022000E+01	-3.20456000E+03	-1.34625000E+03
		 0.00000000E+00	-3.19392000E+03	-1.34658000E+03
		-6.55022000E+01	-3.20456000E+03	-1.34625000E+03
		 0.00000000E+00	-2.09203000E+03	-1.75158000E+03
		 4.20949000E+01	-7.32153000E+02	-2.07980000E+03
		 0.00000000E+00	-7.25212000E+02	-2.08027000E+03
		-4.20949000E+01	-7.32153000E+02	-2.07980000E+03
		 0.00000000E+00	 8.34611000E+02	-2.31034000E+03
		 1.42229000E+01	 2.50790000E+03	-2.44944000E+03
		 0.00000000E+00	 2.51054000E+03	-2.44994000E+03
		-1.42229000E+01	 2.50790000E+03	-2.44944000E+03
		 0.00000000E+00	 4.22566000E+03	-2.50468000E+03
		 0.00000000E+00	-3.60125000E+02	 0.00000000E+00
		 2.18184000E+01	-1.11702000E+03	 3.57446000E+02
		 0.00000000E+00	-1.13474000E+03	 0.00000000E+00
		-2.18184000E+01	-1.11702000E+03	-3.57446000E+02
		 0.00000000E+00	-2.00699000E+03	 0.00000000E+00
		-1.78927000E+01	-2.92455000E+03	 4.37739000E+02
		 0.00000000E+00	-2.93074000E+03	 0.00000000E+00
		 1.78927000E+01	-2.92455000E+03	-4.37739000E+02
		 0.00000000E+00	-3.72599000E+03	 0.00000000E+00
		-5.49838000E+01	-4.29909000E+03	 2.04787000E+02
		 0.00000000E+00	-4.31770000E+03	 0.00000000E+00
		 5.49838000E+01	-4.29909000E+03	-2.04787000E+02
		 0.00000000E+00	-4.60683000E+03	 0.00000000E+00
		-7.10743000E+01	-4.52998000E+03	-2.06621000E+02
		 0.00000000E+00	-4.55230000E+03	 0.00000000E+00
		 7.10743000E+01	-4.52998000E+03	 2.06621000E+02
		 0.00000000E+00	-4.12212000E+03	 0.00000000E+00
		-6.48728000E+01	-3.30932000E+03	-6.53937000E+02
		 0.00000000E+00	-3.33055000E+03	 0.00000000E+00
		 6.48728000E+01	-3.30932000E+03	 6.53937000E+02
		 0.00000000E+00	-2.20736000E+03	 0.00000000E+00
		-4.19011000E+01	-8.00434000E+02	-1.00666000E+03
		 0.00000000E+00	-8.15613000E+02	 0.00000000E+00
		 4.19011000E+01	-8.00434000E+02	 1.00666000E+03
		 0.00000000E+00	 7.72933000E+02	 0.00000000E+00
		-1.48103000E+01	 2.48282000E+03	-1.19759000E+03
		 0.00000000E+00	 2.47413000E+03	 0.00000000E+00
		 1.48103000E+01	 2.48282000E+03	 1.19759000E+03
		 0.00000000E+00	 4.21131000E+03	 0.00000000E+00
		 0.00000000E+00	-3.99495000E+02	 0.00000000E+00
		 0.00000000E+00	-1.13904000E+03	-3.79199000E+02
		 0.00000000E+00	-1.15471000E+03	 0.00000000E+00
		 0.00000000E+00	-1.15484000E+03	 0.00000000E+00
		 0.00000000E+00	-1.15471000E+03	 0.00000000E+00
		 0.00000000E+00	-1.13904000E+03	 3.79199000E+02
		 0.00000000E+00	-2.01352000E+03	 0.00000000E+00
		 0.00000000E+00	-2.91405000E+03	-4.50444000E+02
		 0.00000000E+00	-2.92051000E+03	 0.00000000E+00
		 0.00000000E+00	-2.91817000E+03	 0.00000000E+00
		 0.00000000E+00	-2.92051000E+03	 0.00000000E+00
		 0.00000000E+00	-2.91405000E+03	 4.50444000E+02
		 0.00000000E+00	-3.70196000E+03	 0.00000000E+00
		 0.00000000E+00	-4.26305000E+03	-2.12232000E+02
		 0.00000000E+00	-4.29051000E+03	 0.00000000E+00
		 0.00000000E+00	-4.28125000E+03	 0.00000000E+00
		 0.00000000E+00	-4.29051000E+03	 0.00000000E+00
		 0.00000000E+00	-4.26305000E+03	 2.12232000E+02
		 0.00000000E+00	-4.56400000E+03	 0.00000000E+00
		 0.00000000E+00	-4.48269000E+03	 2.05403000E+02
		 0.00000000E+00	-4.51665000E+03	 0.00000000E+00
		 0.00000000E+00	-4.50526000E+03	 0.00000000E+00
		 0.00000000E+00	-4.51665000E+03	 0.00000000E+00
		 0.00000000E+00	-4.48269000E+03	-2.05403000E+02
		 0.00000000E+00	-4.07579000E+03	 0.00000000E+00
		 0.00000000E+00	-3.26609000E+03	 6.57999000E+02
		 0.00000000E+00	-3.29817000E+03	 0.00000000E+00
		 0.00000000E+00	-3.28766000E+03	 0.00000000E+00
		 0.00000000E+00	-3.29817000E+03	 0.00000000E+00
		 0.00000000E+00	-3.26609000E+03	-6.57999000E+02
		 0.00000000E+00	-2.17118000E+03	 0.00000000E+00
		 0.00000000E+00	-7.72414000E+02	 1.01364000E+03
		 0.00000000E+00	-7.94586000E+02	 0.00000000E+00
		 0.00000000E+00	-7.87614000E+02	 0.00000000E+00
		 0.00000000E+00	-7.94586000E+02	 0.00000000E+00
		 0.00000000E+00	-7.72414000E+02	-1.01364000E+03
		 0.00000000E+00	 7.91600000E+02	 0.00000000E+00
		 0.00000000E+00	 2.49304000E+03	 1.20356000E+03
		 0.00000000E+00	 2.48191000E+03	 0.00000000E+00
		 0.00000000E+00	 2.48487000E+03	 0.00000000E+00
		 0.00000000E+00	 2.48191000E+03	 0.00000000E+00
		 0.00000000E+00	 2.49304000E+03	-1.20356000E+03
		 0.00000000E+00	 4.21473000E+03	 0.00000000E+00
