    1C
    1UUSER                                                              
    1UDATE              01.august.2019                                  
    1UTIME              09:25:03                                        
    1UHOST                                                              
    1UPGM               CalculiX                                        
    1UVERSION           Version 2.15                             
    1UCOMPILETIME       Fri 15 Mar 11:57:46 CET 2019                    
    1UDIR                                                               
    1UDBN                                                               
    1UMAT    1STEEL                                                     
    2C                            40                                     1
 -1         6 0.00000E+00-5.00000E+00 5.00000E+00
 -1         7 0.00000E+00-5.00000E+00-5.00000E+00
 -1         8 0.00000E+00 5.00000E+00-5.00000E+00
 -1         9 0.00000E+00 5.00000E+00 5.00000E+00
 -1        10 0.00000E+00-5.00000E+00 0.00000E+00
 -1        11 0.00000E+00 0.00000E+00-5.00000E+00
 -1        12 0.00000E+00 5.00000E+00 0.00000E+00
 -1        13 0.00000E+00 0.00000E+00 5.00000E+00
 -1        14 5.00000E+01-5.00000E+00 5.00000E+00
 -1        15 5.00000E+01-5.00000E+00-5.00000E+00
 -1        16 5.00000E+01 5.00000E+00-5.00000E+00
 -1        17 5.00000E+01 5.00000E+00 5.00000E+00
 -1        22 1.00000E+02-5.00000E+00 5.00000E+00
 -1        23 1.00000E+02-5.00000E+00-5.00000E+00
 -1        24 1.00000E+02 5.00000E+00-5.00000E+00
 -1        25 1.00000E+02 5.00000E+00 5.00000E+00
 -1        26 1.00000E+02-5.00000E+00 0.00000E+00
 -1        27 1.00000E+02 0.00000E+00-5.00000E+00
 -1        28 1.00000E+02 5.00000E+00 0.00000E+00
 -1        29 1.00000E+02 0.00000E+00 5.00000E+00
 -1        30 1.00000E+02-2.50000E+00 2.50000E+00
 -1        31 1.00000E+02-2.50000E+00-2.50000E+00
 -1        32 1.00000E+02 2.50000E+00-2.50000E+00
 -1        33 1.00000E+02 2.50000E+00 2.50000E+00
 -1        34 1.00000E+02-2.50000E+00 0.00000E+00
 -1        35 1.00000E+02 0.00000E+00-2.50000E+00
 -1        36 1.00000E+02 2.50000E+00 0.00000E+00
 -1        37 1.00000E+02 0.00000E+00 2.50000E+00
 -1        56 1.25000E+02-2.50000E+00 2.50000E+00
 -1        57 1.25000E+02-2.50000E+00-2.50000E+00
 -1        58 1.25000E+02 2.50000E+00-2.50000E+00
 -1        59 1.25000E+02 2.50000E+00 2.50000E+00
 -1        64 1.50000E+02-2.50000E+00 2.50000E+00
 -1        65 1.50000E+02-2.50000E+00-2.50000E+00
 -1        66 1.50000E+02 2.50000E+00-2.50000E+00
 -1        67 1.50000E+02 2.50000E+00 2.50000E+00
 -1        68 1.50000E+02-2.50000E+00 0.00000E+00
 -1        69 1.50000E+02 0.00000E+00-2.50000E+00
 -1        70 1.50000E+02 2.50000E+00 0.00000E+00
 -1        71 1.50000E+02 0.00000E+00 2.50000E+00
 -3
    3C                             2                                     1
 -1         1    4    0    1
 -2         6        22        23         7         9        25        24         8        14        26
 -2        15        10        13        29        27        11        17        28        16        12
 -1         2    4    0    1
 -2        30        64        65        31        33        67        66        32        56        68
 -2        57        34        37        71        69        35        59        70        58        36
 -3
 9999
