# vtk DataFile Version 3.0

ASCII
DATASET UNSTRUCTURED_GRID

POINTS 261 double
	 0.00000000E+00	 0.00000000E+00	 0.00000000E+00
	 1.00000000E+00	 0.00000000E+00	 0.00000000E+00
	 1.00000000E+00	 1.50000000E+00	 0.00000000E+00
	 0.00000000E+00	 1.50000000E+00	 0.00000000E+00
	 0.00000000E+00	 0.00000000E+00	 8.00000000E+00
	 1.00000000E+00	 0.00000000E+00	 8.00000000E+00
	 1.00000000E+00	 1.50000000E+00	 8.00000000E+00
	 0.00000000E+00	 1.50000000E+00	 8.00000000E+00
	 2.50000000E-01	 0.00000000E+00	 0.00000000E+00
	 5.00000000E-01	 0.00000000E+00	 0.00000000E+00
	 7.50000000E-01	 0.00000000E+00	 0.00000000E+00
	 1.00000000E+00	 3.75000000E-01	 0.00000000E+00
	 1.00000000E+00	 7.50000000E-01	 0.00000000E+00
	 1.00000000E+00	 1.12500000E+00	 0.00000000E+00
	 7.50000000E-01	 1.50000000E+00	 0.00000000E+00
	 5.00000000E-01	 1.50000000E+00	 0.00000000E+00
	 2.50000000E-01	 1.50000000E+00	 0.00000000E+00
	 0.00000000E+00	 1.12500000E+00	 0.00000000E+00
	 0.00000000E+00	 7.50000000E-01	 0.00000000E+00
	 0.00000000E+00	 3.75000000E-01	 0.00000000E+00
	 2.50000000E-01	 0.00000000E+00	 8.00000000E+00
	 5.00000000E-01	 0.00000000E+00	 8.00000000E+00
	 7.50000000E-01	 0.00000000E+00	 8.00000000E+00
	 1.00000000E+00	 3.75000000E-01	 8.00000000E+00
	 1.00000000E+00	 7.50000000E-01	 8.00000000E+00
	 1.00000000E+00	 1.12500000E+00	 8.00000000E+00
	 7.50000000E-01	 1.50000000E+00	 8.00000000E+00
	 5.00000000E-01	 1.50000000E+00	 8.00000000E+00
	 2.50000000E-01	 1.50000000E+00	 8.00000000E+00
	 0.00000000E+00	 1.12500000E+00	 8.00000000E+00
	 0.00000000E+00	 7.50000000E-01	 8.00000000E+00
	 0.00000000E+00	 3.75000000E-01	 8.00000000E+00
	 1.00000000E+00	 0.00000000E+00	 5.00000000E-01
	 1.00000000E+00	 0.00000000E+00	 1.00000000E+00
	 1.00000000E+00	 0.00000000E+00	 1.50000000E+00
	 1.00000000E+00	 0.00000000E+00	 2.00000000E+00
	 1.00000000E+00	 0.00000000E+00	 2.50000000E+00
	 1.00000000E+00	 0.00000000E+00	 3.00000000E+00
	 1.00000000E+00	 0.00000000E+00	 3.50000000E+00
	 1.00000000E+00	 0.00000000E+00	 4.00000000E+00
	 1.00000000E+00	 0.00000000E+00	 4.50000000E+00
	 1.00000000E+00	 0.00000000E+00	 5.00000000E+00
	 1.00000000E+00	 0.00000000E+00	 5.50000000E+00
	 1.00000000E+00	 0.00000000E+00	 6.00000000E+00
	 1.00000000E+00	 0.00000000E+00	 6.50000000E+00
	 1.00000000E+00	 0.00000000E+00	 7.00000000E+00
	 1.00000000E+00	 0.00000000E+00	 7.50000000E+00
	 0.00000000E+00	 0.00000000E+00	 7.50000000E+00
	 0.00000000E+00	 0.00000000E+00	 7.00000000E+00
	 0.00000000E+00	 0.00000000E+00	 6.50000000E+00
	 0.00000000E+00	 0.00000000E+00	 6.00000000E+00
	 0.00000000E+00	 0.00000000E+00	 5.50000000E+00
	 0.00000000E+00	 0.00000000E+00	 5.00000000E+00
	 0.00000000E+00	 0.00000000E+00	 4.50000000E+00
	 0.00000000E+00	 0.00000000E+00	 4.00000000E+00
	 0.00000000E+00	 0.00000000E+00	 3.50000000E+00
	 0.00000000E+00	 0.00000000E+00	 3.00000000E+00
	 0.00000000E+00	 0.00000000E+00	 2.50000000E+00
	 0.00000000E+00	 0.00000000E+00	 2.00000000E+00
	 0.00000000E+00	 0.00000000E+00	 1.50000000E+00
	 0.00000000E+00	 0.00000000E+00	 1.00000000E+00
	 0.00000000E+00	 0.00000000E+00	 5.00000000E-01
	 1.00000000E+00	 1.50000000E+00	 5.00000000E-01
	 1.00000000E+00	 1.50000000E+00	 1.00000000E+00
	 1.00000000E+00	 1.50000000E+00	 1.50000000E+00
	 1.00000000E+00	 1.50000000E+00	 2.00000000E+00
	 1.00000000E+00	 1.50000000E+00	 2.50000000E+00
	 1.00000000E+00	 1.50000000E+00	 3.00000000E+00
	 1.00000000E+00	 1.50000000E+00	 3.50000000E+00
	 1.00000000E+00	 1.50000000E+00	 4.00000000E+00
	 1.00000000E+00	 1.50000000E+00	 4.50000000E+00
	 1.00000000E+00	 1.50000000E+00	 5.00000000E+00
	 1.00000000E+00	 1.50000000E+00	 5.50000000E+00
	 1.00000000E+00	 1.50000000E+00	 6.00000000E+00
	 1.00000000E+00	 1.50000000E+00	 6.50000000E+00
	 1.00000000E+00	 1.50000000E+00	 7.00000000E+00
	 1.00000000E+00	 1.50000000E+00	 7.50000000E+00
	 0.00000000E+00	 1.50000000E+00	 5.00000000E-01
	 0.00000000E+00	 1.50000000E+00	 1.00000000E+00
	 0.00000000E+00	 1.50000000E+00	 1.50000000E+00
	 0.00000000E+00	 1.50000000E+00	 2.00000000E+00
	 0.00000000E+00	 1.50000000E+00	 2.50000000E+00
	 0.00000000E+00	 1.50000000E+00	 3.00000000E+00
	 0.00000000E+00	 1.50000000E+00	 3.50000000E+00
	 0.00000000E+00	 1.50000000E+00	 4.00000000E+00
	 0.00000000E+00	 1.50000000E+00	 4.50000000E+00
	 0.00000000E+00	 1.50000000E+00	 5.00000000E+00
	 0.00000000E+00	 1.50000000E+00	 5.50000000E+00
	 0.00000000E+00	 1.50000000E+00	 6.00000000E+00
	 0.00000000E+00	 1.50000000E+00	 6.50000000E+00
	 0.00000000E+00	 1.50000000E+00	 7.00000000E+00
	 0.00000000E+00	 1.50000000E+00	 7.50000000E+00
	 5.00000000E-01	 3.75000000E-01	 0.00000000E+00
	 2.50000000E-01	 7.50000000E-01	 0.00000000E+00
	 5.00000000E-01	 7.50000000E-01	 0.00000000E+00
	 7.50000000E-01	 7.50000000E-01	 0.00000000E+00
	 5.00000000E-01	 1.12500000E+00	 0.00000000E+00
	 5.00000000E-01	 3.75000000E-01	 8.00000000E+00
	 2.50000000E-01	 7.50000000E-01	 8.00000000E+00
	 5.00000000E-01	 7.50000000E-01	 8.00000000E+00
	 7.50000000E-01	 7.50000000E-01	 8.00000000E+00
	 5.00000000E-01	 1.12500000E+00	 8.00000000E+00
	 5.00000000E-01	 0.00000000E+00	 5.00000000E-01
	 2.50000000E-01	 0.00000000E+00	 1.00000000E+00
	 5.00000000E-01	 0.00000000E+00	 1.00000000E+00
	 7.50000000E-01	 0.00000000E+00	 1.00000000E+00
	 5.00000000E-01	 0.00000000E+00	 1.50000000E+00
	 2.50000000E-01	 0.00000000E+00	 2.00000000E+00
	 5.00000000E-01	 0.00000000E+00	 2.00000000E+00
	 7.50000000E-01	 0.00000000E+00	 2.00000000E+00
	 5.00000000E-01	 0.00000000E+00	 2.50000000E+00
	 2.50000000E-01	 0.00000000E+00	 3.00000000E+00
	 5.00000000E-01	 0.00000000E+00	 3.00000000E+00
	 7.50000000E-01	 0.00000000E+00	 3.00000000E+00
	 5.00000000E-01	 0.00000000E+00	 3.50000000E+00
	 2.50000000E-01	 0.00000000E+00	 4.00000000E+00
	 5.00000000E-01	 0.00000000E+00	 4.00000000E+00
	 7.50000000E-01	 0.00000000E+00	 4.00000000E+00
	 5.00000000E-01	 0.00000000E+00	 4.50000000E+00
	 2.50000000E-01	 0.00000000E+00	 5.00000000E+00
	 5.00000000E-01	 0.00000000E+00	 5.00000000E+00
	 7.50000000E-01	 0.00000000E+00	 5.00000000E+00
	 5.00000000E-01	 0.00000000E+00	 5.50000000E+00
	 2.50000000E-01	 0.00000000E+00	 6.00000000E+00
	 5.00000000E-01	 0.00000000E+00	 6.00000000E+00
	 7.50000000E-01	 0.00000000E+00	 6.00000000E+00
	 5.00000000E-01	 0.00000000E+00	 6.50000000E+00
	 2.50000000E-01	 0.00000000E+00	 7.00000000E+00
	 5.00000000E-01	 0.00000000E+00	 7.00000000E+00
	 7.50000000E-01	 0.00000000E+00	 7.00000000E+00
	 5.00000000E-01	 0.00000000E+00	 7.50000000E+00
	 1.00000000E+00	 7.50000000E-01	 5.00000000E-01
	 1.00000000E+00	 3.75000000E-01	 1.00000000E+00
	 1.00000000E+00	 7.50000000E-01	 1.00000000E+00
	 1.00000000E+00	 1.12500000E+00	 1.00000000E+00
	 1.00000000E+00	 7.50000000E-01	 1.50000000E+00
	 1.00000000E+00	 3.75000000E-01	 2.00000000E+00
	 1.00000000E+00	 7.50000000E-01	 2.00000000E+00
	 1.00000000E+00	 1.12500000E+00	 2.00000000E+00
	 1.00000000E+00	 7.50000000E-01	 2.50000000E+00
	 1.00000000E+00	 3.75000000E-01	 3.00000000E+00
	 1.00000000E+00	 7.50000000E-01	 3.00000000E+00
	 1.00000000E+00	 1.12500000E+00	 3.00000000E+00
	 1.00000000E+00	 7.50000000E-01	 3.50000000E+00
	 1.00000000E+00	 3.75000000E-01	 4.00000000E+00
	 1.00000000E+00	 7.50000000E-01	 4.00000000E+00
	 1.00000000E+00	 1.12500000E+00	 4.00000000E+00
	 1.00000000E+00	 7.50000000E-01	 4.50000000E+00
	 1.00000000E+00	 3.75000000E-01	 5.00000000E+00
	 1.00000000E+00	 7.50000000E-01	 5.00000000E+00
	 1.00000000E+00	 1.12500000E+00	 5.00000000E+00
	 1.00000000E+00	 7.50000000E-01	 5.50000000E+00
	 1.00000000E+00	 3.75000000E-01	 6.00000000E+00
	 1.00000000E+00	 7.50000000E-01	 6.00000000E+00
	 1.00000000E+00	 1.12500000E+00	 6.00000000E+00
	 1.00000000E+00	 7.50000000E-01	 6.50000000E+00
	 1.00000000E+00	 3.75000000E-01	 7.00000000E+00
	 1.00000000E+00	 7.50000000E-01	 7.00000000E+00
	 1.00000000E+00	 1.12500000E+00	 7.00000000E+00
	 1.00000000E+00	 7.50000000E-01	 7.50000000E+00
	 5.00000000E-01	 1.50000000E+00	 5.00000000E-01
	 7.50000000E-01	 1.50000000E+00	 1.00000000E+00
	 5.00000000E-01	 1.50000000E+00	 1.00000000E+00
	 2.50000000E-01	 1.50000000E+00	 1.00000000E+00
	 5.00000000E-01	 1.50000000E+00	 1.50000000E+00
	 7.50000000E-01	 1.50000000E+00	 2.00000000E+00
	 5.00000000E-01	 1.50000000E+00	 2.00000000E+00
	 2.50000000E-01	 1.50000000E+00	 2.00000000E+00
	 5.00000000E-01	 1.50000000E+00	 2.50000000E+00
	 7.50000000E-01	 1.50000000E+00	 3.00000000E+00
	 5.00000000E-01	 1.50000000E+00	 3.00000000E+00
	 2.50000000E-01	 1.50000000E+00	 3.00000000E+00
	 5.00000000E-01	 1.50000000E+00	 3.50000000E+00
	 7.50000000E-01	 1.50000000E+00	 4.00000000E+00
	 5.00000000E-01	 1.50000000E+00	 4.00000000E+00
	 2.50000000E-01	 1.50000000E+00	 4.00000000E+00
	 5.00000000E-01	 1.50000000E+00	 4.50000000E+00
	 7.50000000E-01	 1.50000000E+00	 5.00000000E+00
	 5.00000000E-01	 1.50000000E+00	 5.00000000E+00
	 2.50000000E-01	 1.50000000E+00	 5.00000000E+00
	 5.00000000E-01	 1.50000000E+00	 5.50000000E+00
	 7.50000000E-01	 1.50000000E+00	 6.00000000E+00
	 5.00000000E-01	 1.50000000E+00	 6.00000000E+00
	 2.50000000E-01	 1.50000000E+00	 6.00000000E+00
	 5.00000000E-01	 1.50000000E+00	 6.50000000E+00
	 7.50000000E-01	 1.50000000E+00	 7.00000000E+00
	 5.00000000E-01	 1.50000000E+00	 7.00000000E+00
	 2.50000000E-01	 1.50000000E+00	 7.00000000E+00
	 5.00000000E-01	 1.50000000E+00	 7.50000000E+00
	 0.00000000E+00	 7.50000000E-01	 5.00000000E-01
	 0.00000000E+00	 1.12500000E+00	 1.00000000E+00
	 0.00000000E+00	 7.50000000E-01	 1.00000000E+00
	 0.00000000E+00	 3.75000000E-01	 1.00000000E+00
	 0.00000000E+00	 7.50000000E-01	 1.50000000E+00
	 0.00000000E+00	 1.12500000E+00	 2.00000000E+00
	 0.00000000E+00	 7.50000000E-01	 2.00000000E+00
	 0.00000000E+00	 3.75000000E-01	 2.00000000E+00
	 0.00000000E+00	 7.50000000E-01	 2.50000000E+00
	 0.00000000E+00	 1.12500000E+00	 3.00000000E+00
	 0.00000000E+00	 7.50000000E-01	 3.00000000E+00
	 0.00000000E+00	 3.75000000E-01	 3.00000000E+00
	 0.00000000E+00	 7.50000000E-01	 3.50000000E+00
	 0.00000000E+00	 1.12500000E+00	 4.00000000E+00
	 0.00000000E+00	 7.50000000E-01	 4.00000000E+00
	 0.00000000E+00	 3.75000000E-01	 4.00000000E+00
	 0.00000000E+00	 7.50000000E-01	 4.50000000E+00
	 0.00000000E+00	 1.12500000E+00	 5.00000000E+00
	 0.00000000E+00	 7.50000000E-01	 5.00000000E+00
	 0.00000000E+00	 3.75000000E-01	 5.00000000E+00
	 0.00000000E+00	 7.50000000E-01	 5.50000000E+00
	 0.00000000E+00	 1.12500000E+00	 6.00000000E+00
	 0.00000000E+00	 7.50000000E-01	 6.00000000E+00
	 0.00000000E+00	 3.75000000E-01	 6.00000000E+00
	 0.00000000E+00	 7.50000000E-01	 6.50000000E+00
	 0.00000000E+00	 1.12500000E+00	 7.00000000E+00
	 0.00000000E+00	 7.50000000E-01	 7.00000000E+00
	 0.00000000E+00	 3.75000000E-01	 7.00000000E+00
	 0.00000000E+00	 7.50000000E-01	 7.50000000E+00
	 5.00000000E-01	 7.50000000E-01	 5.00000000E-01
	 5.00000000E-01	 3.75000000E-01	 1.00000000E+00
	 2.50000000E-01	 7.50000000E-01	 1.00000000E+00
	 5.00000000E-01	 7.50000000E-01	 1.00000000E+00
	 7.50000000E-01	 7.50000000E-01	 1.00000000E+00
	 5.00000000E-01	 1.12500000E+00	 1.00000000E+00
	 5.00000000E-01	 7.50000000E-01	 1.50000000E+00
	 5.00000000E-01	 3.75000000E-01	 2.00000000E+00
	 2.50000000E-01	 7.50000000E-01	 2.00000000E+00
	 5.00000000E-01	 7.50000000E-01	 2.00000000E+00
	 7.50000000E-01	 7.50000000E-01	 2.00000000E+00
	 5.00000000E-01	 1.12500000E+00	 2.00000000E+00
	 5.00000000E-01	 7.50000000E-01	 2.50000000E+00
	 5.00000000E-01	 3.75000000E-01	 3.00000000E+00
	 2.50000000E-01	 7.50000000E-01	 3.00000000E+00
	 5.00000000E-01	 7.50000000E-01	 3.00000000E+00
	 7.50000000E-01	 7.50000000E-01	 3.00000000E+00
	 5.00000000E-01	 1.12500000E+00	 3.00000000E+00
	 5.00000000E-01	 7.50000000E-01	 3.50000000E+00
	 5.00000000E-01	 3.75000000E-01	 4.00000000E+00
	 2.50000000E-01	 7.50000000E-01	 4.00000000E+00
	 5.00000000E-01	 7.50000000E-01	 4.00000000E+00
	 7.50000000E-01	 7.50000000E-01	 4.00000000E+00
	 5.00000000E-01	 1.12500000E+00	 4.00000000E+00
	 5.00000000E-01	 7.50000000E-01	 4.50000000E+00
	 5.00000000E-01	 3.75000000E-01	 5.00000000E+00
	 2.50000000E-01	 7.50000000E-01	 5.00000000E+00
	 5.00000000E-01	 7.50000000E-01	 5.00000000E+00
	 7.50000000E-01	 7.50000000E-01	 5.00000000E+00
	 5.00000000E-01	 1.12500000E+00	 5.00000000E+00
	 5.00000000E-01	 7.50000000E-01	 5.50000000E+00
	 5.00000000E-01	 3.75000000E-01	 6.00000000E+00
	 2.50000000E-01	 7.50000000E-01	 6.00000000E+00
	 5.00000000E-01	 7.50000000E-01	 6.00000000E+00
	 7.50000000E-01	 7.50000000E-01	 6.00000000E+00
	 5.00000000E-01	 1.12500000E+00	 6.00000000E+00
	 5.00000000E-01	 7.50000000E-01	 6.50000000E+00
	 5.00000000E-01	 3.75000000E-01	 7.00000000E+00
	 2.50000000E-01	 7.50000000E-01	 7.00000000E+00
	 5.00000000E-01	 7.50000000E-01	 7.00000000E+00
	 7.50000000E-01	 7.50000000E-01	 7.00000000E+00
	 5.00000000E-01	 1.12500000E+00	 7.00000000E+00
	 5.00000000E-01	 7.50000000E-01	 7.50000000E+00

CELLS 32 672
	20 0 9 94 18 60 104 221 191 8 92 93 19 103 219 220 192 61 102 218 189 
	20 9 1 12 94 104 33 133 221 10 11 95 92 105 132 222 219 102 32 131 218 
	20 18 94 15 3 191 221 162 78 93 96 16 17 220 223 163 190 189 218 160 77 
	20 94 12 2 15 221 133 63 162 95 13 14 96 222 134 161 223 218 131 62 160 
	20 60 104 221 191 58 108 227 195 103 219 220 192 107 225 226 196 59 106 224 193 
	20 104 33 133 221 108 35 137 227 105 132 222 219 109 136 228 225 106 34 135 224 
	20 191 221 162 78 195 227 166 80 220 223 163 190 226 229 167 194 193 224 164 79 
	20 221 133 63 162 227 137 65 166 222 134 161 223 228 138 165 229 224 135 64 164 
	20 58 108 227 195 56 112 233 199 107 225 226 196 111 231 232 200 57 110 230 197 
	20 108 35 137 227 112 37 141 233 109 136 228 225 113 140 234 231 110 36 139 230 
	20 195 227 166 80 199 233 170 82 226 229 167 194 232 235 171 198 197 230 168 81 
	20 227 137 65 166 233 141 67 170 228 138 165 229 234 142 169 235 230 139 66 168 
	20 56 112 233 199 54 116 239 203 111 231 232 200 115 237 238 204 55 114 236 201 
	20 112 37 141 233 116 39 145 239 113 140 234 231 117 144 240 237 114 38 143 236 
	20 199 233 170 82 203 239 174 84 232 235 171 198 238 241 175 202 201 236 172 83 
	20 233 141 67 170 239 145 69 174 234 142 169 235 240 146 173 241 236 143 68 172 
	20 54 116 239 203 52 120 245 207 115 237 238 204 119 243 244 208 53 118 242 205 
	20 116 39 145 239 120 41 149 245 117 144 240 237 121 148 246 243 118 40 147 242 
	20 203 239 174 84 207 245 178 86 238 241 175 202 244 247 179 206 205 242 176 85 
	20 239 145 69 174 245 149 71 178 240 146 173 241 246 150 177 247 242 147 70 176 
	20 52 120 245 207 50 124 251 211 119 243 244 208 123 249 250 212 51 122 248 209 
	20 120 41 149 245 124 43 153 251 121 148 246 243 125 152 252 249 122 42 151 248 
	20 207 245 178 86 211 251 182 88 244 247 179 206 250 253 183 210 209 248 180 87 
	20 245 149 71 178 251 153 73 182 246 150 177 247 252 154 181 253 248 151 72 180 
	20 50 124 251 211 48 128 257 215 123 249 250 212 127 255 256 216 49 126 254 213 
	20 124 43 153 251 128 45 157 257 125 152 252 249 129 156 258 255 126 44 155 254 
	20 211 251 182 88 215 257 186 90 250 253 183 210 256 259 187 214 213 254 184 89 
	20 251 153 73 182 257 157 75 186 252 154 181 253 258 158 185 259 254 155 74 184 
	20 48 128 257 215 4 21 99 30 127 255 256 216 20 97 98 31 47 130 260 217 
	20 128 45 157 257 21 5 24 99 129 156 258 255 22 23 100 97 130 46 159 260 
	20 215 257 186 90 30 99 27 7 256 259 187 214 98 101 28 29 217 260 188 91 
	20 257 157 75 186 99 24 6 27 258 158 185 259 100 25 26 101 260 159 76 188 

CELL_TYPES 32
	25
	25
	25
	25
	25
	25
	25
	25
	25
	25
	25
	25
	25
	25
	25
	25
	25
	25
	25
	25
	25
	25
	25
	25
	25
	25
	25
	25
	25
	25
	25
	25

POINT_DATA 261
FIELD U 1
	U 3 261 double
		 0.00000000E+00	 0.00000000E+00	 0.00000000E+00
		 0.00000000E+00	 0.00000000E+00	 0.00000000E+00
		 0.00000000E+00	 0.00000000E+00	 0.00000000E+00
		 0.00000000E+00	 0.00000000E+00	 0.00000000E+00
		-9.11165000E+00	 5.89512000E+03	 1.28470000E+03
		 9.11165000E+00	 5.89512000E+03	 1.28470000E+03
		-1.12781000E+01	 4.12790000E+03	-5.31482000E+03
		 1.12781000E+01	 4.12790000E+03	-5.31482000E+03
		 0.00000000E+00	 0.00000000E+00	 0.00000000E+00
		 0.00000000E+00	 0.00000000E+00	 0.00000000E+00
		 0.00000000E+00	 0.00000000E+00	 0.00000000E+00
		 0.00000000E+00	 0.00000000E+00	 0.00000000E+00
		 0.00000000E+00	 0.00000000E+00	 0.00000000E+00
		 0.00000000E+00	 0.00000000E+00	 0.00000000E+00
		 0.00000000E+00	 0.00000000E+00	 0.00000000E+00
		 0.00000000E+00	 0.00000000E+00	 0.00000000E+00
		 0.00000000E+00	 0.00000000E+00	 0.00000000E+00
		 0.00000000E+00	 0.00000000E+00	 0.00000000E+00
		 0.00000000E+00	 0.00000000E+00	 0.00000000E+00
		 0.00000000E+00	 0.00000000E+00	 0.00000000E+00
		-4.49478000E+00	 5.90011000E+03	 1.30957000E+03
		 3.49701000E-09	 5.90324000E+03	 1.32317000E+03
		 4.49478000E+00	 5.90011000E+03	 1.30957000E+03
		 8.62865000E+00	 5.42411000E+03	-3.78276000E+02
		 3.59603000E+00	 4.95900000E+03	-1.99272000E+03
		-6.98545000E+00	 4.56070000E+03	-3.62178000E+03
		-4.89103000E+00	 4.12817000E+03	-5.32545000E+03
		-4.03588000E-09	 4.13193000E+03	-5.32286000E+03
		 4.89103000E+00	 4.12817000E+03	-5.32545000E+03
		 6.98545000E+00	 4.56070000E+03	-3.62178000E+03
		-3.59603000E+00	 4.95900000E+03	-1.99272000E+03
		-8.62865000E+00	 5.42411000E+03	-3.78276000E+02
		-1.89544000E+02	 1.22184000E+03	 7.20817000E+02
		 8.71371000E+01	 2.74965000E+03	 8.88025000E+02
		 1.99023000E+02	 4.11660000E+03	 3.31174000E+02
		 2.94886000E+02	 4.68770000E+03	-5.45444000E+02
		 2.91743000E+02	 4.37384000E+03	-1.46091000E+03
		 2.29052000E+02	 3.16602000E+03	-2.15082000E+03
		 1.07411000E+02	 1.34699000E+03	-2.38107000E+03
		-4.08754000E+01	-6.88400000E+02	-2.11996000E+03
		-1.83740000E+02	-2.44895000E+03	-1.36360000E+03
		-2.89309000E+02	-3.54638000E+03	-3.40057000E+02
		-3.38339000E+02	-3.70871000E+03	 7.49604000E+02
		-3.21570000E+02	-2.87167000E+03	 1.64896000E+03
		-2.49552000E+02	-1.18556000E+03	 2.15683000E+03
		-1.47034000E+02	 1.08456000E+03	 2.23017000E+03
		-5.22642000E+01	 3.53974000E+03	 1.86881000E+03
		 5.22642000E+01	 3.53974000E+03	 1.86881000E+03
		 1.47034000E+02	 1.08456000E+03	 2.23017000E+03
		 2.49552000E+02	-1.18556000E+03	 2.15683000E+03
		 3.21570000E+02	-2.87167000E+03	 1.64896000E+03
		 3.38339000E+02	-3.70871000E+03	 7.49604000E+02
		 2.89309000E+02	-3.54638000E+03	-3.40057000E+02
		 1.83740000E+02	-2.44895000E+03	-1.36360000E+03
		 4.08754000E+01	-6.88400000E+02	-2.11996000E+03
		-1.07411000E+02	 1.34699000E+03	-2.38107000E+03
		-2.29052000E+02	 3.16602000E+03	-2.15082000E+03
		-2.91743000E+02	 4.37384000E+03	-1.46091000E+03
		-2.94886000E+02	 4.68770000E+03	-5.45444000E+02
		-1.99023000E+02	 4.11660000E+03	 3.31174000E+02
		-8.71371000E+01	 2.74965000E+03	 8.88025000E+02
		 1.89544000E+02	 1.22184000E+03	 7.20817000E+02
		 2.92225000E+02	 1.22304000E+03	-1.06562000E+03
		-6.39703000E+01	 2.67371000E+03	-1.58839000E+03
		-1.65104000E+02	 4.08575000E+03	-1.39587000E+03
		-2.60498000E+02	 4.77562000E+03	-7.33217000E+02
		-2.55630000E+02	 4.72705000E+03	 1.68699000E+02
		-1.89443000E+02	 3.79668000E+03	 1.11048000E+03
		-6.17510000E+01	 2.19986000E+03	 1.82253000E+03
		 9.05270000E+01	 2.45471000E+02	 2.18796000E+03
		 2.35861000E+02	-1.66592000E+03	 2.02689000E+03
		 3.39040000E+02	-3.10328000E+03	 1.38569000E+03
		 3.82372000E+02	-3.78174000E+03	 3.11727000E+02
		 3.56888000E+02	-3.51249000E+03	-1.02734000E+03
		 2.75706000E+02	-2.33485000E+03	-2.39244000E+03
		 1.61551000E+02	-4.54436000E+02	-3.65593000E+03
		 6.15577000E+01	 1.81570000E+03	-4.61149000E+03
		-2.92225000E+02	 1.22304000E+03	-1.06562000E+03
		 6.39703000E+01	 2.67371000E+03	-1.58839000E+03
		 1.65104000E+02	 4.08575000E+03	-1.39587000E+03
		 2.60498000E+02	 4.77562000E+03	-7.33217000E+02
		 2.55630000E+02	 4.72705000E+03	 1.68699000E+02
		 1.89443000E+02	 3.79668000E+03	 1.11048000E+03
		 6.17510000E+01	 2.19986000E+03	 1.82253000E+03
		-9.05270000E+01	 2.45471000E+02	 2.18796000E+03
		-2.35861000E+02	-1.66592000E+03	 2.02689000E+03
		-3.39040000E+02	-3.10328000E+03	 1.38569000E+03
		-3.82372000E+02	-3.78174000E+03	 3.11727000E+02
		-3.56888000E+02	-3.51249000E+03	-1.02734000E+03
		-2.75706000E+02	-2.33485000E+03	-2.39244000E+03
		-1.61551000E+02	-4.54436000E+02	-3.65593000E+03
		-6.15577000E+01	 1.81570000E+03	-4.61149000E+03
		 0.00000000E+00	 0.00000000E+00	 0.00000000E+00
		 0.00000000E+00	 0.00000000E+00	 0.00000000E+00
		 0.00000000E+00	 0.00000000E+00	 0.00000000E+00
		 0.00000000E+00	 0.00000000E+00	 0.00000000E+00
		 0.00000000E+00	 0.00000000E+00	 0.00000000E+00
		 1.63550000E-09	 5.44012000E+03	-3.79500000E+02
		-3.62857000E-01	 4.96388000E+03	-1.99752000E+03
		 0.00000000E+00	 4.97714000E+03	-2.00655000E+03
		 3.62857000E-01	 4.96388000E+03	-1.99752000E+03
		-2.16073000E-09	 4.55707000E+03	-3.65455000E+03
		 0.00000000E+00	 1.28468000E+03	 7.26818000E+02
		-4.41582000E+01	 2.75882000E+03	 9.42986000E+02
		-1.40153000E-09	 2.75036000E+03	 9.51009000E+02
		 4.41582000E+01	 2.75882000E+03	 9.42986000E+02
		-2.09184000E-09	 4.05028000E+03	 3.62169000E+02
		-1.47261000E+02	 4.60959000E+03	-5.24565000E+02
		-2.65936000E-09	 4.59493000E+03	-5.18152000E+02
		 1.47261000E+02	 4.60959000E+03	-5.24565000E+02
		-3.05045000E-09	 4.27176000E+03	-1.45208000E+03
		-1.14457000E+02	 3.10596000E+03	-2.16102000E+03
		-3.19142000E-09	 3.09076000E+03	-2.15812000E+03
		 1.14457000E+02	 3.10596000E+03	-2.16102000E+03
		-3.00588000E-09	 1.30920000E+03	-2.40753000E+03
		 2.03409000E+01	-6.79373000E+02	-2.15843000E+03
		-2.50475000E-09	-6.73982000E+02	-2.15960000E+03
		-2.03409000E+01	-6.79373000E+02	-2.15843000E+03
		-1.69530000E-09	-2.38671000E+03	-1.41097000E+03
		 1.44844000E+02	-3.46942000E+03	-3.78926000E+02
		 0.00000000E+00	-3.44616000E+03	-3.85328000E+02
		-1.44844000E+02	-3.46942000E+03	-3.78926000E+02
		 0.00000000E+00	-3.59089000E+03	 7.14382000E+02
		 1.61149000E+02	-2.78253000E+03	 1.63854000E+03
		 1.47247000E-09	-2.75732000E+03	 1.63274000E+03
		-1.61149000E+02	-2.78253000E+03	 1.63854000E+03
		 2.36469000E-09	-1.09358000E+03	 2.15241000E+03
		 7.37693000E+01	 1.12650000E+03	 2.24885000E+03
		 3.01043000E-09	 1.13791000E+03	 2.24796000E+03
		-7.37693000E+01	 1.12650000E+03	 2.24885000E+03
		 3.35558000E-09	 3.56303000E+03	 1.88447000E+03
		 4.59590000E+01	 1.12137000E+03	-1.30541000E+02
		 5.45071000E+01	 2.74705000E+03	 5.24180000E+01
		 1.73153000E+01	 2.80047000E+03	-3.16041000E+02
		-2.50465000E+01	 2.73568000E+03	-6.98951000E+02
		 1.03136000E+01	 4.14832000E+03	-4.98990000E+02
		 1.36294000E+02	 4.84615000E+03	-6.48936000E+02
		-1.79556000E+00	 4.90929000E+03	-6.50384000E+02
		-1.25749000E+02	 4.92049000E+03	-6.51609000E+02
		 1.71526000E-01	 4.69281000E+03	-6.83229000E+02
		 1.13632000E+02	 3.43835000E+03	-1.27739000E+03
		 7.70579000E+00	 3.60449000E+03	-5.72237000E+02
		-8.98585000E+01	 3.72634000E+03	 1.58378000E+02
		 1.76771000E+01	 1.80792000E+03	-3.20808000E+02
		-6.04686000E+00	-4.58741000E+02	-9.05155000E+02
		 2.68844000E+01	-2.70306000E+02	 1.30002000E+01
		 5.88711000E+01	-5.82398000E+01	 9.45647000E+02
		 3.29700000E+01	-2.18348000E+03	 3.38761000E+02
		-1.21814000E+02	-3.57212000E+03	 2.00228000E+02
		 3.47332000E+01	-3.52086000E+03	 5.59858000E+02
		 1.84413000E+02	-3.39458000E+03	 9.07158000E+02
		 3.20295000E+01	-3.95201000E+03	 5.82965000E+02
		-1.42877000E+02	-3.21250000E+03	 9.83512000E+02
		 2.57923000E+01	-3.40489000E+03	 3.74745000E+02
		 1.88995000E+02	-3.51101000E+03	-2.62107000E+02
		 1.78018000E+01	-1.92379000E+03	-6.89522000E+01
		-6.85920000E+01	 5.86181000E+02	 6.93272000E+02
		 1.28319000E+01	 1.95803000E+02	-6.67691000E+02
		 8.84829000E+01	-1.29184000E+02	-2.06204000E+03
		 1.00846000E+00	 2.62495000E+03	-1.35894000E+03
		 0.00000000E+00	 1.29337000E+03	-1.08438000E+03
		-3.05475000E+01	 2.67282000E+03	-1.67813000E+03
		 1.67120000E-09	 2.66311000E+03	-1.69606000E+03
		 3.05475000E+01	 2.67282000E+03	-1.67813000E+03
		 2.45609000E-09	 4.01245000E+03	-1.43029000E+03
		-1.33270000E+02	 4.70562000E+03	-7.39754000E+02
		 3.02953000E-09	 4.69135000E+03	-7.46759000E+02
		 1.33270000E+02	 4.70562000E+03	-7.39754000E+02
		 3.31511000E-09	 4.63808000E+03	 1.95625000E+02
		-9.57103000E+01	 3.75339000E+03	 1.15089000E+03
		 3.28873000E-09	 3.73873000E+03	 1.15678000E+03
		 9.57103000E+01	 3.75339000E+03	 1.15089000E+03
		 2.97405000E-09	 2.18118000E+03	 1.87874000E+03
		 4.55644000E+01	 2.70603000E+02	 2.23222000E+03
		 2.39879000E-09	 2.76863000E+02	 2.23426000E+03
		-4.55644000E+01	 2.70603000E+02	 2.23222000E+03
		 1.59321000E-09	-1.59017000E+03	 2.05409000E+03
		 1.70929000E+02	-3.02255000E+03	 1.38927000E+03
		 0.00000000E+00	-2.99922000E+03	 1.38554000E+03
		-1.70929000E+02	-3.02255000E+03	 1.38927000E+03
		 0.00000000E+00	-3.66682000E+03	 2.85129000E+02
		 1.79724000E+02	-3.43529000E+03	-1.06355000E+03
		-1.51203000E-09	-3.41017000E+03	-1.06918000E+03
		-1.79724000E+02	-3.43529000E+03	-1.06355000E+03
		-2.48156000E-09	-2.26378000E+03	-2.44992000E+03
		 8.08609000E+01	-4.27296000E+02	-3.69471000E+03
		-3.27600000E-09	-4.14098000E+02	-3.69772000E+03
		-8.08609000E+01	-4.27296000E+02	-3.69471000E+03
		-3.76804000E-09	 1.82818000E+03	-4.64728000E+03
		-4.59590000E+01	 1.12137000E+03	-1.30541000E+02
		 2.50465000E+01	 2.73568000E+03	-6.98951000E+02
		-1.73153000E+01	 2.80047000E+03	-3.16041000E+02
		-5.45071000E+01	 2.74705000E+03	 5.24180000E+01
		-1.03136000E+01	 4.14832000E+03	-4.98990000E+02
		 1.25749000E+02	 4.92049000E+03	-6.51609000E+02
		 1.79556000E+00	 4.90929000E+03	-6.50384000E+02
		-1.36294000E+02	 4.84615000E+03	-6.48936000E+02
		-1.71526000E-01	 4.69281000E+03	-6.83229000E+02
		 8.98585000E+01	 3.72634000E+03	 1.58378000E+02
		-7.70579000E+00	 3.60449000E+03	-5.72237000E+02
		-1.13632000E+02	 3.43835000E+03	-1.27739000E+03
		-1.76771000E+01	 1.80792000E+03	-3.20808000E+02
		-5.88711000E+01	-5.82398000E+01	 9.45647000E+02
		-2.68844000E+01	-2.70306000E+02	 1.30002000E+01
		 6.04686000E+00	-4.58741000E+02	-9.05155000E+02
		-3.29700000E+01	-2.18348000E+03	 3.38761000E+02
		-1.84413000E+02	-3.39458000E+03	 9.07158000E+02
		-3.47332000E+01	-3.52086000E+03	 5.59858000E+02
		 1.21814000E+02	-3.57212000E+03	 2.00228000E+02
		-3.20295000E+01	-3.95201000E+03	 5.82965000E+02
		-1.88995000E+02	-3.51101000E+03	-2.62107000E+02
		-2.57923000E+01	-3.40489000E+03	 3.74745000E+02
		 1.42877000E+02	-3.21250000E+03	 9.83512000E+02
		-1.78018000E+01	-1.92379000E+03	-6.89522000E+01
		-8.84829000E+01	-1.29184000E+02	-2.06204000E+03
		-1.28319000E+01	 1.95803000E+02	-6.67691000E+02
		 6.85920000E+01	 5.86181000E+02	 6.93272000E+02
		-1.00846000E+00	 2.62495000E+03	-1.35894000E+03
		 0.00000000E+00	 1.17009000E+03	-1.36348000E+02
		 0.00000000E+00	 2.74181000E+03	 9.63911000E+01
		-8.65705000E+00	 2.80084000E+03	-3.28343000E+02
		 0.00000000E+00	 2.79077000E+03	-3.31788000E+02
		 8.65705000E+00	 2.80084000E+03	-3.28343000E+02
		 0.00000000E+00	 2.72329000E+03	-7.81111000E+02
		 0.00000000E+00	 4.09512000E+03	-5.03080000E+02
		-1.29467000E-09	 4.75839000E+03	-6.27815000E+02
		 1.88209000E+00	 4.84208000E+03	-6.45353000E+02
		 0.00000000E+00	 4.82459000E+03	-6.43954000E+02
		-1.88209000E+00	 4.84208000E+03	-6.45353000E+02
		 1.59480000E-09	 4.83916000E+03	-6.58088000E+02
		 0.00000000E+00	 4.61131000E+03	-6.67441000E+02
		-1.59753000E-09	 3.36712000E+03	-1.28183000E+03
		-3.38427000E+00	 3.55652000E+03	-5.57020000E+02
		 0.00000000E+00	 3.54134000E+03	-5.53252000E+02
		 3.38427000E+00	 3.55652000E+03	-5.57020000E+02
		 1.63527000E-09	 3.66943000E+03	 1.99450000E+02
		 0.00000000E+00	 1.78462000E+03	-3.06986000E+02
		-1.27329000E-09	-4.43907000E+02	-9.38457000E+02
		-1.37015000E+01	-2.54130000E+02	 1.63813000E+01
		 0.00000000E+00	-2.49042000E+02	 1.69716000E+01
		 1.37015000E+01	-2.54130000E+02	 1.63813000E+01
		 1.14210000E-09	-2.92065000E+01	 9.85510000E+02
		 0.00000000E+00	-2.11969000E+03	 3.29426000E+02
		 0.00000000E+00	-3.47630000E+03	 1.59599000E+02
		-1.79375000E+01	-3.44799000E+03	 5.43679000E+02
		 0.00000000E+00	-3.42592000E+03	 5.38727000E+02
		 1.79375000E+01	-3.44799000E+03	 5.43679000E+02
		 0.00000000E+00	-3.29522000E+03	 9.04374000E+02
		 0.00000000E+00	-3.84510000E+03	 5.54701000E+02
		 0.00000000E+00	-3.10340000E+03	 9.63387000E+02
		-1.32242000E+01	-3.32729000E+03	 3.49989000E+02
		 0.00000000E+00	-3.30297000E+03	 3.41494000E+02
		 1.32242000E+01	-3.32729000E+03	 3.49989000E+02
		 0.00000000E+00	-3.41223000E+03	-3.04958000E+02
		 0.00000000E+00	-1.84550000E+03	-9.28840000E+01
		 1.44109000E-09	 6.41872000E+02	 6.99533000E+02
		-6.43460000E+00	 2.32947000E+02	-6.90215000E+02
		 0.00000000E+00	 2.45408000E+02	-7.01998000E+02
		 6.43460000E+00	 2.32947000E+02	-6.90215000E+02
		-1.67211000E-09	-8.45600000E+01	-2.10620000E+03
		 0.00000000E+00	 2.64494000E+03	-1.35104000E+03
