<?xml version="1.0"?>
<VTKFile type="UnstructuredGrid" version="0.1" byte_order="LittleEndian">
	<UnstructuredGrid>
		<Piece NumberOfPoints="261" NumberOfCells="32">
			<Points>
				<DataArray type="Float64" NumberOfComponents="3" format="ascii">
					 0.00000000E+00	 0.00000000E+00	 0.00000000E+00
					 1.00000000E+00	 0.00000000E+00	 0.00000000E+00
					 1.00000000E+00	 1.00000000E+00	 0.00000000E+00
					 0.00000000E+00	 1.00000000E+00	 0.00000000E+00
					 0.00000000E+00	 0.00000000E+00	 8.00000000E+00
					 1.00000000E+00	 0.00000000E+00	 8.00000000E+00
					 1.00000000E+00	 1.00000000E+00	 8.00000000E+00
					 0.00000000E+00	 1.00000000E+00	 8.00000000E+00
					 2.50000000E-01	 0.00000000E+00	 0.00000000E+00
					 5.00000000E-01	 0.00000000E+00	 0.00000000E+00
					 7.50000000E-01	 0.00000000E+00	 0.00000000E+00
					 1.00000000E+00	 2.50000000E-01	 0.00000000E+00
					 1.00000000E+00	 5.00000000E-01	 0.00000000E+00
					 1.00000000E+00	 7.50000000E-01	 0.00000000E+00
					 7.50000000E-01	 1.00000000E+00	 0.00000000E+00
					 5.00000000E-01	 1.00000000E+00	 0.00000000E+00
					 2.50000000E-01	 1.00000000E+00	 0.00000000E+00
					 0.00000000E+00	 7.50000000E-01	 0.00000000E+00
					 0.00000000E+00	 5.00000000E-01	 0.00000000E+00
					 0.00000000E+00	 2.50000000E-01	 0.00000000E+00
					 2.50000000E-01	 0.00000000E+00	 8.00000000E+00
					 5.00000000E-01	 0.00000000E+00	 8.00000000E+00
					 7.50000000E-01	 0.00000000E+00	 8.00000000E+00
					 1.00000000E+00	 2.50000000E-01	 8.00000000E+00
					 1.00000000E+00	 5.00000000E-01	 8.00000000E+00
					 1.00000000E+00	 7.50000000E-01	 8.00000000E+00
					 7.50000000E-01	 1.00000000E+00	 8.00000000E+00
					 5.00000000E-01	 1.00000000E+00	 8.00000000E+00
					 2.50000000E-01	 1.00000000E+00	 8.00000000E+00
					 0.00000000E+00	 7.50000000E-01	 8.00000000E+00
					 0.00000000E+00	 5.00000000E-01	 8.00000000E+00
					 0.00000000E+00	 2.50000000E-01	 8.00000000E+00
					 1.00000000E+00	 0.00000000E+00	 5.00000000E-01
					 1.00000000E+00	 0.00000000E+00	 1.00000000E+00
					 1.00000000E+00	 0.00000000E+00	 1.50000000E+00
					 1.00000000E+00	 0.00000000E+00	 2.00000000E+00
					 1.00000000E+00	 0.00000000E+00	 2.50000000E+00
					 1.00000000E+00	 0.00000000E+00	 3.00000000E+00
					 1.00000000E+00	 0.00000000E+00	 3.50000000E+00
					 1.00000000E+00	 0.00000000E+00	 4.00000000E+00
					 1.00000000E+00	 0.00000000E+00	 4.50000000E+00
					 1.00000000E+00	 0.00000000E+00	 5.00000000E+00
					 1.00000000E+00	 0.00000000E+00	 5.50000000E+00
					 1.00000000E+00	 0.00000000E+00	 6.00000000E+00
					 1.00000000E+00	 0.00000000E+00	 6.50000000E+00
					 1.00000000E+00	 0.00000000E+00	 7.00000000E+00
					 1.00000000E+00	 0.00000000E+00	 7.50000000E+00
					 0.00000000E+00	 0.00000000E+00	 7.50000000E+00
					 0.00000000E+00	 0.00000000E+00	 7.00000000E+00
					 0.00000000E+00	 0.00000000E+00	 6.50000000E+00
					 0.00000000E+00	 0.00000000E+00	 6.00000000E+00
					 0.00000000E+00	 0.00000000E+00	 5.50000000E+00
					 0.00000000E+00	 0.00000000E+00	 5.00000000E+00
					 0.00000000E+00	 0.00000000E+00	 4.50000000E+00
					 0.00000000E+00	 0.00000000E+00	 4.00000000E+00
					 0.00000000E+00	 0.00000000E+00	 3.50000000E+00
					 0.00000000E+00	 0.00000000E+00	 3.00000000E+00
					 0.00000000E+00	 0.00000000E+00	 2.50000000E+00
					 0.00000000E+00	 0.00000000E+00	 2.00000000E+00
					 0.00000000E+00	 0.00000000E+00	 1.50000000E+00
					 0.00000000E+00	 0.00000000E+00	 1.00000000E+00
					 0.00000000E+00	 0.00000000E+00	 5.00000000E-01
					 1.00000000E+00	 1.00000000E+00	 5.00000000E-01
					 1.00000000E+00	 1.00000000E+00	 1.00000000E+00
					 1.00000000E+00	 1.00000000E+00	 1.50000000E+00
					 1.00000000E+00	 1.00000000E+00	 2.00000000E+00
					 1.00000000E+00	 1.00000000E+00	 2.50000000E+00
					 1.00000000E+00	 1.00000000E+00	 3.00000000E+00
					 1.00000000E+00	 1.00000000E+00	 3.50000000E+00
					 1.00000000E+00	 1.00000000E+00	 4.00000000E+00
					 1.00000000E+00	 1.00000000E+00	 4.50000000E+00
					 1.00000000E+00	 1.00000000E+00	 5.00000000E+00
					 1.00000000E+00	 1.00000000E+00	 5.50000000E+00
					 1.00000000E+00	 1.00000000E+00	 6.00000000E+00
					 1.00000000E+00	 1.00000000E+00	 6.50000000E+00
					 1.00000000E+00	 1.00000000E+00	 7.00000000E+00
					 1.00000000E+00	 1.00000000E+00	 7.50000000E+00
					 0.00000000E+00	 1.00000000E+00	 5.00000000E-01
					 0.00000000E+00	 1.00000000E+00	 1.00000000E+00
					 0.00000000E+00	 1.00000000E+00	 1.50000000E+00
					 0.00000000E+00	 1.00000000E+00	 2.00000000E+00
					 0.00000000E+00	 1.00000000E+00	 2.50000000E+00
					 0.00000000E+00	 1.00000000E+00	 3.00000000E+00
					 0.00000000E+00	 1.00000000E+00	 3.50000000E+00
					 0.00000000E+00	 1.00000000E+00	 4.00000000E+00
					 0.00000000E+00	 1.00000000E+00	 4.50000000E+00
					 0.00000000E+00	 1.00000000E+00	 5.00000000E+00
					 0.00000000E+00	 1.00000000E+00	 5.50000000E+00
					 0.00000000E+00	 1.00000000E+00	 6.00000000E+00
					 0.00000000E+00	 1.00000000E+00	 6.50000000E+00
					 0.00000000E+00	 1.00000000E+00	 7.00000000E+00
					 0.00000000E+00	 1.00000000E+00	 7.50000000E+00
					 5.00000000E-01	 2.50000000E-01	 0.00000000E+00
					 2.50000000E-01	 5.00000000E-01	 0.00000000E+00
					 5.00000000E-01	 5.00000000E-01	 0.00000000E+00
					 7.50000000E-01	 5.00000000E-01	 0.00000000E+00
					 5.00000000E-01	 7.50000000E-01	 0.00000000E+00
					 5.00000000E-01	 2.50000000E-01	 8.00000000E+00
					 2.50000000E-01	 5.00000000E-01	 8.00000000E+00
					 5.00000000E-01	 5.00000000E-01	 8.00000000E+00
					 7.50000000E-01	 5.00000000E-01	 8.00000000E+00
					 5.00000000E-01	 7.50000000E-01	 8.00000000E+00
					 5.00000000E-01	 0.00000000E+00	 5.00000000E-01
					 2.50000000E-01	 0.00000000E+00	 1.00000000E+00
					 5.00000000E-01	 0.00000000E+00	 1.00000000E+00
					 7.50000000E-01	 0.00000000E+00	 1.00000000E+00
					 5.00000000E-01	 0.00000000E+00	 1.50000000E+00
					 2.50000000E-01	 0.00000000E+00	 2.00000000E+00
					 5.00000000E-01	 0.00000000E+00	 2.00000000E+00
					 7.50000000E-01	 0.00000000E+00	 2.00000000E+00
					 5.00000000E-01	 0.00000000E+00	 2.50000000E+00
					 2.50000000E-01	 0.00000000E+00	 3.00000000E+00
					 5.00000000E-01	 0.00000000E+00	 3.00000000E+00
					 7.50000000E-01	 0.00000000E+00	 3.00000000E+00
					 5.00000000E-01	 0.00000000E+00	 3.50000000E+00
					 2.50000000E-01	 0.00000000E+00	 4.00000000E+00
					 5.00000000E-01	 0.00000000E+00	 4.00000000E+00
					 7.50000000E-01	 0.00000000E+00	 4.00000000E+00
					 5.00000000E-01	 0.00000000E+00	 4.50000000E+00
					 2.50000000E-01	 0.00000000E+00	 5.00000000E+00
					 5.00000000E-01	 0.00000000E+00	 5.00000000E+00
					 7.50000000E-01	 0.00000000E+00	 5.00000000E+00
					 5.00000000E-01	 0.00000000E+00	 5.50000000E+00
					 2.50000000E-01	 0.00000000E+00	 6.00000000E+00
					 5.00000000E-01	 0.00000000E+00	 6.00000000E+00
					 7.50000000E-01	 0.00000000E+00	 6.00000000E+00
					 5.00000000E-01	 0.00000000E+00	 6.50000000E+00
					 2.50000000E-01	 0.00000000E+00	 7.00000000E+00
					 5.00000000E-01	 0.00000000E+00	 7.00000000E+00
					 7.50000000E-01	 0.00000000E+00	 7.00000000E+00
					 5.00000000E-01	 0.00000000E+00	 7.50000000E+00
					 1.00000000E+00	 5.00000000E-01	 5.00000000E-01
					 1.00000000E+00	 2.50000000E-01	 1.00000000E+00
					 1.00000000E+00	 5.00000000E-01	 1.00000000E+00
					 1.00000000E+00	 7.50000000E-01	 1.00000000E+00
					 1.00000000E+00	 5.00000000E-01	 1.50000000E+00
					 1.00000000E+00	 2.50000000E-01	 2.00000000E+00
					 1.00000000E+00	 5.00000000E-01	 2.00000000E+00
					 1.00000000E+00	 7.50000000E-01	 2.00000000E+00
					 1.00000000E+00	 5.00000000E-01	 2.50000000E+00
					 1.00000000E+00	 2.50000000E-01	 3.00000000E+00
					 1.00000000E+00	 5.00000000E-01	 3.00000000E+00
					 1.00000000E+00	 7.50000000E-01	 3.00000000E+00
					 1.00000000E+00	 5.00000000E-01	 3.50000000E+00
					 1.00000000E+00	 2.50000000E-01	 4.00000000E+00
					 1.00000000E+00	 5.00000000E-01	 4.00000000E+00
					 1.00000000E+00	 7.50000000E-01	 4.00000000E+00
					 1.00000000E+00	 5.00000000E-01	 4.50000000E+00
					 1.00000000E+00	 2.50000000E-01	 5.00000000E+00
					 1.00000000E+00	 5.00000000E-01	 5.00000000E+00
					 1.00000000E+00	 7.50000000E-01	 5.00000000E+00
					 1.00000000E+00	 5.00000000E-01	 5.50000000E+00
					 1.00000000E+00	 2.50000000E-01	 6.00000000E+00
					 1.00000000E+00	 5.00000000E-01	 6.00000000E+00
					 1.00000000E+00	 7.50000000E-01	 6.00000000E+00
					 1.00000000E+00	 5.00000000E-01	 6.50000000E+00
					 1.00000000E+00	 2.50000000E-01	 7.00000000E+00
					 1.00000000E+00	 5.00000000E-01	 7.00000000E+00
					 1.00000000E+00	 7.50000000E-01	 7.00000000E+00
					 1.00000000E+00	 5.00000000E-01	 7.50000000E+00
					 5.00000000E-01	 1.00000000E+00	 5.00000000E-01
					 7.50000000E-01	 1.00000000E+00	 1.00000000E+00
					 5.00000000E-01	 1.00000000E+00	 1.00000000E+00
					 2.50000000E-01	 1.00000000E+00	 1.00000000E+00
					 5.00000000E-01	 1.00000000E+00	 1.50000000E+00
					 7.50000000E-01	 1.00000000E+00	 2.00000000E+00
					 5.00000000E-01	 1.00000000E+00	 2.00000000E+00
					 2.50000000E-01	 1.00000000E+00	 2.00000000E+00
					 5.00000000E-01	 1.00000000E+00	 2.50000000E+00
					 7.50000000E-01	 1.00000000E+00	 3.00000000E+00
					 5.00000000E-01	 1.00000000E+00	 3.00000000E+00
					 2.50000000E-01	 1.00000000E+00	 3.00000000E+00
					 5.00000000E-01	 1.00000000E+00	 3.50000000E+00
					 7.50000000E-01	 1.00000000E+00	 4.00000000E+00
					 5.00000000E-01	 1.00000000E+00	 4.00000000E+00
					 2.50000000E-01	 1.00000000E+00	 4.00000000E+00
					 5.00000000E-01	 1.00000000E+00	 4.50000000E+00
					 7.50000000E-01	 1.00000000E+00	 5.00000000E+00
					 5.00000000E-01	 1.00000000E+00	 5.00000000E+00
					 2.50000000E-01	 1.00000000E+00	 5.00000000E+00
					 5.00000000E-01	 1.00000000E+00	 5.50000000E+00
					 7.50000000E-01	 1.00000000E+00	 6.00000000E+00
					 5.00000000E-01	 1.00000000E+00	 6.00000000E+00
					 2.50000000E-01	 1.00000000E+00	 6.00000000E+00
					 5.00000000E-01	 1.00000000E+00	 6.50000000E+00
					 7.50000000E-01	 1.00000000E+00	 7.00000000E+00
					 5.00000000E-01	 1.00000000E+00	 7.00000000E+00
					 2.50000000E-01	 1.00000000E+00	 7.00000000E+00
					 5.00000000E-01	 1.00000000E+00	 7.50000000E+00
					 0.00000000E+00	 5.00000000E-01	 5.00000000E-01
					 0.00000000E+00	 7.50000000E-01	 1.00000000E+00
					 0.00000000E+00	 5.00000000E-01	 1.00000000E+00
					 0.00000000E+00	 2.50000000E-01	 1.00000000E+00
					 0.00000000E+00	 5.00000000E-01	 1.50000000E+00
					 0.00000000E+00	 7.50000000E-01	 2.00000000E+00
					 0.00000000E+00	 5.00000000E-01	 2.00000000E+00
					 0.00000000E+00	 2.50000000E-01	 2.00000000E+00
					 0.00000000E+00	 5.00000000E-01	 2.50000000E+00
					 0.00000000E+00	 7.50000000E-01	 3.00000000E+00
					 0.00000000E+00	 5.00000000E-01	 3.00000000E+00
					 0.00000000E+00	 2.50000000E-01	 3.00000000E+00
					 0.00000000E+00	 5.00000000E-01	 3.50000000E+00
					 0.00000000E+00	 7.50000000E-01	 4.00000000E+00
					 0.00000000E+00	 5.00000000E-01	 4.00000000E+00
					 0.00000000E+00	 2.50000000E-01	 4.00000000E+00
					 0.00000000E+00	 5.00000000E-01	 4.50000000E+00
					 0.00000000E+00	 7.50000000E-01	 5.00000000E+00
					 0.00000000E+00	 5.00000000E-01	 5.00000000E+00
					 0.00000000E+00	 2.50000000E-01	 5.00000000E+00
					 0.00000000E+00	 5.00000000E-01	 5.50000000E+00
					 0.00000000E+00	 7.50000000E-01	 6.00000000E+00
					 0.00000000E+00	 5.00000000E-01	 6.00000000E+00
					 0.00000000E+00	 2.50000000E-01	 6.00000000E+00
					 0.00000000E+00	 5.00000000E-01	 6.50000000E+00
					 0.00000000E+00	 7.50000000E-01	 7.00000000E+00
					 0.00000000E+00	 5.00000000E-01	 7.00000000E+00
					 0.00000000E+00	 2.50000000E-01	 7.00000000E+00
					 0.00000000E+00	 5.00000000E-01	 7.50000000E+00
					 5.00000000E-01	 5.00000000E-01	 5.00000000E-01
					 5.00000000E-01	 2.50000000E-01	 1.00000000E+00
					 2.50000000E-01	 5.00000000E-01	 1.00000000E+00
					 5.00000000E-01	 5.00000000E-01	 1.00000000E+00
					 7.50000000E-01	 5.00000000E-01	 1.00000000E+00
					 5.00000000E-01	 7.50000000E-01	 1.00000000E+00
					 5.00000000E-01	 5.00000000E-01	 1.50000000E+00
					 5.00000000E-01	 2.50000000E-01	 2.00000000E+00
					 2.50000000E-01	 5.00000000E-01	 2.00000000E+00
					 5.00000000E-01	 5.00000000E-01	 2.00000000E+00
					 7.50000000E-01	 5.00000000E-01	 2.00000000E+00
					 5.00000000E-01	 7.50000000E-01	 2.00000000E+00
					 5.00000000E-01	 5.00000000E-01	 2.50000000E+00
					 5.00000000E-01	 2.50000000E-01	 3.00000000E+00
					 2.50000000E-01	 5.00000000E-01	 3.00000000E+00
					 5.00000000E-01	 5.00000000E-01	 3.00000000E+00
					 7.50000000E-01	 5.00000000E-01	 3.00000000E+00
					 5.00000000E-01	 7.50000000E-01	 3.00000000E+00
					 5.00000000E-01	 5.00000000E-01	 3.50000000E+00
					 5.00000000E-01	 2.50000000E-01	 4.00000000E+00
					 2.50000000E-01	 5.00000000E-01	 4.00000000E+00
					 5.00000000E-01	 5.00000000E-01	 4.00000000E+00
					 7.50000000E-01	 5.00000000E-01	 4.00000000E+00
					 5.00000000E-01	 7.50000000E-01	 4.00000000E+00
					 5.00000000E-01	 5.00000000E-01	 4.50000000E+00
					 5.00000000E-01	 2.50000000E-01	 5.00000000E+00
					 2.50000000E-01	 5.00000000E-01	 5.00000000E+00
					 5.00000000E-01	 5.00000000E-01	 5.00000000E+00
					 7.50000000E-01	 5.00000000E-01	 5.00000000E+00
					 5.00000000E-01	 7.50000000E-01	 5.00000000E+00
					 5.00000000E-01	 5.00000000E-01	 5.50000000E+00
					 5.00000000E-01	 2.50000000E-01	 6.00000000E+00
					 2.50000000E-01	 5.00000000E-01	 6.00000000E+00
					 5.00000000E-01	 5.00000000E-01	 6.00000000E+00
					 7.50000000E-01	 5.00000000E-01	 6.00000000E+00
					 5.00000000E-01	 7.50000000E-01	 6.00000000E+00
					 5.00000000E-01	 5.00000000E-01	 6.50000000E+00
					 5.00000000E-01	 2.50000000E-01	 7.00000000E+00
					 2.50000000E-01	 5.00000000E-01	 7.00000000E+00
					 5.00000000E-01	 5.00000000E-01	 7.00000000E+00
					 7.50000000E-01	 5.00000000E-01	 7.00000000E+00
					 5.00000000E-01	 7.50000000E-01	 7.00000000E+00
					 5.00000000E-01	 5.00000000E-01	 7.50000000E+00

				</DataArray>
			</Points>
			<Cells>
				<DataArray type="Int32" Name="connectivity" format="ascii">
					0 9 94 18 60 104 221 191 8 92 93 19 103 219 220 192 61 102 218 189 9 1 12 94 104 33 133 221 10 11 95 92 105 132 222 219 102 32 131 218 18 94 15 3 191 221 162 78 93 96 16 17 220 223 163 190 189 218 160 77 94 12 2 15 221 133 63 162 95 13 14 96 222 134 161 223 218 131 62 160 60 104 221 191 58 108 227 195 103 219 220 192 107 225 226 196 59 106 224 193 104 33 133 221 108 35 137 227 105 132 222 219 109 136 228 225 106 34 135 224 191 221 162 78 195 227 166 80 220 223 163 190 226 229 167 194 193 224 164 79 221 133 63 162 227 137 65 166 222 134 161 223 228 138 165 229 224 135 64 164 58 108 227 195 56 112 233 199 107 225 226 196 111 231 232 200 57 110 230 197 108 35 137 227 112 37 141 233 109 136 228 225 113 140 234 231 110 36 139 230 195 227 166 80 199 233 170 82 226 229 167 194 232 235 171 198 197 230 168 81 227 137 65 166 233 141 67 170 228 138 165 229 234 142 169 235 230 139 66 168 56 112 233 199 54 116 239 203 111 231 232 200 115 237 238 204 55 114 236 201 112 37 141 233 116 39 145 239 113 140 234 231 117 144 240 237 114 38 143 236 199 233 170 82 203 239 174 84 232 235 171 198 238 241 175 202 201 236 172 83 233 141 67 170 239 145 69 174 234 142 169 235 240 146 173 241 236 143 68 172 54 116 239 203 52 120 245 207 115 237 238 204 119 243 244 208 53 118 242 205 116 39 145 239 120 41 149 245 117 144 240 237 121 148 246 243 118 40 147 242 203 239 174 84 207 245 178 86 238 241 175 202 244 247 179 206 205 242 176 85 239 145 69 174 245 149 71 178 240 146 173 241 246 150 177 247 242 147 70 176 52 120 245 207 50 124 251 211 119 243 244 208 123 249 250 212 51 122 248 209 120 41 149 245 124 43 153 251 121 148 246 243 125 152 252 249 122 42 151 248 207 245 178 86 211 251 182 88 244 247 179 206 250 253 183 210 209 248 180 87 245 149 71 178 251 153 73 182 246 150 177 247 252 154 181 253 248 151 72 180 50 124 251 211 48 128 257 215 123 249 250 212 127 255 256 216 49 126 254 213 124 43 153 251 128 45 157 257 125 152 252 249 129 156 258 255 126 44 155 254 211 251 182 88 215 257 186 90 250 253 183 210 256 259 187 214 213 254 184 89 251 153 73 182 257 157 75 186 252 154 181 253 258 158 185 259 254 155 74 184 48 128 257 215 4 21 99 30 127 255 256 216 20 97 98 31 47 130 260 217 128 45 157 257 21 5 24 99 129 156 258 255 22 23 100 97 130 46 159 260 215 257 186 90 30 99 27 7 256 259 187 214 98 101 28 29 217 260 188 91 257 157 75 186 99 24 6 27 258 158 185 259 100 25 26 101 260 159 76 188 
				</DataArray>
				<DataArray type="Int32" Name="offsets" format="ascii">
					20 40 60 80 100 120 140 160 180 200 220 240 260 280 300 320 340 360 380 400 420 440 460 480 500 520 540 560 580 600 620 640 
				</DataArray>
				<DataArray type="UInt8" Name="types" format="ascii">
					25 25 25 25 25 25 25 25 25 25 25 25 25 25 25 25 25 25 25 25 25 25 25 25 25 25 25 25 25 25 25 25 
				</DataArray>
			</Cells>
			<PointData>
				<DataArray type="Float32" Name="U" NumberOfComponents="3" ComponentName0="D1" ComponentName1="D2" ComponentName2="D3" format="ascii">
					 0.00000000E+00	 0.00000000E+00	 0.00000000E+00
					 0.00000000E+00	 0.00000000E+00	 0.00000000E+00
					 0.00000000E+00	 0.00000000E+00	 0.00000000E+00
					 0.00000000E+00	 0.00000000E+00	 0.00000000E+00
					 1.05573000E-05	 3.12581000E-03	 8.61225000E-04
					-1.02124000E-05	 3.12607000E-03	 8.61751000E-04
					 1.06989000E-05	 3.12124000E-03	-8.64526000E-04
					-1.07854000E-05	 3.12381000E-03	-8.65115000E-04
					 0.00000000E+00	 0.00000000E+00	 0.00000000E+00
					 0.00000000E+00	 0.00000000E+00	 0.00000000E+00
					 0.00000000E+00	 0.00000000E+00	 0.00000000E+00
					 0.00000000E+00	 0.00000000E+00	 0.00000000E+00
					 0.00000000E+00	 0.00000000E+00	 0.00000000E+00
					 0.00000000E+00	 0.00000000E+00	 0.00000000E+00
					 0.00000000E+00	 0.00000000E+00	 0.00000000E+00
					 0.00000000E+00	 0.00000000E+00	 0.00000000E+00
					 0.00000000E+00	 0.00000000E+00	 0.00000000E+00
					 0.00000000E+00	 0.00000000E+00	 0.00000000E+00
					 0.00000000E+00	 0.00000000E+00	 0.00000000E+00
					 0.00000000E+00	 0.00000000E+00	 0.00000000E+00
					 7.79528000E-06	 3.13607000E-03	 8.68201000E-04
					 3.63329000E-08	 3.11973000E-03	 8.69937000E-04
					-7.65052000E-06	 3.13607000E-03	 8.68719000E-04
					 1.28503000E-06	 3.11701000E-03	 4.20114000E-04
					-2.87462000E-07	 3.10212000E-03	-1.89078000E-06
					-8.10620000E-07	 3.11451000E-03	-4.24299000E-04
					 7.69288000E-06	 3.13319000E-03	-8.71466000E-04
					-1.19856000E-07	 3.11994000E-03	-8.73949000E-04
					-7.82078000E-06	 3.13513000E-03	-8.72190000E-04
					 1.24125000E-06	 3.11476000E-03	-4.23437000E-04
					 1.74528000E-07	 3.09982000E-03	-1.76636000E-06
					-1.29541000E-06	 3.11572000E-03	 4.19680000E-04
					 1.03434000E-06	 9.06694000E-07	-2.34767000E-06
					 1.68251000E-06	-1.28997000E-06	-6.94767000E-06
					 2.37781000E-06	-1.02907000E-05	-1.42257000E-05
					 2.66267000E-06	-2.79143000E-05	-2.29602000E-05
					 2.26632000E-06	-5.78840000E-05	-3.21943000E-05
					 5.41579000E-07	-9.84131000E-05	-3.76925000E-05
					-3.12561000E-06	-1.48851000E-04	-3.50410000E-05
					-9.57745000E-06	-1.94181000E-04	-1.51387000E-05
					-1.87882000E-05	-2.18570000E-04	 3.05311000E-05
					-3.03863000E-05	-1.81913000E-04	 1.11904000E-04
					-4.25195000E-05	-5.11577000E-05	 2.34396000E-04
					-5.10300000E-05	 2.39298000E-04	 3.93813000E-04
					-5.34486000E-05	 7.15511000E-04	 5.69099000E-04
					-3.95535000E-05	 1.41199000E-03	 7.33455000E-04
					-2.63649000E-05	 2.22892000E-03	 8.31030000E-04
					 2.61871000E-05	 2.22872000E-03	 8.30636000E-04
					 4.01949000E-05	 1.41040000E-03	 7.32898000E-04
					 5.41283000E-05	 7.14515000E-04	 5.68778000E-04
					 5.14798000E-05	 2.39170000E-04	 3.93912000E-04
					 4.24266000E-05	-5.12050000E-05	 2.34333000E-04
					 3.02247000E-05	-1.81537000E-04	 1.11976000E-04
					 1.85350000E-05	-2.18389000E-04	 3.05139000E-05
					 9.37008000E-06	-1.93860000E-04	-1.51120000E-05
					 2.87603000E-06	-1.48632000E-04	-3.50433000E-05
					-7.43263000E-07	-9.81673000E-05	-3.76792000E-05
					-2.45056000E-06	-5.77180000E-05	-3.21958000E-05
					-2.79635000E-06	-2.77652000E-05	-2.29567000E-05
					-2.48334000E-06	-1.01936000E-05	-1.42276000E-05
					-1.74561000E-06	-1.22184000E-06	-6.94676000E-06
					-1.06491000E-06	 9.34905000E-07	-2.34910000E-06
					-1.04763000E-06	 8.94056000E-07	 2.38491000E-06
					-1.69403000E-06	-1.30050000E-06	 7.02146000E-06
					-2.39388000E-06	-1.03030000E-05	 1.43406000E-05
					-2.67981000E-06	-2.79318000E-05	 2.31146000E-05
					-2.28424000E-06	-5.78989000E-05	 3.23971000E-05
					-5.62964000E-07	-9.84444000E-05	 3.79393000E-05
					 3.10696000E-06	-1.48860000E-04	 3.53386000E-05
					 9.55364000E-06	-1.94258000E-04	 1.54726000E-05
					 1.88102000E-05	-2.18577000E-04	-3.00642000E-05
					 3.03779000E-05	-1.82208000E-04	-1.11313000E-04
					 4.24612000E-05	-5.11249000E-05	-2.33920000E-04
					 5.10624000E-05	 2.38157000E-04	-3.93648000E-04
					 5.36217000E-05	 7.15183000E-04	-5.69104000E-04
					 4.09251000E-05	 1.40666000E-03	-7.32303000E-04
					 2.51377000E-05	 2.23031000E-03	-8.31906000E-04
					 1.07648000E-06	 9.22668000E-07	 2.38486000E-06
					 1.75501000E-06	-1.23264000E-06	 7.01923000E-06
					 2.49156000E-06	-1.02061000E-05	 1.43407000E-05
					 2.80992000E-06	-2.77824000E-05	 2.31120000E-05
					 2.45707000E-06	-5.77335000E-05	 3.23982000E-05
					 7.68302000E-07	-9.81983000E-05	 3.79328000E-05
					-2.86482000E-06	-1.48644000E-04	 3.53515000E-05
					-9.30622000E-06	-1.93912000E-04	 1.54793000E-05
					-1.85313000E-05	-2.18396000E-04	-3.00848000E-05
					-3.01534000E-05	-1.81695000E-04	-1.11457000E-04
					-4.24585000E-05	-5.12981000E-05	-2.33835000E-04
					-5.13912000E-05	 2.38602000E-04	-3.93475000E-04
					-5.42501000E-05	 7.13828000E-04	-5.69000000E-04
					-4.13002000E-05	 1.40861000E-03	-7.33916000E-04
					-2.61065000E-05	 2.22765000E-03	-8.32815000E-04
					 0.00000000E+00	 0.00000000E+00	 0.00000000E+00
					 0.00000000E+00	 0.00000000E+00	 0.00000000E+00
					 0.00000000E+00	 0.00000000E+00	 0.00000000E+00
					 0.00000000E+00	 0.00000000E+00	 0.00000000E+00
					 0.00000000E+00	 0.00000000E+00	 0.00000000E+00
					 6.19353000E-09	 3.16634000E-03	 4.36968000E-04
					-3.82756000E-08	 3.14043000E-03	-1.85469000E-06
					-9.21587000E-08	 3.21975000E-03	-1.85640000E-06
					-4.11666000E-08	 3.14192000E-03	-2.05700000E-06
					-1.54961000E-07	 3.16633000E-03	-4.40592000E-04
					-1.54936000E-08	 4.70229000E-07	-2.13401000E-06
					-8.84492000E-07	-2.00028000E-06	-6.79708000E-06
					-3.40522000E-08	-2.31334000E-06	-6.90357000E-06
					 8.18923000E-07	-2.03428000E-06	-6.80405000E-06
					-5.08805000E-08	-1.13081000E-05	-1.40977000E-05
					-1.42882000E-06	-2.90838000E-05	-2.29984000E-05
					-7.40402000E-08	-2.96778000E-05	-2.30755000E-05
					 1.28799000E-06	-2.91591000E-05	-2.30054000E-05
					-8.70075000E-08	-5.86455000E-05	-3.23465000E-05
					-4.26451000E-07	-9.91806000E-05	-3.83640000E-05
					-1.13528000E-07	-9.97430000E-05	-3.85033000E-05
					 2.11690000E-07	-9.93007000E-05	-3.83774000E-05
					-1.16769000E-07	-1.46429000E-04	-3.59921000E-05
					 4.62504000E-06	-1.91599000E-04	-1.72237000E-05
					-1.43005000E-07	-1.91730000E-04	-1.73166000E-05
					-4.87093000E-06	-1.91771000E-04	-1.72328000E-05
					-9.57036000E-08	-2.07531000E-04	 2.86900000E-05
					 1.50095000E-05	-1.73897000E-04	 1.08463000E-04
					-1.14861000E-07	-1.72549000E-04	 1.08070000E-04
					-1.52069000E-05	-1.74045000E-04	 1.08412000E-04
					-1.84696000E-08	-2.55689000E-05	 2.32781000E-04
					 2.58036000E-05	 2.55669000E-04	 3.90226000E-04
					-1.97534000E-08	 2.54428000E-04	 3.88965000E-04
					-2.55975000E-05	 2.55608000E-04	 3.90336000E-04
					 5.60953000E-07	 7.48876000E-04	 5.72974000E-04
					 2.04266000E-05	 1.40921000E-03	 7.34387000E-04
					 4.23081000E-07	 1.40851000E-03	 7.31002000E-04
					-1.96451000E-05	 1.41036000E-03	 7.34559000E-04
					 1.06077000E-07	 2.25962000E-03	 8.37557000E-04
					-6.53552000E-09	 1.66249000E-06	 1.73975000E-08
					 8.43898000E-07	-7.51558000E-07	-3.91130000E-06
					-6.40899000E-09	-6.84812000E-07	 3.77195000E-08
					-8.56048000E-07	-7.56934000E-07	 3.98595000E-06
					-7.51167000E-09	-9.00853000E-06	 5.69631000E-08
					 1.32010000E-06	-2.71230000E-05	-1.14456000E-05
					-9.65905000E-09	-2.71021000E-05	 7.95503000E-08
					-1.33825000E-06	-2.71315000E-05	 1.16017000E-05
					-8.72710000E-09	-5.67417000E-05	 9.84693000E-08
					 2.36951000E-07	-9.86848000E-05	-1.74408000E-05
					-1.06706000E-08	-9.93271000E-05	 1.25323000E-07
					-2.59062000E-07	-9.87009000E-05	 1.76912000E-05
					-7.77619000E-09	-1.50332000E-04	 1.46700000E-07
					-4.78655000E-06	-1.98501000E-04	-3.36294000E-06
					-1.11507000E-08	-2.00867000E-04	 1.96167000E-07
					 4.76797000E-06	-1.98539000E-04	 3.72289000E-06
					-4.69427000E-09	-2.27630000E-04	 1.93133000E-07
					-1.53818000E-05	-1.96079000E-04	 6.27250000E-05
					-4.73599000E-09	-2.02476000E-04	 2.37502000E-07
					 1.53487000E-05	-1.96229000E-04	-6.21763000E-05
					 4.02457000E-09	-6.74358000E-05	 2.25483000E-07
					-2.48307000E-05	 2.16830000E-04	 2.00185000E-04
					-1.11604000E-07	 2.07331000E-04	 3.77288000E-07
					 2.48438000E-05	 2.16213000E-04	-1.99664000E-04
					-7.86527000E-08	 6.95491000E-04	-4.15453000E-07
					-2.20275000E-05	 1.37791000E-03	 3.58641000E-04
					-3.42053000E-07	 1.35750000E-03	-1.71181000E-06
					 2.21418000E-05	 1.37529000E-03	-3.58861000E-04
					 2.89110000E-07	 2.24213000E-03	-1.75059000E-06
					 1.51130000E-08	 4.57617000E-07	 2.16850000E-06
					-8.26028000E-07	-2.04452000E-06	 6.87771000E-06
					 3.13890000E-08	-2.32305000E-06	 6.97784000E-06
					 8.87795000E-07	-2.01048000E-06	 6.87022000E-06
					 4.80623000E-08	-1.13215000E-05	 1.42105000E-05
					-1.30006000E-06	-2.91733000E-05	 2.31612000E-05
					 6.68808000E-08	-2.96897000E-05	 2.32319000E-05
					 1.43225000E-06	-2.90986000E-05	 2.31547000E-05
					 8.49183000E-08	-5.86644000E-05	 3.25466000E-05
					-2.27013000E-07	-9.93216000E-05	 3.86239000E-05
					 1.04600000E-07	-9.97515000E-05	 3.87566000E-05
					 4.33323000E-07	-9.91993000E-05	 3.86156000E-05
					 1.20672000E-07	-1.46457000E-04	 3.62904000E-05
					 4.85193000E-06	-1.91800000E-04	 1.75995000E-05
					 1.28361000E-07	-1.91713000E-04	 1.76864000E-05
					-4.59734000E-06	-1.91621000E-04	 1.75963000E-05
					 1.33576000E-07	-2.07592000E-04	-2.82613000E-05
					 1.51930000E-05	-1.74119000E-04	-1.07919000E-04
					 8.33399000E-08	-1.72423000E-04	-1.07566000E-04
					-1.50021000E-05	-1.73893000E-04	-1.07965000E-04
					 4.86863000E-08	-2.58448000E-05	-2.32310000E-04
					 2.55226000E-05	 2.55093000E-04	-3.89950000E-04
					-1.49769000E-07	 2.54683000E-04	-3.88862000E-04
					-2.58343000E-05	 2.55465000E-04	-3.89946000E-04
					-2.80220000E-07	 7.47609000E-04	-5.72813000E-04
					 2.04901000E-05	 1.40860000E-03	-7.35188000E-04
					-4.82820000E-07	 1.40957000E-03	-7.32308000E-04
					-2.11399000E-05	 1.40915000E-03	-7.35677000E-04
					-1.35882000E-07	 2.25703000E-03	-8.40145000E-04
					 6.02319000E-09	 1.69389000E-06	 1.69236000E-08
					 8.85011000E-07	-6.92880000E-07	 3.99060000E-06
					 3.27929000E-09	-6.24620000E-07	 3.63711000E-08
					-8.76984000E-07	-6.87491000E-07	-3.91820000E-06
					 5.29159000E-09	-8.90537000E-06	 5.62339000E-08
					 1.39984000E-06	-2.69941000E-05	 1.16052000E-05
					 2.08313000E-09	-2.69762000E-05	 7.80799000E-08
					-1.39127000E-06	-2.69854000E-05	-1.14495000E-05
					 6.99015000E-09	-5.65592000E-05	 1.00569000E-07
					 3.54679000E-07	-9.84869000E-05	 1.76949000E-05
					 0.00000000E+00	-9.91469000E-05	 1.26138000E-07
					-3.41189000E-07	-9.84721000E-05	-1.74424000E-05
					 1.53056000E-08	-1.50069000E-04	 1.52271000E-07
					-4.64361000E-06	-1.98276000E-04	 3.71699000E-06
					-1.21219000E-09	-2.00686000E-04	 1.85177000E-07
					 4.66955000E-06	-1.98250000E-04	-3.34720000E-06
					 2.65981000E-08	-2.27335000E-04	 2.13017000E-07
					-1.52734000E-05	-1.95991000E-04	-6.22215000E-05
					-2.58617000E-08	-2.02509000E-04	 2.41012000E-07
					 1.53047000E-05	-1.95914000E-04	 6.27167000E-05
					 3.72069000E-08	-6.72344000E-05	 2.46972000E-07
					-2.49791000E-05	 2.16082000E-04	-1.99856000E-04
					-6.84794000E-09	 2.06556000E-04	 2.05507000E-07
					 2.49510000E-05	 2.16399000E-04	 2.00328000E-04
					 1.99870000E-08	 6.95418000E-04	 7.35191000E-08
					-2.23761000E-05	 1.37457000E-03	-3.58507000E-04
					 2.24833000E-07	 1.35434000E-03	-3.61928000E-07
					 2.23786000E-05	 1.37547000E-03	 3.57758000E-04
					-6.17337000E-08	 2.24321000E-03	-1.16801000E-06
					 0.00000000E+00	 1.11637000E-06	 1.62867000E-08
					-1.72577000E-08	-1.58329000E-06	-3.78697000E-06
					 1.47557000E-09	-1.21186000E-06	 3.66860000E-08
					 0.00000000E+00	-1.33665000E-06	 3.69672000E-08
					-3.36083000E-09	-1.24196000E-06	 3.72675000E-08
					 1.54967000E-08	-1.58816000E-06	 3.86089000E-06
					-2.07889000E-09	-1.02573000E-05	 5.66094000E-08
					-3.69378000E-08	-2.83974000E-05	-1.14953000E-05
					 0.00000000E+00	-2.78175000E-05	 7.72611000E-08
					 0.00000000E+00	-2.78885000E-05	 7.69822000E-08
					-5.00154000E-09	-2.78804000E-05	 7.79147000E-08
					 3.33342000E-08	-2.84032000E-05	 1.16503000E-05
					-3.46927000E-09	-5.80168000E-05	 1.00122000E-07
					-5.60677000E-08	-9.88130000E-05	-1.80944000E-05
					 1.66723000E-09	-9.88479000E-05	 1.23895000E-07
					 3.42815000E-09	-9.83707000E-05	 1.20436000E-07
					-3.62221000E-09	-9.89384000E-05	 1.23914000E-07
					 5.39909000E-08	-9.88171000E-05	 1.83422000E-05
					-2.96516000E-09	-1.49147000E-04	 1.54747000E-07
					-5.80232000E-08	-1.93562000E-04	-5.27950000E-06
					 6.90488000E-09	-1.96185000E-04	 1.78770000E-07
					 1.61908000E-08	-1.93281000E-04	 1.78291000E-07
					 2.29535000E-09	-1.96273000E-04	 1.82225000E-07
					 7.14169000E-08	-1.93553000E-04	 5.63506000E-06