<?xml version="1.0"?>
<VTKFile type="UnstructuredGrid" version="0.1" byte_order="LittleEndian">
	<UnstructuredGrid>
		<Piece NumberOfPoints="261" NumberOfCells="32">
			<Points>
				<DataArray type="Float64" NumberOfComponents="3" format="ascii">
					 0.00000000E+00	 0.00000000E+00	 0.00000000E+00
					 1.00000000E+00	 0.00000000E+00	 0.00000000E+00
					 1.00000000E+00	 1.50000000E+00	 0.00000000E+00
					 0.00000000E+00	 1.50000000E+00	 0.00000000E+00
					 0.00000000E+00	 0.00000000E+00	 8.00000000E+00
					 1.00000000E+00	 0.00000000E+00	 8.00000000E+00
					 1.00000000E+00	 1.50000000E+00	 8.00000000E+00
					 0.00000000E+00	 1.50000000E+00	 8.00000000E+00
					 2.50000000E-01	 0.00000000E+00	 0.00000000E+00
					 5.00000000E-01	 0.00000000E+00	 0.00000000E+00
					 7.50000000E-01	 0.00000000E+00	 0.00000000E+00
					 1.00000000E+00	 3.75000000E-01	 0.00000000E+00
					 1.00000000E+00	 7.50000000E-01	 0.00000000E+00
					 1.00000000E+00	 1.12500000E+00	 0.00000000E+00
					 7.50000000E-01	 1.50000000E+00	 0.00000000E+00
					 5.00000000E-01	 1.50000000E+00	 0.00000000E+00
					 2.50000000E-01	 1.50000000E+00	 0.00000000E+00
					 0.00000000E+00	 1.12500000E+00	 0.00000000E+00
					 0.00000000E+00	 7.50000000E-01	 0.00000000E+00
					 0.00000000E+00	 3.75000000E-01	 0.00000000E+00
					 2.50000000E-01	 0.00000000E+00	 8.00000000E+00
					 5.00000000E-01	 0.00000000E+00	 8.00000000E+00
					 7.50000000E-01	 0.00000000E+00	 8.00000000E+00
					 1.00000000E+00	 3.75000000E-01	 8.00000000E+00
					 1.00000000E+00	 7.50000000E-01	 8.00000000E+00
					 1.00000000E+00	 1.12500000E+00	 8.00000000E+00
					 7.50000000E-01	 1.50000000E+00	 8.00000000E+00
					 5.00000000E-01	 1.50000000E+00	 8.00000000E+00
					 2.50000000E-01	 1.50000000E+00	 8.00000000E+00
					 0.00000000E+00	 1.12500000E+00	 8.00000000E+00
					 0.00000000E+00	 7.50000000E-01	 8.00000000E+00
					 0.00000000E+00	 3.75000000E-01	 8.00000000E+00
					 1.00000000E+00	 0.00000000E+00	 5.00000000E-01
					 1.00000000E+00	 0.00000000E+00	 1.00000000E+00
					 1.00000000E+00	 0.00000000E+00	 1.50000000E+00
					 1.00000000E+00	 0.00000000E+00	 2.00000000E+00
					 1.00000000E+00	 0.00000000E+00	 2.50000000E+00
					 1.00000000E+00	 0.00000000E+00	 3.00000000E+00
					 1.00000000E+00	 0.00000000E+00	 3.50000000E+00
					 1.00000000E+00	 0.00000000E+00	 4.00000000E+00
					 1.00000000E+00	 0.00000000E+00	 4.50000000E+00
					 1.00000000E+00	 0.00000000E+00	 5.00000000E+00
					 1.00000000E+00	 0.00000000E+00	 5.50000000E+00
					 1.00000000E+00	 0.00000000E+00	 6.00000000E+00
					 1.00000000E+00	 0.00000000E+00	 6.50000000E+00
					 1.00000000E+00	 0.00000000E+00	 7.00000000E+00
					 1.00000000E+00	 0.00000000E+00	 7.50000000E+00
					 0.00000000E+00	 0.00000000E+00	 7.50000000E+00
					 0.00000000E+00	 0.00000000E+00	 7.00000000E+00
					 0.00000000E+00	 0.00000000E+00	 6.50000000E+00
					 0.00000000E+00	 0.00000000E+00	 6.00000000E+00
					 0.00000000E+00	 0.00000000E+00	 5.50000000E+00
					 0.00000000E+00	 0.00000000E+00	 5.00000000E+00
					 0.00000000E+00	 0.00000000E+00	 4.50000000E+00
					 0.00000000E+00	 0.00000000E+00	 4.00000000E+00
					 0.00000000E+00	 0.00000000E+00	 3.50000000E+00
					 0.00000000E+00	 0.00000000E+00	 3.00000000E+00
					 0.00000000E+00	 0.00000000E+00	 2.50000000E+00
					 0.00000000E+00	 0.00000000E+00	 2.00000000E+00
					 0.00000000E+00	 0.00000000E+00	 1.50000000E+00
					 0.00000000E+00	 0.00000000E+00	 1.00000000E+00
					 0.00000000E+00	 0.00000000E+00	 5.00000000E-01
					 1.00000000E+00	 1.50000000E+00	 5.00000000E-01
					 1.00000000E+00	 1.50000000E+00	 1.00000000E+00
					 1.00000000E+00	 1.50000000E+00	 1.50000000E+00
					 1.00000000E+00	 1.50000000E+00	 2.00000000E+00
					 1.00000000E+00	 1.50000000E+00	 2.50000000E+00
					 1.00000000E+00	 1.50000000E+00	 3.00000000E+00
					 1.00000000E+00	 1.50000000E+00	 3.50000000E+00
					 1.00000000E+00	 1.50000000E+00	 4.00000000E+00
					 1.00000000E+00	 1.50000000E+00	 4.50000000E+00
					 1.00000000E+00	 1.50000000E+00	 5.00000000E+00
					 1.00000000E+00	 1.50000000E+00	 5.50000000E+00
					 1.00000000E+00	 1.50000000E+00	 6.00000000E+00
					 1.00000000E+00	 1.50000000E+00	 6.50000000E+00
					 1.00000000E+00	 1.50000000E+00	 7.00000000E+00
					 1.00000000E+00	 1.50000000E+00	 7.50000000E+00
					 0.00000000E+00	 1.50000000E+00	 5.00000000E-01
					 0.00000000E+00	 1.50000000E+00	 1.00000000E+00
					 0.00000000E+00	 1.50000000E+00	 1.50000000E+00
					 0.00000000E+00	 1.50000000E+00	 2.00000000E+00
					 0.00000000E+00	 1.50000000E+00	 2.50000000E+00
					 0.00000000E+00	 1.50000000E+00	 3.00000000E+00
					 0.00000000E+00	 1.50000000E+00	 3.50000000E+00
					 0.00000000E+00	 1.50000000E+00	 4.00000000E+00
					 0.00000000E+00	 1.50000000E+00	 4.50000000E+00
					 0.00000000E+00	 1.50000000E+00	 5.00000000E+00
					 0.00000000E+00	 1.50000000E+00	 5.50000000E+00
					 0.00000000E+00	 1.50000000E+00	 6.00000000E+00
					 0.00000000E+00	 1.50000000E+00	 6.50000000E+00
					 0.00000000E+00	 1.50000000E+00	 7.00000000E+00
					 0.00000000E+00	 1.50000000E+00	 7.50000000E+00
					 5.00000000E-01	 3.75000000E-01	 0.00000000E+00
					 2.50000000E-01	 7.50000000E-01	 0.00000000E+00
					 5.00000000E-01	 7.50000000E-01	 0.00000000E+00
					 7.50000000E-01	 7.50000000E-01	 0.00000000E+00
					 5.00000000E-01	 1.12500000E+00	 0.00000000E+00
					 5.00000000E-01	 3.75000000E-01	 8.00000000E+00
					 2.50000000E-01	 7.50000000E-01	 8.00000000E+00
					 5.00000000E-01	 7.50000000E-01	 8.00000000E+00
					 7.50000000E-01	 7.50000000E-01	 8.00000000E+00
					 5.00000000E-01	 1.12500000E+00	 8.00000000E+00
					 5.00000000E-01	 0.00000000E+00	 5.00000000E-01
					 2.50000000E-01	 0.00000000E+00	 1.00000000E+00
					 5.00000000E-01	 0.00000000E+00	 1.00000000E+00
					 7.50000000E-01	 0.00000000E+00	 1.00000000E+00
					 5.00000000E-01	 0.00000000E+00	 1.50000000E+00
					 2.50000000E-01	 0.00000000E+00	 2.00000000E+00
					 5.00000000E-01	 0.00000000E+00	 2.00000000E+00
					 7.50000000E-01	 0.00000000E+00	 2.00000000E+00
					 5.00000000E-01	 0.00000000E+00	 2.50000000E+00
					 2.50000000E-01	 0.00000000E+00	 3.00000000E+00
					 5.00000000E-01	 0.00000000E+00	 3.00000000E+00
					 7.50000000E-01	 0.00000000E+00	 3.00000000E+00
					 5.00000000E-01	 0.00000000E+00	 3.50000000E+00
					 2.50000000E-01	 0.00000000E+00	 4.00000000E+00
					 5.00000000E-01	 0.00000000E+00	 4.00000000E+00
					 7.50000000E-01	 0.00000000E+00	 4.00000000E+00
					 5.00000000E-01	 0.00000000E+00	 4.50000000E+00
					 2.50000000E-01	 0.00000000E+00	 5.00000000E+00
					 5.00000000E-01	 0.00000000E+00	 5.00000000E+00
					 7.50000000E-01	 0.00000000E+00	 5.00000000E+00
					 5.00000000E-01	 0.00000000E+00	 5.50000000E+00
					 2.50000000E-01	 0.00000000E+00	 6.00000000E+00
					 5.00000000E-01	 0.00000000E+00	 6.00000000E+00
					 7.50000000E-01	 0.00000000E+00	 6.00000000E+00
					 5.00000000E-01	 0.00000000E+00	 6.50000000E+00
					 2.50000000E-01	 0.00000000E+00	 7.00000000E+00
					 5.00000000E-01	 0.00000000E+00	 7.00000000E+00
					 7.50000000E-01	 0.00000000E+00	 7.00000000E+00
					 5.00000000E-01	 0.00000000E+00	 7.50000000E+00
					 1.00000000E+00	 7.50000000E-01	 5.00000000E-01
					 1.00000000E+00	 3.75000000E-01	 1.00000000E+00
					 1.00000000E+00	 7.50000000E-01	 1.00000000E+00
					 1.00000000E+00	 1.12500000E+00	 1.00000000E+00
					 1.00000000E+00	 7.50000000E-01	 1.50000000E+00
					 1.00000000E+00	 3.75000000E-01	 2.00000000E+00
					 1.00000000E+00	 7.50000000E-01	 2.00000000E+00
					 1.00000000E+00	 1.12500000E+00	 2.00000000E+00
					 1.00000000E+00	 7.50000000E-01	 2.50000000E+00
					 1.00000000E+00	 3.75000000E-01	 3.00000000E+00
					 1.00000000E+00	 7.50000000E-01	 3.00000000E+00
					 1.00000000E+00	 1.12500000E+00	 3.00000000E+00
					 1.00000000E+00	 7.50000000E-01	 3.50000000E+00
					 1.00000000E+00	 3.75000000E-01	 4.00000000E+00
					 1.00000000E+00	 7.50000000E-01	 4.00000000E+00
					 1.00000000E+00	 1.12500000E+00	 4.00000000E+00
					 1.00000000E+00	 7.50000000E-01	 4.50000000E+00
					 1.00000000E+00	 3.75000000E-01	 5.00000000E+00
					 1.00000000E+00	 7.50000000E-01	 5.00000000E+00
					 1.00000000E+00	 1.12500000E+00	 5.00000000E+00
					 1.00000000E+00	 7.50000000E-01	 5.50000000E+00
					 1.00000000E+00	 3.75000000E-01	 6.00000000E+00
					 1.00000000E+00	 7.50000000E-01	 6.00000000E+00
					 1.00000000E+00	 1.12500000E+00	 6.00000000E+00
					 1.00000000E+00	 7.50000000E-01	 6.50000000E+00
					 1.00000000E+00	 3.75000000E-01	 7.00000000E+00
					 1.00000000E+00	 7.50000000E-01	 7.00000000E+00
					 1.00000000E+00	 1.12500000E+00	 7.00000000E+00
					 1.00000000E+00	 7.50000000E-01	 7.50000000E+00
					 5.00000000E-01	 1.50000000E+00	 5.00000000E-01
					 7.50000000E-01	 1.50000000E+00	 1.00000000E+00
					 5.00000000E-01	 1.50000000E+00	 1.00000000E+00
					 2.50000000E-01	 1.50000000E+00	 1.00000000E+00
					 5.00000000E-01	 1.50000000E+00	 1.50000000E+00
					 7.50000000E-01	 1.50000000E+00	 2.00000000E+00
					 5.00000000E-01	 1.50000000E+00	 2.00000000E+00
					 2.50000000E-01	 1.50000000E+00	 2.00000000E+00
					 5.00000000E-01	 1.50000000E+00	 2.50000000E+00
					 7.50000000E-01	 1.50000000E+00	 3.00000000E+00
					 5.00000000E-01	 1.50000000E+00	 3.00000000E+00
					 2.50000000E-01	 1.50000000E+00	 3.00000000E+00
					 5.00000000E-01	 1.50000000E+00	 3.50000000E+00
					 7.50000000E-01	 1.50000000E+00	 4.00000000E+00
					 5.00000000E-01	 1.50000000E+00	 4.00000000E+00
					 2.50000000E-01	 1.50000000E+00	 4.00000000E+00
					 5.00000000E-01	 1.50000000E+00	 4.50000000E+00
					 7.50000000E-01	 1.50000000E+00	 5.00000000E+00
					 5.00000000E-01	 1.50000000E+00	 5.00000000E+00
					 2.50000000E-01	 1.50000000E+00	 5.00000000E+00
					 5.00000000E-01	 1.50000000E+00	 5.50000000E+00
					 7.50000000E-01	 1.50000000E+00	 6.00000000E+00
					 5.00000000E-01	 1.50000000E+00	 6.00000000E+00
					 2.50000000E-01	 1.50000000E+00	 6.00000000E+00
					 5.00000000E-01	 1.50000000E+00	 6.50000000E+00
					 7.50000000E-01	 1.50000000E+00	 7.00000000E+00
					 5.00000000E-01	 1.50000000E+00	 7.00000000E+00
					 2.50000000E-01	 1.50000000E+00	 7.00000000E+00
					 5.00000000E-01	 1.50000000E+00	 7.50000000E+00
					 0.00000000E+00	 7.50000000E-01	 5.00000000E-01
					 0.00000000E+00	 1.12500000E+00	 1.00000000E+00
					 0.00000000E+00	 7.50000000E-01	 1.00000000E+00
					 0.00000000E+00	 3.75000000E-01	 1.00000000E+00
					 0.00000000E+00	 7.50000000E-01	 1.50000000E+00
					 0.00000000E+00	 1.12500000E+00	 2.00000000E+00
					 0.00000000E+00	 7.50000000E-01	 2.00000000E+00
					 0.00000000E+00	 3.75000000E-01	 2.00000000E+00
					 0.00000000E+00	 7.50000000E-01	 2.50000000E+00
					 0.00000000E+00	 1.12500000E+00	 3.00000000E+00
					 0.00000000E+00	 7.50000000E-01	 3.00000000E+00
					 0.00000000E+00	 3.75000000E-01	 3.00000000E+00
					 0.00000000E+00	 7.50000000E-01	 3.50000000E+00
					 0.00000000E+00	 1.12500000E+00	 4.00000000E+00
					 0.00000000E+00	 7.50000000E-01	 4.00000000E+00
					 0.00000000E+00	 3.75000000E-01	 4.00000000E+00
					 0.00000000E+00	 7.50000000E-01	 4.50000000E+00
					 0.00000000E+00	 1.12500000E+00	 5.00000000E+00
					 0.00000000E+00	 7.50000000E-01	 5.00000000E+00
					 0.00000000E+00	 3.75000000E-01	 5.00000000E+00
					 0.00000000E+00	 7.50000000E-01	 5.50000000E+00
					 0.00000000E+00	 1.12500000E+00	 6.00000000E+00
					 0.00000000E+00	 7.50000000E-01	 6.00000000E+00
					 0.00000000E+00	 3.75000000E-01	 6.00000000E+00
					 0.00000000E+00	 7.50000000E-01	 6.50000000E+00
					 0.00000000E+00	 1.12500000E+00	 7.00000000E+00
					 0.00000000E+00	 7.50000000E-01	 7.00000000E+00
					 0.00000000E+00	 3.75000000E-01	 7.00000000E+00
					 0.00000000E+00	 7.50000000E-01	 7.50000000E+00
					 5.00000000E-01	 7.50000000E-01	 5.00000000E-01
					 5.00000000E-01	 3.75000000E-01	 1.00000000E+00
					 2.50000000E-01	 7.50000000E-01	 1.00000000E+00
					 5.00000000E-01	 7.50000000E-01	 1.00000000E+00
					 7.50000000E-01	 7.50000000E-01	 1.00000000E+00
					 5.00000000E-01	 1.12500000E+00	 1.00000000E+00
					 5.00000000E-01	 7.50000000E-01	 1.50000000E+00
					 5.00000000E-01	 3.75000000E-01	 2.00000000E+00
					 2.50000000E-01	 7.50000000E-01	 2.00000000E+00
					 5.00000000E-01	 7.50000000E-01	 2.00000000E+00
					 7.50000000E-01	 7.50000000E-01	 2.00000000E+00
					 5.00000000E-01	 1.12500000E+00	 2.00000000E+00
					 5.00000000E-01	 7.50000000E-01	 2.50000000E+00
					 5.00000000E-01	 3.75000000E-01	 3.00000000E+00
					 2.50000000E-01	 7.50000000E-01	 3.00000000E+00
					 5.00000000E-01	 7.50000000E-01	 3.00000000E+00
					 7.50000000E-01	 7.50000000E-01	 3.00000000E+00
					 5.00000000E-01	 1.12500000E+00	 3.00000000E+00
					 5.00000000E-01	 7.50000000E-01	 3.50000000E+00
					 5.00000000E-01	 3.75000000E-01	 4.00000000E+00
					 2.50000000E-01	 7.50000000E-01	 4.00000000E+00
					 5.00000000E-01	 7.50000000E-01	 4.00000000E+00
					 7.50000000E-01	 7.50000000E-01	 4.00000000E+00
					 5.00000000E-01	 1.12500000E+00	 4.00000000E+00
					 5.00000000E-01	 7.50000000E-01	 4.50000000E+00
					 5.00000000E-01	 3.75000000E-01	 5.00000000E+00
					 2.50000000E-01	 7.50000000E-01	 5.00000000E+00
					 5.00000000E-01	 7.50000000E-01	 5.00000000E+00
					 7.50000000E-01	 7.50000000E-01	 5.00000000E+00
					 5.00000000E-01	 1.12500000E+00	 5.00000000E+00
					 5.00000000E-01	 7.50000000E-01	 5.50000000E+00
					 5.00000000E-01	 3.75000000E-01	 6.00000000E+00
					 2.50000000E-01	 7.50000000E-01	 6.00000000E+00
					 5.00000000E-01	 7.50000000E-01	 6.00000000E+00
					 7.50000000E-01	 7.50000000E-01	 6.00000000E+00
					 5.00000000E-01	 1.12500000E+00	 6.00000000E+00
					 5.00000000E-01	 7.50000000E-01	 6.50000000E+00
					 5.00000000E-01	 3.75000000E-01	 7.00000000E+00
					 2.50000000E-01	 7.50000000E-01	 7.00000000E+00
					 5.00000000E-01	 7.50000000E-01	 7.00000000E+00
					 7.50000000E-01	 7.50000000E-01	 7.00000000E+00
					 5.00000000E-01	 1.12500000E+00	 7.00000000E+00
					 5.00000000E-01	 7.50000000E-01	 7.50000000E+00

				</DataArray>
			</Points>
			<Cells>
				<DataArray type="Int32" Name="connectivity" format="ascii">
					0 9 94 18 60 104 221 191 8 92 93 19 103 219 220 192 61 102 218 189 9 1 12 94 104 33 133 221 10 11 95 92 105 132 222 219 102 32 131 218 18 94 15 3 191 221 162 78 93 96 16 17 220 223 163 190 189 218 160 77 94 12 2 15 221 133 63 162 95 13 14 96 222 134 161 223 218 131 62 160 60 104 221 191 58 108 227 195 103 219 220 192 107 225 226 196 59 106 224 193 104 33 133 221 108 35 137 227 105 132 222 219 109 136 228 225 106 34 135 224 191 221 162 78 195 227 166 80 220 223 163 190 226 229 167 194 193 224 164 79 221 133 63 162 227 137 65 166 222 134 161 223 228 138 165 229 224 135 64 164 58 108 227 195 56 112 233 199 107 225 226 196 111 231 232 200 57 110 230 197 108 35 137 227 112 37 141 233 109 136 228 225 113 140 234 231 110 36 139 230 195 227 166 80 199 233 170 82 226 229 167 194 232 235 171 198 197 230 168 81 227 137 65 166 233 141 67 170 228 138 165 229 234 142 169 235 230 139 66 168 56 112 233 199 54 116 239 203 111 231 232 200 115 237 238 204 55 114 236 201 112 37 141 233 116 39 145 239 113 140 234 231 117 144 240 237 114 38 143 236 199 233 170 82 203 239 174 84 232 235 171 198 238 241 175 202 201 236 172 83 233 141 67 170 239 145 69 174 234 142 169 235 240 146 173 241 236 143 68 172 54 116 239 203 52 120 245 207 115 237 238 204 119 243 244 208 53 118 242 205 116 39 145 239 120 41 149 245 117 144 240 237 121 148 246 243 118 40 147 242 203 239 174 84 207 245 178 86 238 241 175 202 244 247 179 206 205 242 176 85 239 145 69 174 245 149 71 178 240 146 173 241 246 150 177 247 242 147 70 176 52 120 245 207 50 124 251 211 119 243 244 208 123 249 250 212 51 122 248 209 120 41 149 245 124 43 153 251 121 148 246 243 125 152 252 249 122 42 151 248 207 245 178 86 211 251 182 88 244 247 179 206 250 253 183 210 209 248 180 87 245 149 71 178 251 153 73 182 246 150 177 247 252 154 181 253 248 151 72 180 50 124 251 211 48 128 257 215 123 249 250 212 127 255 256 216 49 126 254 213 124 43 153 251 128 45 157 257 125 152 252 249 129 156 258 255 126 44 155 254 211 251 182 88 215 257 186 90 250 253 183 210 256 259 187 214 213 254 184 89 251 153 73 182 257 157 75 186 252 154 181 253 258 158 185 259 254 155 74 184 48 128 257 215 4 21 99 30 127 255 256 216 20 97 98 31 47 130 260 217 128 45 157 257 21 5 24 99 129 156 258 255 22 23 100 97 130 46 159 260 215 257 186 90 30 99 27 7 256 259 187 214 98 101 28 29 217 260 188 91 257 157 75 186 99 24 6 27 258 158 185 259 100 25 26 101 260 159 76 188 
				</DataArray>
				<DataArray type="Int32" Name="offsets" format="ascii">
					20 40 60 80 100 120 140 160 180 200 220 240 260 280 300 320 340 360 380 400 420 440 460 480 500 520 540 560 580 600 620 640 
				</DataArray>
				<DataArray type="UInt8" Name="types" format="ascii">
					25 25 25 25 25 25 25 25 25 25 25 25 25 25 25 25 25 25 25 25 25 25 25 25 25 25 25 25 25 25 25 25 
				</DataArray>
			</Cells>
			<PointData>
				<DataArray type="Float32" Name="U" NumberOfComponents="3" ComponentName0="D1" ComponentName1="D2" ComponentName2="D3" format="ascii">
					 0.00000000E+00	 0.00000000E+00	 0.00000000E+00
					 0.00000000E+00	 0.00000000E+00	 0.00000000E+00
					 0.00000000E+00	 0.00000000E+00	 0.00000000E+00
					 0.00000000E+00	 0.00000000E+00	 0.00000000E+00
					-6.22789000E+03	-3.01362000E+00	-1.81339000E+03
					-6.22789000E+03	 3.01362000E+00	 1.81339000E+03
					-6.22789000E+03	-3.01362000E+00	 1.81339000E+03
					-6.22789000E+03	 3.01362000E+00	-1.81339000E+03
					 0.00000000E+00	 0.00000000E+00	 0.00000000E+00
					 0.00000000E+00	 0.00000000E+00	 0.00000000E+00
					 0.00000000E+00	 0.00000000E+00	 0.00000000E+00
					 0.00000000E+00	 0.00000000E+00	 0.00000000E+00
					 0.00000000E+00	 0.00000000E+00	 0.00000000E+00
					 0.00000000E+00	 0.00000000E+00	 0.00000000E+00
					 0.00000000E+00	 0.00000000E+00	 0.00000000E+00
					 0.00000000E+00	 0.00000000E+00	 0.00000000E+00
					 0.00000000E+00	 0.00000000E+00	 0.00000000E+00
					 0.00000000E+00	 0.00000000E+00	 0.00000000E+00
					 0.00000000E+00	 0.00000000E+00	 0.00000000E+00
					 0.00000000E+00	 0.00000000E+00	 0.00000000E+00
					-6.22734000E+03	-9.62019000E-01	-9.05244000E+02
					-6.22557000E+03	 0.00000000E+00	 0.00000000E+00
					-6.22734000E+03	 9.62019000E-01	 9.05244000E+02
					-6.23162000E+03	 2.64733000E+00	 1.81647000E+03
					-6.23489000E+03	 0.00000000E+00	 1.81763000E+03
					-6.23162000E+03	-2.64733000E+00	 1.81647000E+03
					-6.22734000E+03	-9.62019000E-01	 9.05244000E+02
					-6.22557000E+03	 0.00000000E+00	 0.00000000E+00
					-6.22734000E+03	 9.62019000E-01	-9.05244000E+02
					-6.23162000E+03	 2.64733000E+00	-1.81647000E+03
					-6.23489000E+03	 0.00000000E+00	-1.81763000E+03
					-6.23162000E+03	-2.64733000E+00	-1.81647000E+03
					 3.28872000E+02	-1.30911000E+02	-3.85024000E+02
					 9.61452000E+02	-7.09546000E+01	-6.66140000E+02
					 1.87097000E+03	-2.78765000E+01	-7.93878000E+02
					 2.79508000E+03	 3.26078000E+01	-7.87042000E+02
					 3.65178000E+03	 7.94171000E+01	-6.56089000E+02
					 4.29121000E+03	 1.19149000E+02	-4.29760000E+02
					 4.63993000E+03	 1.45188000E+02	-1.26862000E+02
					 4.62721000E+03	 1.58898000E+02	 2.20118000E+02
					 4.22645000E+03	 1.58587000E+02	 5.81610000E+02
					 3.44103000E+03	 1.46385000E+02	 9.28298000E+02
					 2.30349000E+03	 1.24013000E+02	 1.23362000E+03
					 8.73304000E+02	 9.51246000E+01	 1.48086000E+03
					-7.74046000E+02	 6.36788000E+01	 1.65599000E+03
					-2.55713000E+03	 3.44412000E+01	 1.76235000E+03
					-4.39385000E+03	 1.35863000E+01	 1.80636000E+03
					-4.39385000E+03	-1.35863000E+01	-1.80636000E+03
					-2.55713000E+03	-3.44412000E+01	-1.76235000E+03
					-7.74046000E+02	-6.36788000E+01	-1.65599000E+03
					 8.73304000E+02	-9.51246000E+01	-1.48086000E+03
					 2.30349000E+03	-1.24013000E+02	-1.23362000E+03
					 3.44103000E+03	-1.46385000E+02	-9.28298000E+02
					 4.22645000E+03	-1.58587000E+02	-5.81610000E+02
					 4.62721000E+03	-1.58898000E+02	-2.20118000E+02
					 4.63993000E+03	-1.45188000E+02	 1.26862000E+02
					 4.29121000E+03	-1.19149000E+02	 4.29760000E+02
					 3.65178000E+03	-7.94171000E+01	 6.56089000E+02
					 2.79508000E+03	-3.26078000E+01	 7.87042000E+02
					 1.87097000E+03	 2.78765000E+01	 7.93878000E+02
					 9.61452000E+02	 7.09546000E+01	 6.66140000E+02
					 3.28872000E+02	 1.30911000E+02	 3.85024000E+02
					 3.28872000E+02	 1.30911000E+02	-3.85024000E+02
					 9.61452000E+02	 7.09546000E+01	-6.66140000E+02
					 1.87097000E+03	 2.78765000E+01	-7.93878000E+02
					 2.79508000E+03	-3.26078000E+01	-7.87042000E+02
					 3.65178000E+03	-7.94171000E+01	-6.56089000E+02
					 4.29121000E+03	-1.19149000E+02	-4.29760000E+02
					 4.63993000E+03	-1.45188000E+02	-1.26862000E+02
					 4.62721000E+03	-1.58898000E+02	 2.20118000E+02
					 4.22645000E+03	-1.58587000E+02	 5.81610000E+02
					 3.44103000E+03	-1.46385000E+02	 9.28298000E+02
					 2.30349000E+03	-1.24013000E+02	 1.23362000E+03
					 8.73304000E+02	-9.51246000E+01	 1.48086000E+03
					-7.74046000E+02	-6.36788000E+01	 1.65599000E+03
					-2.55713000E+03	-3.44412000E+01	 1.76235000E+03
					-4.39385000E+03	-1.35863000E+01	 1.80636000E+03
					 3.28872000E+02	-1.30911000E+02	 3.85024000E+02
					 9.61452000E+02	-7.09546000E+01	 6.66140000E+02
					 1.87097000E+03	-2.78765000E+01	 7.93878000E+02
					 2.79508000E+03	 3.26078000E+01	 7.87042000E+02
					 3.65178000E+03	 7.94171000E+01	 6.56089000E+02
					 4.29121000E+03	 1.19149000E+02	 4.29760000E+02
					 4.63993000E+03	 1.45188000E+02	 1.26862000E+02
					 4.62721000E+03	 1.58898000E+02	-2.20118000E+02
					 4.22645000E+03	 1.58587000E+02	-5.81610000E+02
					 3.44103000E+03	 1.46385000E+02	-9.28298000E+02
					 2.30349000E+03	 1.24013000E+02	-1.23362000E+03
					 8.73304000E+02	 9.51246000E+01	-1.48086000E+03
					-7.74046000E+02	 6.36788000E+01	-1.65599000E+03
					-2.55713000E+03	 3.44412000E+01	-1.76235000E+03
					-4.39385000E+03	 1.35863000E+01	-1.80636000E+03
					 0.00000000E+00	 0.00000000E+00	 0.00000000E+00
					 0.00000000E+00	 0.00000000E+00	 0.00000000E+00
					 0.00000000E+00	 0.00000000E+00	 0.00000000E+00
					 0.00000000E+00	 0.00000000E+00	 0.00000000E+00
					 0.00000000E+00	 0.00000000E+00	 0.00000000E+00
					-6.22926000E+03	 0.00000000E+00	 0.00000000E+00
					-6.23530000E+03	 0.00000000E+00	-9.08069000E+02
					-6.23412000E+03	 0.00000000E+00	 0.00000000E+00
					-6.23530000E+03	 0.00000000E+00	 9.08069000E+02
					-6.22926000E+03	 0.00000000E+00	 0.00000000E+00
					 2.56429000E+02	 0.00000000E+00	 0.00000000E+00
					 9.50258000E+02	 3.70494000E+01	 3.05937000E+02
					 9.64700000E+02	 0.00000000E+00	 0.00000000E+00
					 9.50258000E+02	-3.70494000E+01	-3.05937000E+02
					 1.85017000E+03	 0.00000000E+00	 0.00000000E+00
					 2.81155000E+03	-1.67172000E+01	 3.72231000E+02
					 2.81918000E+03	 0.00000000E+00	 0.00000000E+00
					 2.81155000E+03	 1.67172000E+01	-3.72231000E+02
					 3.67377000E+03	 0.00000000E+00	 0.00000000E+00
					 4.32362000E+03	-5.96769000E+01	 2.01731000E+02
					 4.33569000E+03	 0.00000000E+00	 0.00000000E+00
					 4.32362000E+03	 5.96769000E+01	-2.01731000E+02
					 4.68590000E+03	 0.00000000E+00	 0.00000000E+00
					 4.66861000E+03	-7.96583000E+01	-1.12626000E+02
					 4.68183000E+03	 0.00000000E+00	 0.00000000E+00
					 4.66861000E+03	 7.96583000E+01	 1.12626000E+02
					 4.27779000E+03	 0.00000000E+00	 0.00000000E+00
					 3.47842000E+03	-7.33286000E+01	-4.57002000E+02
					 3.49038000E+03	 0.00000000E+00	 0.00000000E+00
					 3.47842000E+03	 7.33286000E+01	 4.57002000E+02
					 2.34396000E+03	 0.00000000E+00	 0.00000000E+00
					 8.97444000E+02	-4.75722000E+01	-7.27958000E+02
					 9.05443000E+02	 0.00000000E+00	 0.00000000E+00
					 8.97444000E+02	 4.75722000E+01	 7.27958000E+02
					-7.52899000E+02	 0.00000000E+00	 0.00000000E+00
					-2.54850000E+03	-1.71682000E+01	-8.70763000E+02
					-2.54471000E+03	 0.00000000E+00	 0.00000000E+00
					-2.54850000E+03	 1.71682000E+01	 8.70763000E+02
					-4.38960000E+03	 0.00000000E+00	 0.00000000E+00
					 4.00776000E+02	 0.00000000E+00	-3.83180000E+02
					 1.01413000E+03	-3.12756000E+01	-6.80628000E+02
					 1.02201000E+03	 0.00000000E+00	-6.79822000E+02
					 1.01413000E+03	 3.12756000E+01	-6.80628000E+02
					 1.88948000E+03	 0.00000000E+00	-7.99664000E+02
					 2.77698000E+03	 1.51178000E+01	-8.01038000E+02
					 2.77457000E+03	 0.00000000E+00	-7.92585000E+02
					 2.77698000E+03	-1.51178000E+01	-8.01038000E+02
					 3.59268000E+03	 0.00000000E+00	-6.61295000E+02
					 4.22543000E+03	 5.92445000E+01	-4.37743000E+02
					 4.20450000E+03	 0.00000000E+00	-4.33757000E+02
					 4.22543000E+03	-5.92445000E+01	-4.37743000E+02
					 4.53239000E+03	 0.00000000E+00	-1.29153000E+02
					 4.53810000E+03	 7.87763000E+01	 2.18450000E+02
					 4.51017000E+03	 0.00000000E+00	 2.19354000E+02
					 4.53810000E+03	-7.87763000E+01	 2.18450000E+02
					 4.10886000E+03	 0.00000000E+00	 5.82322000E+02
					 3.35892000E+03	 7.27606000E+01	 9.32746000E+02
					 3.33267000E+03	 0.00000000E+00	 9.30116000E+02
					 3.35892000E+03	-7.27606000E+01	 9.32746000E+02
					 2.21116000E+03	 0.00000000E+00	 1.23661000E+03
					 8.19800000E+02	 4.74643000E+01	 1.48857000E+03
					 8.02286000E+02	 0.00000000E+00	 1.48403000E+03
					 8.19800000E+02	-4.74643000E+01	 1.48857000E+03
					-8.22211000E+02	 0.00000000E+00	 1.65960000E+03
					-2.57677000E+03	 1.76246000E+01	 1.76883000E+03
					-2.58429000E+03	 0.00000000E+00	 1.76507000E+03
					-2.57677000E+03	-1.76246000E+01	 1.76883000E+03
					-4.40559000E+03	 0.00000000E+00	 1.80890000E+03
					 2.56429000E+02	 0.00000000E+00	 0.00000000E+00
					 9.50258000E+02	 3.70494000E+01	-3.05937000E+02
					 9.64700000E+02	 0.00000000E+00	 0.00000000E+00
					 9.50258000E+02	-3.70494000E+01	 3.05937000E+02
					 1.85017000E+03	 0.00000000E+00	 0.00000000E+00
					 2.81155000E+03	-1.67172000E+01	-3.72231000E+02
					 2.81918000E+03	 0.00000000E+00	 0.00000000E+00
					 2.81155000E+03	 1.67172000E+01	 3.72231000E+02
					 3.67377000E+03	 0.00000000E+00	 0.00000000E+00
					 4.32362000E+03	-5.96769000E+01	-2.01731000E+02
					 4.33569000E+03	 0.00000000E+00	 0.00000000E+00
					 4.32362000E+03	 5.96769000E+01	 2.01731000E+02
					 4.68590000E+03	 0.00000000E+00	 0.00000000E+00
					 4.66861000E+03	-7.96583000E+01	 1.12626000E+02
					 4.68183000E+03	 0.00000000E+00	 0.00000000E+00
					 4.66861000E+03	 7.96583000E+01	-1.12626000E+02
					 4.27779000E+03	 0.00000000E+00	 0.00000000E+00
					 3.47842000E+03	-7.33286000E+01	 4.57002000E+02
					 3.49038000E+03	 0.00000000E+00	 0.00000000E+00
					 3.47842000E+03	 7.33286000E+01	-4.57002000E+02
					 2.34396000E+03	 0.00000000E+00	 0.00000000E+00
					 8.97444000E+02	-4.75722000E+01	 7.27958000E+02
					 9.05443000E+02	 0.00000000E+00	 0.00000000E+00
					 8.97444000E+02	 4.75722000E+01	-7.27958000E+02
					-7.52899000E+02	 0.00000000E+00	 0.00000000E+00
					-2.54850000E+03	-1.71682000E+01	 8.70763000E+02
					-2.54471000E+03	 0.00000000E+00	 0.00000000E+00
					-2.54850000E+03	 1.71682000E+01	-8.70763000E+02
					-4.38960000E+03	 0.00000000E+00	 0.00000000E+00
					 4.00776000E+02	 0.00000000E+00	 3.83180000E+02
					 1.01413000E+03	-3.12756000E+01	 6.80628000E+02
					 1.02201000E+03	 0.00000000E+00	 6.79822000E+02
					 1.01413000E+03	 3.12756000E+01	 6.80628000E+02
					 1.88948000E+03	 0.00000000E+00	 7.99664000E+02
					 2.77698000E+03	 1.51178000E+01	 8.01038000E+02
					 2.77457000E+03	 0.00000000E+00	 7.92585000E+02
					 2.77698000E+03	-1.51178000E+01	 8.01038000E+02
					 3.59268000E+03	 0.00000000E+00	 6.61295000E+02
					 4.22543000E+03	 5.92445000E+01	 4.37743000E+02
					 4.20450000E+03	 0.00000000E+00	 4.33757000E+02
					 4.22543000E+03	-5.92445000E+01	 4.37743000E+02
					 4.53239000E+03	 0.00000000E+00	 1.29153000E+02
					 4.53810000E+03	 7.87763000E+01	-2.18450000E+02
					 4.51017000E+03	 0.00000000E+00	-2.19354000E+02
					 4.53810000E+03	-7.87763000E+01	-2.18450000E+02
					 4.10886000E+03	 0.00000000E+00	-5.82322000E+02
					 3.35892000E+03	 7.27606000E+01	-9.32746000E+02
					 3.33267000E+03	 0.00000000E+00	-9.30116000E+02
					 3.35892000E+03	-7.27606000E+01	-9.32746000E+02
					 2.21116000E+03	 0.00000000E+00	-1.23661000E+03
					 8.19800000E+02	 4.74643000E+01	-1.48857000E+03
					 8.02286000E+02	 0.00000000E+00	-1.48403000E+03
					 8.19800000E+02	-4.74643000E+01	-1.48857000E+03
					-8.22211000E+02	 0.00000000E+00	-1.65960000E+03
					-2.57677000E+03	 1.76246000E+01	-1.76883000E+03
					-2.58429000E+03	 0.00000000E+00	-1.76507000E+03
					-2.57677000E+03	-1.76246000E+01	-1.76883000E+03
					-4.40559000E+03	 0.00000000E+00	-1.80890000E+03
					 3.24099000E+02	 0.00000000E+00	 0.00000000E+00
					 1.01692000E+03	 0.00000000E+00	 0.00000000E+00
					 1.00653000E+03	 0.00000000E+00	 3.17135000E+02
					 1.01963000E+03	 0.00000000E+00	 0.00000000E+00
					 1.00653000E+03	 0.00000000E+00	-3.17135000E+02
					 1.01692000E+03	 0.00000000E+00	 0.00000000E+00
					 1.86833000E+03	 0.00000000E+00	 0.00000000E+00
					 2.79981000E+03	 0.00000000E+00	 0.00000000E+00
					 2.79087000E+03	 0.00000000E+00	 3.83611000E+02
					 2.79737000E+03	 0.00000000E+00	 0.00000000E+00
					 2.79087000E+03	 0.00000000E+00	-3.83611000E+02
					 2.79981000E+03	 0.00000000E+00	 0.00000000E+00
					 3.61712000E+03	 0.00000000E+00	 0.00000000E+00
					 4.26981000E+03	 0.00000000E+00	 0.00000000E+00
					 4.23711000E+03	 0.00000000E+00	 2.08444000E+02
					 4.24908000E+03	 0.00000000E+00	 0.00000000E+00
					 4.23711000E+03	 0.00000000E+00	-2.08444000E+02
					 4.26981000E+03	 0.00000000E+00	 0.00000000E+00
					 4.58025000E+03	 0.00000000E+00	 0.00000000E+00
					 4.59290000E+03	 0.00000000E+00	 0.00000000E+00
					 4.55234000E+03	 0.00000000E+00	-1.11261000E+02
					 4.56576000E+03	 0.00000000E+00	 0.00000000E+00
					 4.55234000E+03	 0.00000000E+00	 1.11261000E+02
					 4.59290000E+03	 0.00000000E+00	 0.00000000E+00