# vtk DataFile Version 3.0

ASCII
DATASET UNSTRUCTURED_GRID

POINTS 261 double
	 0.00000000E+00	 0.00000000E+00	 0.00000000E+00
	 1.00000000E+00	 0.00000000E+00	 0.00000000E+00
	 1.00000000E+00	 1.00000000E+00	 0.00000000E+00
	 0.00000000E+00	 1.00000000E+00	 0.00000000E+00
	 0.00000000E+00	 0.00000000E+00	 8.00000000E+00
	 1.00000000E+00	 0.00000000E+00	 8.00000000E+00
	 1.00000000E+00	 1.00000000E+00	 8.00000000E+00
	 0.00000000E+00	 1.00000000E+00	 8.00000000E+00
	 2.50000000E-01	 0.00000000E+00	 0.00000000E+00
	 5.00000000E-01	 0.00000000E+00	 0.00000000E+00
	 7.50000000E-01	 0.00000000E+00	 0.00000000E+00
	 1.00000000E+00	 2.50000000E-01	 0.00000000E+00
	 1.00000000E+00	 5.00000000E-01	 0.00000000E+00
	 1.00000000E+00	 7.50000000E-01	 0.00000000E+00
	 7.50000000E-01	 1.00000000E+00	 0.00000000E+00
	 5.00000000E-01	 1.00000000E+00	 0.00000000E+00
	 2.50000000E-01	 1.00000000E+00	 0.00000000E+00
	 0.00000000E+00	 7.50000000E-01	 0.00000000E+00
	 0.00000000E+00	 5.00000000E-01	 0.00000000E+00
	 0.00000000E+00	 2.50000000E-01	 0.00000000E+00
	 2.50000000E-01	 0.00000000E+00	 8.00000000E+00
	 5.00000000E-01	 0.00000000E+00	 8.00000000E+00
	 7.50000000E-01	 0.00000000E+00	 8.00000000E+00
	 1.00000000E+00	 2.50000000E-01	 8.00000000E+00
	 1.00000000E+00	 5.00000000E-01	 8.00000000E+00
	 1.00000000E+00	 7.50000000E-01	 8.00000000E+00
	 7.50000000E-01	 1.00000000E+00	 8.00000000E+00
	 5.00000000E-01	 1.00000000E+00	 8.00000000E+00
	 2.50000000E-01	 1.00000000E+00	 8.00000000E+00
	 0.00000000E+00	 7.50000000E-01	 8.00000000E+00
	 0.00000000E+00	 5.00000000E-01	 8.00000000E+00
	 0.00000000E+00	 2.50000000E-01	 8.00000000E+00
	 1.00000000E+00	 0.00000000E+00	 5.00000000E-01
	 1.00000000E+00	 0.00000000E+00	 1.00000000E+00
	 1.00000000E+00	 0.00000000E+00	 1.50000000E+00
	 1.00000000E+00	 0.00000000E+00	 2.00000000E+00
	 1.00000000E+00	 0.00000000E+00	 2.50000000E+00
	 1.00000000E+00	 0.00000000E+00	 3.00000000E+00
	 1.00000000E+00	 0.00000000E+00	 3.50000000E+00
	 1.00000000E+00	 0.00000000E+00	 4.00000000E+00
	 1.00000000E+00	 0.00000000E+00	 4.50000000E+00
	 1.00000000E+00	 0.00000000E+00	 5.00000000E+00
	 1.00000000E+00	 0.00000000E+00	 5.50000000E+00
	 1.00000000E+00	 0.00000000E+00	 6.00000000E+00
	 1.00000000E+00	 0.00000000E+00	 6.50000000E+00
	 1.00000000E+00	 0.00000000E+00	 7.00000000E+00
	 1.00000000E+00	 0.00000000E+00	 7.50000000E+00
	 0.00000000E+00	 0.00000000E+00	 7.50000000E+00
	 0.00000000E+00	 0.00000000E+00	 7.00000000E+00
	 0.00000000E+00	 0.00000000E+00	 6.50000000E+00
	 0.00000000E+00	 0.00000000E+00	 6.00000000E+00
	 0.00000000E+00	 0.00000000E+00	 5.50000000E+00
	 0.00000000E+00	 0.00000000E+00	 5.00000000E+00
	 0.00000000E+00	 0.00000000E+00	 4.50000000E+00
	 0.00000000E+00	 0.00000000E+00	 4.00000000E+00
	 0.00000000E+00	 0.00000000E+00	 3.50000000E+00
	 0.00000000E+00	 0.00000000E+00	 3.00000000E+00
	 0.00000000E+00	 0.00000000E+00	 2.50000000E+00
	 0.00000000E+00	 0.00000000E+00	 2.00000000E+00
	 0.00000000E+00	 0.00000000E+00	 1.50000000E+00
	 0.00000000E+00	 0.00000000E+00	 1.00000000E+00
	 0.00000000E+00	 0.00000000E+00	 5.00000000E-01
	 1.00000000E+00	 1.00000000E+00	 5.00000000E-01
	 1.00000000E+00	 1.00000000E+00	 1.00000000E+00
	 1.00000000E+00	 1.00000000E+00	 1.50000000E+00
	 1.00000000E+00	 1.00000000E+00	 2.00000000E+00
	 1.00000000E+00	 1.00000000E+00	 2.50000000E+00
	 1.00000000E+00	 1.00000000E+00	 3.00000000E+00
	 1.00000000E+00	 1.00000000E+00	 3.50000000E+00
	 1.00000000E+00	 1.00000000E+00	 4.00000000E+00
	 1.00000000E+00	 1.00000000E+00	 4.50000000E+00
	 1.00000000E+00	 1.00000000E+00	 5.00000000E+00
	 1.00000000E+00	 1.00000000E+00	 5.50000000E+00
	 1.00000000E+00	 1.00000000E+00	 6.00000000E+00
	 1.00000000E+00	 1.00000000E+00	 6.50000000E+00
	 1.00000000E+00	 1.00000000E+00	 7.00000000E+00
	 1.00000000E+00	 1.00000000E+00	 7.50000000E+00
	 0.00000000E+00	 1.00000000E+00	 5.00000000E-01
	 0.00000000E+00	 1.00000000E+00	 1.00000000E+00
	 0.00000000E+00	 1.00000000E+00	 1.50000000E+00
	 0.00000000E+00	 1.00000000E+00	 2.00000000E+00
	 0.00000000E+00	 1.00000000E+00	 2.50000000E+00
	 0.00000000E+00	 1.00000000E+00	 3.00000000E+00
	 0.00000000E+00	 1.00000000E+00	 3.50000000E+00
	 0.00000000E+00	 1.00000000E+00	 4.00000000E+00
	 0.00000000E+00	 1.00000000E+00	 4.50000000E+00
	 0.00000000E+00	 1.00000000E+00	 5.00000000E+00
	 0.00000000E+00	 1.00000000E+00	 5.50000000E+00
	 0.00000000E+00	 1.00000000E+00	 6.00000000E+00
	 0.00000000E+00	 1.00000000E+00	 6.50000000E+00
	 0.00000000E+00	 1.00000000E+00	 7.00000000E+00
	 0.00000000E+00	 1.00000000E+00	 7.50000000E+00
	 5.00000000E-01	 2.50000000E-01	 0.00000000E+00
	 2.50000000E-01	 5.00000000E-01	 0.00000000E+00
	 5.00000000E-01	 5.00000000E-01	 0.00000000E+00
	 7.50000000E-01	 5.00000000E-01	 0.00000000E+00
	 5.00000000E-01	 7.50000000E-01	 0.00000000E+00
	 5.00000000E-01	 2.50000000E-01	 8.00000000E+00
	 2.50000000E-01	 5.00000000E-01	 8.00000000E+00
	 5.00000000E-01	 5.00000000E-01	 8.00000000E+00
	 7.50000000E-01	 5.00000000E-01	 8.00000000E+00
	 5.00000000E-01	 7.50000000E-01	 8.00000000E+00
	 5.00000000E-01	 0.00000000E+00	 5.00000000E-01
	 2.50000000E-01	 0.00000000E+00	 1.00000000E+00
	 5.00000000E-01	 0.00000000E+00	 1.00000000E+00
	 7.50000000E-01	 0.00000000E+00	 1.00000000E+00
	 5.00000000E-01	 0.00000000E+00	 1.50000000E+00
	 2.50000000E-01	 0.00000000E+00	 2.00000000E+00
	 5.00000000E-01	 0.00000000E+00	 2.00000000E+00
	 7.50000000E-01	 0.00000000E+00	 2.00000000E+00
	 5.00000000E-01	 0.00000000E+00	 2.50000000E+00
	 2.50000000E-01	 0.00000000E+00	 3.00000000E+00
	 5.00000000E-01	 0.00000000E+00	 3.00000000E+00
	 7.50000000E-01	 0.00000000E+00	 3.00000000E+00
	 5.00000000E-01	 0.00000000E+00	 3.50000000E+00
	 2.50000000E-01	 0.00000000E+00	 4.00000000E+00
	 5.00000000E-01	 0.00000000E+00	 4.00000000E+00
	 7.50000000E-01	 0.00000000E+00	 4.00000000E+00
	 5.00000000E-01	 0.00000000E+00	 4.50000000E+00
	 2.50000000E-01	 0.00000000E+00	 5.00000000E+00
	 5.00000000E-01	 0.00000000E+00	 5.00000000E+00
	 7.50000000E-01	 0.00000000E+00	 5.00000000E+00
	 5.00000000E-01	 0.00000000E+00	 5.50000000E+00
	 2.50000000E-01	 0.00000000E+00	 6.00000000E+00
	 5.00000000E-01	 0.00000000E+00	 6.00000000E+00
	 7.50000000E-01	 0.00000000E+00	 6.00000000E+00
	 5.00000000E-01	 0.00000000E+00	 6.50000000E+00
	 2.50000000E-01	 0.00000000E+00	 7.00000000E+00
	 5.00000000E-01	 0.00000000E+00	 7.00000000E+00
	 7.50000000E-01	 0.00000000E+00	 7.00000000E+00
	 5.00000000E-01	 0.00000000E+00	 7.50000000E+00
	 1.00000000E+00	 5.00000000E-01	 5.00000000E-01
	 1.00000000E+00	 2.50000000E-01	 1.00000000E+00
	 1.00000000E+00	 5.00000000E-01	 1.00000000E+00
	 1.00000000E+00	 7.50000000E-01	 1.00000000E+00
	 1.00000000E+00	 5.00000000E-01	 1.50000000E+00
	 1.00000000E+00	 2.50000000E-01	 2.00000000E+00
	 1.00000000E+00	 5.00000000E-01	 2.00000000E+00
	 1.00000000E+00	 7.50000000E-01	 2.00000000E+00
	 1.00000000E+00	 5.00000000E-01	 2.50000000E+00
	 1.00000000E+00	 2.50000000E-01	 3.00000000E+00
	 1.00000000E+00	 5.00000000E-01	 3.00000000E+00
	 1.00000000E+00	 7.50000000E-01	 3.00000000E+00
	 1.00000000E+00	 5.00000000E-01	 3.50000000E+00
	 1.00000000E+00	 2.50000000E-01	 4.00000000E+00
	 1.00000000E+00	 5.00000000E-01	 4.00000000E+00
	 1.00000000E+00	 7.50000000E-01	 4.00000000E+00
	 1.00000000E+00	 5.00000000E-01	 4.50000000E+00
	 1.00000000E+00	 2.50000000E-01	 5.00000000E+00
	 1.00000000E+00	 5.00000000E-01	 5.00000000E+00
	 1.00000000E+00	 7.50000000E-01	 5.00000000E+00
	 1.00000000E+00	 5.00000000E-01	 5.50000000E+00
	 1.00000000E+00	 2.50000000E-01	 6.00000000E+00
	 1.00000000E+00	 5.00000000E-01	 6.00000000E+00
	 1.00000000E+00	 7.50000000E-01	 6.00000000E+00
	 1.00000000E+00	 5.00000000E-01	 6.50000000E+00
	 1.00000000E+00	 2.50000000E-01	 7.00000000E+00
	 1.00000000E+00	 5.00000000E-01	 7.00000000E+00
	 1.00000000E+00	 7.50000000E-01	 7.00000000E+00
	 1.00000000E+00	 5.00000000E-01	 7.50000000E+00
	 5.00000000E-01	 1.00000000E+00	 5.00000000E-01
	 7.50000000E-01	 1.00000000E+00	 1.00000000E+00
	 5.00000000E-01	 1.00000000E+00	 1.00000000E+00
	 2.50000000E-01	 1.00000000E+00	 1.00000000E+00
	 5.00000000E-01	 1.00000000E+00	 1.50000000E+00
	 7.50000000E-01	 1.00000000E+00	 2.00000000E+00
	 5.00000000E-01	 1.00000000E+00	 2.00000000E+00
	 2.50000000E-01	 1.00000000E+00	 2.00000000E+00
	 5.00000000E-01	 1.00000000E+00	 2.50000000E+00
	 7.50000000E-01	 1.00000000E+00	 3.00000000E+00
	 5.00000000E-01	 1.00000000E+00	 3.00000000E+00
	 2.50000000E-01	 1.00000000E+00	 3.00000000E+00
	 5.00000000E-01	 1.00000000E+00	 3.50000000E+00
	 7.50000000E-01	 1.00000000E+00	 4.00000000E+00
	 5.00000000E-01	 1.00000000E+00	 4.00000000E+00
	 2.50000000E-01	 1.00000000E+00	 4.00000000E+00
	 5.00000000E-01	 1.00000000E+00	 4.50000000E+00
	 7.50000000E-01	 1.00000000E+00	 5.00000000E+00
	 5.00000000E-01	 1.00000000E+00	 5.00000000E+00
	 2.50000000E-01	 1.00000000E+00	 5.00000000E+00
	 5.00000000E-01	 1.00000000E+00	 5.50000000E+00
	 7.50000000E-01	 1.00000000E+00	 6.00000000E+00
	 5.00000000E-01	 1.00000000E+00	 6.00000000E+00
	 2.50000000E-01	 1.00000000E+00	 6.00000000E+00
	 5.00000000E-01	 1.00000000E+00	 6.50000000E+00
	 7.50000000E-01	 1.00000000E+00	 7.00000000E+00
	 5.00000000E-01	 1.00000000E+00	 7.00000000E+00
	 2.50000000E-01	 1.00000000E+00	 7.00000000E+00
	 5.00000000E-01	 1.00000000E+00	 7.50000000E+00
	 0.00000000E+00	 5.00000000E-01	 5.00000000E-01
	 0.00000000E+00	 7.50000000E-01	 1.00000000E+00
	 0.00000000E+00	 5.00000000E-01	 1.00000000E+00
	 0.00000000E+00	 2.50000000E-01	 1.00000000E+00
	 0.00000000E+00	 5.00000000E-01	 1.50000000E+00
	 0.00000000E+00	 7.50000000E-01	 2.00000000E+00
	 0.00000000E+00	 5.00000000E-01	 2.00000000E+00
	 0.00000000E+00	 2.50000000E-01	 2.00000000E+00
	 0.00000000E+00	 5.00000000E-01	 2.50000000E+00
	 0.00000000E+00	 7.50000000E-01	 3.00000000E+00
	 0.00000000E+00	 5.00000000E-01	 3.00000000E+00
	 0.00000000E+00	 2.50000000E-01	 3.00000000E+00
	 0.00000000E+00	 5.00000000E-01	 3.50000000E+00
	 0.00000000E+00	 7.50000000E-01	 4.00000000E+00
	 0.00000000E+00	 5.00000000E-01	 4.00000000E+00
	 0.00000000E+00	 2.50000000E-01	 4.00000000E+00
	 0.00000000E+00	 5.00000000E-01	 4.50000000E+00
	 0.00000000E+00	 7.50000000E-01	 5.00000000E+00
	 0.00000000E+00	 5.00000000E-01	 5.00000000E+00
	 0.00000000E+00	 2.50000000E-01	 5.00000000E+00
	 0.00000000E+00	 5.00000000E-01	 5.50000000E+00
	 0.00000000E+00	 7.50000000E-01	 6.00000000E+00
	 0.00000000E+00	 5.00000000E-01	 6.00000000E+00
	 0.00000000E+00	 2.50000000E-01	 6.00000000E+00
	 0.00000000E+00	 5.00000000E-01	 6.50000000E+00
	 0.00000000E+00	 7.50000000E-01	 7.00000000E+00
	 0.00000000E+00	 5.00000000E-01	 7.00000000E+00
	 0.00000000E+00	 2.50000000E-01	 7.00000000E+00
	 0.00000000E+00	 5.00000000E-01	 7.50000000E+00
	 5.00000000E-01	 5.00000000E-01	 5.00000000E-01
	 5.00000000E-01	 2.50000000E-01	 1.00000000E+00
	 2.50000000E-01	 5.00000000E-01	 1.00000000E+00
	 5.00000000E-01	 5.00000000E-01	 1.00000000E+00
	 7.50000000E-01	 5.00000000E-01	 1.00000000E+00
	 5.00000000E-01	 7.50000000E-01	 1.00000000E+00
	 5.00000000E-01	 5.00000000E-01	 1.50000000E+00
	 5.00000000E-01	 2.50000000E-01	 2.00000000E+00
	 2.50000000E-01	 5.00000000E-01	 2.00000000E+00
	 5.00000000E-01	 5.00000000E-01	 2.00000000E+00
	 7.50000000E-01	 5.00000000E-01	 2.00000000E+00
	 5.00000000E-01	 7.50000000E-01	 2.00000000E+00
	 5.00000000E-01	 5.00000000E-01	 2.50000000E+00
	 5.00000000E-01	 2.50000000E-01	 3.00000000E+00
	 2.50000000E-01	 5.00000000E-01	 3.00000000E+00
	 5.00000000E-01	 5.00000000E-01	 3.00000000E+00
	 7.50000000E-01	 5.00000000E-01	 3.00000000E+00
	 5.00000000E-01	 7.50000000E-01	 3.00000000E+00
	 5.00000000E-01	 5.00000000E-01	 3.50000000E+00
	 5.00000000E-01	 2.50000000E-01	 4.00000000E+00
	 2.50000000E-01	 5.00000000E-01	 4.00000000E+00
	 5.00000000E-01	 5.00000000E-01	 4.00000000E+00
	 7.50000000E-01	 5.00000000E-01	 4.00000000E+00
	 5.00000000E-01	 7.50000000E-01	 4.00000000E+00
	 5.00000000E-01	 5.00000000E-01	 4.50000000E+00
	 5.00000000E-01	 2.50000000E-01	 5.00000000E+00
	 2.50000000E-01	 5.00000000E-01	 5.00000000E+00
	 5.00000000E-01	 5.00000000E-01	 5.00000000E+00
	 7.50000000E-01	 5.00000000E-01	 5.00000000E+00
	 5.00000000E-01	 7.50000000E-01	 5.00000000E+00
	 5.00000000E-01	 5.00000000E-01	 5.50000000E+00
	 5.00000000E-01	 2.50000000E-01	 6.00000000E+00
	 2.50000000E-01	 5.00000000E-01	 6.00000000E+00
	 5.00000000E-01	 5.00000000E-01	 6.00000000E+00
	 7.50000000E-01	 5.00000000E-01	 6.00000000E+00
	 5.00000000E-01	 7.50000000E-01	 6.00000000E+00
	 5.00000000E-01	 5.00000000E-01	 6.50000000E+00
	 5.00000000E-01	 2.50000000E-01	 7.00000000E+00
	 2.50000000E-01	 5.00000000E-01	 7.00000000E+00
	 5.00000000E-01	 5.00000000E-01	 7.00000000E+00
	 7.50000000E-01	 5.00000000E-01	 7.00000000E+00
	 5.00000000E-01	 7.50000000E-01	 7.00000000E+00
	 5.00000000E-01	 5.00000000E-01	 7.50000000E+00

CELLS 32 672
	20 0 9 94 18 60 104 221 191 8 92 93 19 103 219 220 192 61 102 218 189 
	20 9 1 12 94 104 33 133 221 10 11 95 92 105 132 222 219 102 32 131 218 
	20 18 94 15 3 191 221 162 78 93 96 16 17 220 223 163 190 189 218 160 77 
	20 94 12 2 15 221 133 63 162 95 13 14 96 222 134 161 223 218 131 62 160 
	20 60 104 221 191 58 108 227 195 103 219 220 192 107 225 226 196 59 106 224 193 
	20 104 33 133 221 108 35 137 227 105 132 222 219 109 136 228 225 106 34 135 224 
	20 191 221 162 78 195 227 166 80 220 223 163 190 226 229 167 194 193 224 164 79 
	20 221 133 63 162 227 137 65 166 222 134 161 223 228 138 165 229 224 135 64 164 
	20 58 108 227 195 56 112 233 199 107 225 226 196 111 231 232 200 57 110 230 197 
	20 108 35 137 227 112 37 141 233 109 136 228 225 113 140 234 231 110 36 139 230 
	20 195 227 166 80 199 233 170 82 226 229 167 194 232 235 171 198 197 230 168 81 
	20 227 137 65 166 233 141 67 170 228 138 165 229 234 142 169 235 230 139 66 168 
	20 56 112 233 199 54 116 239 203 111 231 232 200 115 237 238 204 55 114 236 201 
	20 112 37 141 233 116 39 145 239 113 140 234 231 117 144 240 237 114 38 143 236 
	20 199 233 170 82 203 239 174 84 232 235 171 198 238 241 175 202 201 236 172 83 
	20 233 141 67 170 239 145 69 174 234 142 169 235 240 146 173 241 236 143 68 172 
	20 54 116 239 203 52 120 245 207 115 237 238 204 119 243 244 208 53 118 242 205 
	20 116 39 145 239 120 41 149 245 117 144 240 237 121 148 246 243 118 40 147 242 
	20 203 239 174 84 207 245 178 86 238 241 175 202 244 247 179 206 205 242 176 85 
	20 239 145 69 174 245 149 71 178 240 146 173 241 246 150 177 247 242 147 70 176 
	20 52 120 245 207 50 124 251 211 119 243 244 208 123 249 250 212 51 122 248 209 
	20 120 41 149 245 124 43 153 251 121 148 246 243 125 152 252 249 122 42 151 248 
	20 207 245 178 86 211 251 182 88 244 247 179 206 250 253 183 210 209 248 180 87 
	20 245 149 71 178 251 153 73 182 246 150 177 247 252 154 181 253 248 151 72 180 
	20 50 124 251 211 48 128 257 215 123 249 250 212 127 255 256 216 49 126 254 213 
	20 124 43 153 251 128 45 157 257 125 152 252 249 129 156 258 255 126 44 155 254 
	20 211 251 182 88 215 257 186 90 250 253 183 210 256 259 187 214 213 254 184 89 
	20 251 153 73 182 257 157 75 186 252 154 181 253 258 158 185 259 254 155 74 184 
	20 48 128 257 215 4 21 99 30 127 255 256 216 20 97 98 31 47 130 260 217 
	20 128 45 157 257 21 5 24 99 129 156 258 255 22 23 100 97 130 46 159 260 
	20 215 257 186 90 30 99 27 7 256 259 187 214 98 101 28 29 217 260 188 91 
	20 257 157 75 186 99 24 6 27 258 158 185 259 100 25 26 101 260 159 76 188 

CELL_TYPES 32
	25
	25
	25
	25
	25
	25
	25
	25
	25
	25
	25
	25
	25
	25
	25
	25
	25
	25
	25
	25
	25
	25
	25
	25
	25
	25
	25
	25
	25
	25
	25
	25

POINT_DATA 261
FIELD U 1
	U 3 261 double
		 0.00000000E+00	 0.00000000E+00	 0.00000000E+00
		 0.00000000E+00	 0.00000000E+00	 0.00000000E+00
		 0.00000000E+00	 0.00000000E+00	 0.00000000E+00
		 0.00000000E+00	 0.00000000E+00	 0.00000000E+00
		 1.83899000E-03	 0.00000000E+00	 2.68681000E-04
		 1.83899000E-03	 0.00000000E+00	-2.68681000E-04
		 1.83899000E-03	 0.00000000E+00	-2.68681000E-04
		 1.83899000E-03	 0.00000000E+00	 2.68681000E-04
		 0.00000000E+00	 0.00000000E+00	 0.00000000E+00
		 0.00000000E+00	 0.00000000E+00	 0.00000000E+00
		 0.00000000E+00	 0.00000000E+00	 0.00000000E+00
		 0.00000000E+00	 0.00000000E+00	 0.00000000E+00
		 0.00000000E+00	 0.00000000E+00	 0.00000000E+00
		 0.00000000E+00	 0.00000000E+00	 0.00000000E+00
		 0.00000000E+00	 0.00000000E+00	 0.00000000E+00
		 0.00000000E+00	 0.00000000E+00	 0.00000000E+00
		 0.00000000E+00	 0.00000000E+00	 0.00000000E+00
		 0.00000000E+00	 0.00000000E+00	 0.00000000E+00
		 0.00000000E+00	 0.00000000E+00	 0.00000000E+00
		 0.00000000E+00	 0.00000000E+00	 0.00000000E+00
		 1.82035000E-03	 6.50478000E-06	 1.19268000E-04
		 1.80788000E-03	 0.00000000E+00	 0.00000000E+00
		 1.82035000E-03	-6.50478000E-06	-1.19268000E-04
		 1.81697000E-03	 1.12142000E-06	-2.27939000E-04
		 1.80303000E-03	 0.00000000E+00	-2.05740000E-04
		 1.81697000E-03	-1.12142000E-06	-2.27939000E-04
		 1.82035000E-03	 6.50478000E-06	-1.19268000E-04
		 1.80788000E-03	 0.00000000E+00	 0.00000000E+00
		 1.82035000E-03	-6.50478000E-06	 1.19268000E-04
		 1.81697000E-03	 1.12142000E-06	 2.27939000E-04
		 1.80303000E-03	 0.00000000E+00	 2.05740000E-04
		 1.81697000E-03	-1.12142000E-06	 2.27939000E-04
		 6.83366000E-06	-4.53083000E-06	-1.32769000E-05
		 2.61777000E-05	-3.66045000E-06	-2.74557000E-05
		 6.13985000E-05	-4.33498000E-06	-4.18089000E-05
		 1.09998000E-04	-4.19367000E-06	-5.61558000E-05
		 1.73482000E-04	-4.30041000E-06	-7.03507000E-05
		 2.50958000E-04	-4.28347000E-06	-8.46558000E-05
		 3.42700000E-04	-4.25987000E-06	-9.89553000E-05
		 4.49085000E-04	-4.29848000E-06	-1.13347000E-04
		 5.69014000E-04	-4.31581000E-06	-1.27382000E-04
		 7.04376000E-04	-4.61765000E-06	-1.41540000E-04
		 8.52391000E-04	-3.88252000E-06	-1.56523000E-04
		 1.01837000E-03	-4.60621000E-06	-1.71757000E-04
		 1.19225000E-03	-4.36212000E-06	-1.83016000E-04
		 1.38796000E-03	-9.42051000E-06	-1.95508000E-04
		 1.58919000E-03	 3.35546000E-06	-2.19773000E-04
		 1.58919000E-03	-3.35546000E-06	 2.19773000E-04
		 1.38796000E-03	 9.42051000E-06	 1.95508000E-04
		 1.19225000E-03	 4.36212000E-06	 1.83016000E-04
		 1.01837000E-03	 4.60621000E-06	 1.71757000E-04
		 8.52391000E-04	 3.88252000E-06	 1.56523000E-04
		 7.04376000E-04	 4.61765000E-06	 1.41540000E-04
		 5.69014000E-04	 4.31581000E-06	 1.27382000E-04
		 4.49085000E-04	 4.29848000E-06	 1.13347000E-04
		 3.42700000E-04	 4.25987000E-06	 9.89553000E-05
		 2.50958000E-04	 4.28347000E-06	 8.46558000E-05
		 1.73482000E-04	 4.30041000E-06	 7.03507000E-05
		 1.09998000E-04	 4.19367000E-06	 5.61558000E-05
		 6.13985000E-05	 4.33498000E-06	 4.18089000E-05
		 2.61777000E-05	 3.66045000E-06	 2.74557000E-05
		 6.83366000E-06	 4.53083000E-06	 1.32769000E-05
		 6.83366000E-06	 4.53083000E-06	-1.32769000E-05
		 2.61777000E-05	 3.66045000E-06	-2.74557000E-05
		 6.13985000E-05	 4.33498000E-06	-4.18089000E-05
		 1.09998000E-04	 4.19367000E-06	-5.61558000E-05
		 1.73482000E-04	 4.30041000E-06	-7.03507000E-05
		 2.50958000E-04	 4.28347000E-06	-8.46558000E-05
		 3.42700000E-04	 4.25987000E-06	-9.89553000E-05
		 4.49085000E-04	 4.29848000E-06	-1.13347000E-04
		 5.69014000E-04	 4.31581000E-06	-1.27382000E-04
		 7.04376000E-04	 4.61765000E-06	-1.41540000E-04
		 8.52391000E-04	 3.88252000E-06	-1.56523000E-04
		 1.01837000E-03	 4.60621000E-06	-1.71757000E-04
		 1.19225000E-03	 4.36212000E-06	-1.83016000E-04
		 1.38796000E-03	 9.42051000E-06	-1.95508000E-04
		 1.58919000E-03	-3.35546000E-06	-2.19773000E-04
		 6.83366000E-06	-4.53083000E-06	 1.32769000E-05
		 2.61777000E-05	-3.66045000E-06	 2.74557000E-05
		 6.13985000E-05	-4.33498000E-06	 4.18089000E-05
		 1.09998000E-04	-4.19367000E-06	 5.61558000E-05
		 1.73482000E-04	-4.30041000E-06	 7.03507000E-05
		 2.50958000E-04	-4.28347000E-06	 8.46558000E-05
		 3.42700000E-04	-4.25987000E-06	 9.89553000E-05
		 4.49085000E-04	-4.29848000E-06	 1.13347000E-04
		 5.69014000E-04	-4.31581000E-06	 1.27382000E-04
		 7.04376000E-04	-4.61765000E-06	 1.41540000E-04
		 8.52391000E-04	-3.88252000E-06	 1.56523000E-04
		 1.01837000E-03	-4.60621000E-06	 1.71757000E-04
		 1.19225000E-03	-4.36212000E-06	 1.83016000E-04
		 1.38796000E-03	-9.42051000E-06	 1.95508000E-04
		 1.58919000E-03	 3.35546000E-06	 2.19773000E-04
		 0.00000000E+00	 0.00000000E+00	 0.00000000E+00
		 0.00000000E+00	 0.00000000E+00	 0.00000000E+00
		 0.00000000E+00	 0.00000000E+00	 0.00000000E+00
		 0.00000000E+00	 0.00000000E+00	 0.00000000E+00
		 0.00000000E+00	 0.00000000E+00	 0.00000000E+00
		 1.81116000E-03	 0.00000000E+00	 0.00000000E+00
		 1.80677000E-03	 0.00000000E+00	 1.08162000E-04
		 1.80949000E-03	 0.00000000E+00	 0.00000000E+00
		 1.80677000E-03	 0.00000000E+00	-1.08162000E-04
		 1.81116000E-03	 0.00000000E+00	 0.00000000E+00
		 4.02236000E-06	 0.00000000E+00	 0.00000000E+00
		 2.49037000E-05	 1.84587000E-06	 1.37933000E-05
		 2.49836000E-05	 0.00000000E+00	 0.00000000E+00
		 2.49037000E-05	-1.84587000E-06	-1.37933000E-05
		 5.89723000E-05	 0.00000000E+00	 0.00000000E+00
		 1.08613000E-04	 2.09536000E-06	 2.80507000E-05
		 1.08223000E-04	 0.00000000E+00	 0.00000000E+00
		 1.08613000E-04	-2.09536000E-06	-2.80507000E-05
		 1.71270000E-04	 0.00000000E+00	 0.00000000E+00
		 2.49332000E-04	 2.13218000E-06	 4.23451000E-05
		 2.48803000E-04	 0.00000000E+00	 0.00000000E+00
		 2.49332000E-04	-2.13218000E-06	-4.23451000E-05
		 3.40640000E-04	 0.00000000E+00	 0.00000000E+00
		 4.47268000E-04	 2.19219000E-06	 5.66196000E-05
		 4.46502000E-04	 0.00000000E+00	 0.00000000E+00
		 4.47268000E-04	-2.19219000E-06	-5.66196000E-05
		 5.67186000E-04	 0.00000000E+00	 0.00000000E+00
		 7.02295000E-04	 2.15860000E-06	 7.09766000E-05
		 7.01315000E-04	 0.00000000E+00	 0.00000000E+00
		 7.02295000E-04	-2.15860000E-06	-7.09766000E-05
		 8.50974000E-04	 0.00000000E+00	 0.00000000E+00
		 1.01519000E-03	 2.87262000E-06	 8.49799000E-05
		 1.01312000E-03	 0.00000000E+00	 0.00000000E+00
		 1.01519000E-03	-2.87262000E-06	-8.49799000E-05
		 1.19169000E-03	 0.00000000E+00	 0.00000000E+00
		 1.38475000E-03	 2.79966000E-06	 1.01374000E-04
		 1.38203000E-03	 0.00000000E+00	 0.00000000E+00
		 1.38475000E-03	-2.79966000E-06	-1.01374000E-04
		 1.59115000E-03	 0.00000000E+00	 0.00000000E+00
		 8.79406000E-06	 0.00000000E+00	-1.28474000E-05
		 2.78757000E-05	-1.81409000E-06	-2.75505000E-05
		 2.82742000E-05	 0.00000000E+00	-2.77538000E-05
		 2.78757000E-05	 1.81409000E-06	-2.75505000E-05
		 6.34960000E-05	 0.00000000E+00	-4.17654000E-05
		 1.11580000E-04	-2.09690000E-06	-5.61772000E-05
		 1.12157000E-04	 0.00000000E+00	-5.61902000E-05
		 1.11580000E-04	 2.09690000E-06	-5.61772000E-05
		 1.75638000E-04	 0.00000000E+00	-7.03524000E-05
		 2.52524000E-04	-2.14220000E-06	-8.46702000E-05
		 2.52992000E-04	 0.00000000E+00	-8.46610000E-05
		 2.52524000E-04	 2.14220000E-06	-8.46702000E-05
		 3.44933000E-04	 0.00000000E+00	-9.89451000E-05
		 4.50473000E-04	-2.14676000E-06	-1.13246000E-04
		 4.50841000E-04	 0.00000000E+00	-1.13258000E-04
		 4.50473000E-04	 2.14676000E-06	-1.13246000E-04
		 5.71424000E-04	 0.00000000E+00	-1.27476000E-04
		 7.05652000E-04	-2.31846000E-06	-1.41880000E-04
		 7.05684000E-04	 0.00000000E+00	-1.41812000E-04
		 7.05652000E-04	 2.31846000E-06	-1.41880000E-04
		 8.55142000E-04	 0.00000000E+00	-1.56109000E-04
		 1.01811000E-03	-2.29122000E-06	-1.70491000E-04
		 1.01744000E-03	 0.00000000E+00	-1.70765000E-04
		 1.01811000E-03	 2.29122000E-06	-1.70491000E-04
		 1.19618000E-03	 0.00000000E+00	-1.83969000E-04
		 1.38786000E-03	-4.57575000E-06	-1.99417000E-04
		 1.38441000E-03	 0.00000000E+00	-1.97753000E-04
		 1.38786000E-03	 4.57575000E-06	-1.99417000E-04
		 1.59525000E-03	 0.00000000E+00	-2.12761000E-04
		 4.02236000E-06	 0.00000000E+00	 0.00000000E+00
		 2.49037000E-05	 1.84587000E-06	-1.37933000E-05
		 2.49836000E-05	 0.00000000E+00	 0.00000000E+00
		 2.49037000E-05	-1.84587000E-06	 1.37933000E-05
		 5.89723000E-05	 0.00000000E+00	 0.00000000E+00
		 1.08613000E-04	 2.09536000E-06	-2.80507000E-05
		 1.08223000E-04	 0.00000000E+00	 0.00000000E+00
		 1.08613000E-04	-2.09536000E-06	 2.80507000E-05
		 1.71270000E-04	 0.00000000E+00	 0.00000000E+00
		 2.49332000E-04	 2.13218000E-06	-4.23451000E-05
		 2.48803000E-04	 0.00000000E+00	 0.00000000E+00
		 2.49332000E-04	-2.13218000E-06	 4.23451000E-05
		 3.40640000E-04	 0.00000000E+00	 0.00000000E+00
		 4.47268000E-04	 2.19219000E-06	-5.66196000E-05
		 4.46502000E-04	 0.00000000E+00	 0.00000000E+00
		 4.47268000E-04	-2.19219000E-06	 5.66196000E-05
		 5.67186000E-04	 0.00000000E+00	 0.00000000E+00
		 7.02295000E-04	 2.15860000E-06	-7.09766000E-05
		 7.01315000E-04	 0.00000000E+00	 0.00000000E+00
		 7.02295000E-04	-2.15860000E-06	 7.09766000E-05
		 8.50974000E-04	 0.00000000E+00	 0.00000000E+00
		 1.01519000E-03	 2.87262000E-06	-8.49799000E-05
		 1.01312000E-03	 0.00000000E+00	 0.00000000E+00
		 1.01519000E-03	-2.87262000E-06	 8.49799000E-05
		 1.19169000E-03	 0.00000000E+00	 0.00000000E+00
		 1.38475000E-03	 2.79966000E-06	-1.01374000E-04
		 1.38203000E-03	 0.00000000E+00	 0.00000000E+00
		 1.38475000E-03	-2.79966000E-06	 1.01374000E-04
		 1.59115000E-03	 0.00000000E+00	 0.00000000E+00
		 8.79406000E-06	 0.00000000E+00	 1.28474000E-05
		 2.78757000E-05	-1.81409000E-06	 2.75505000E-05
		 2.82742000E-05	 0.00000000E+00	 2.77538000E-05
		 2.78757000E-05	 1.81409000E-06	 2.75505000E-05
		 6.34960000E-05	 0.00000000E+00	 4.17654000E-05
		 1.11580000E-04	-2.09690000E-06	 5.61772000E-05
		 1.12157000E-04	 0.00000000E+00	 5.61902000E-05
		 1.11580000E-04	 2.09690000E-06	 5.61772000E-05
		 1.75638000E-04	 0.00000000E+00	 7.03524000E-05
		 2.52524000E-04	-2.14220000E-06	 8.46702000E-05
		 2.52992000E-04	 0.00000000E+00	 8.46610000E-05
		 2.52524000E-04	 2.14220000E-06	 8.46702000E-05
		 3.44933000E-04	 0.00000000E+00	 9.89451000E-05
		 4.50473000E-04	-2.14676000E-06	 1.13246000E-04
		 4.50841000E-04	 0.00000000E+00	 1.13258000E-04
		 4.50473000E-04	 2.14676000E-06	 1.13246000E-04
		 5.71424000E-04	 0.00000000E+00	 1.27476000E-04
		 7.05652000E-04	-2.31846000E-06	 1.41880000E-04
		 7.05684000E-04	 0.00000000E+00	 1.41812000E-04
		 7.05652000E-04	 2.31846000E-06	 1.41880000E-04
		 8.55142000E-04	 0.00000000E+00	 1.56109000E-04
		 1.01811000E-03	-2.29122000E-06	 1.70491000E-04
		 1.01744000E-03	 0.00000000E+00	 1.70765000E-04
		 1.01811000E-03	 2.29122000E-06	 1.70491000E-04
		 1.19618000E-03	 0.00000000E+00	 1.83969000E-04
		 1.38786000E-03	-4.57575000E-06	 1.99417000E-04
		 1.38441000E-03	 0.00000000E+00	 1.97753000E-04
		 1.38786000E-03	 4.57575000E-06	 1.99417000E-04
		 1.59525000E-03	 0.00000000E+00	 2.12761000E-04
		 5.98260000E-06	 0.00000000E+00	 0.00000000E+00
		 2.66407000E-05	 0.00000000E+00	 0.00000000E+00
		 2.69254000E-05	 0.00000000E+00	 1.38789000E-05
		 2.69670000E-05	 0.00000000E+00	 0.00000000E+00
		 2.69254000E-05	 0.00000000E+00	-1.38789000E-05
		 2.66407000E-05	 0.00000000E+00	 0.00000000E+00
		 6.11009000E-05	 0.00000000E+00	 0.00000000E+00
		 1.09797000E-04	 0.00000000E+00	 0.00000000E+00
		 1.10769000E-04	 0.00000000E+00	 2.80811000E-05
		 1.10369000E-04	 0.00000000E+00	 0.00000000E+00
		 1.10769000E-04	 0.00000000E+00	-2.80811000E-05
		 1.09797000E-04	 0.00000000E+00	 0.00000000E+00
		 1.73391000E-04	 0.00000000E+00	 0.00000000E+00
		 2.50462000E-04	 0.00000000E+00	 0.00000000E+00
		 2.51471000E-04	 0.00000000E+00	 4.23312000E-05
		 2.51043000E-04	 0.00000000E+00	 0.00000000E+00
		 2.51471000E-04	 0.00000000E+00	-4.23312000E-05
		 2.50462000E-04	 0.00000000E+00	 0.00000000E+00
		 3.42699000E-04	 0.00000000E+00	 0.00000000E+00
		 4.48263000E-04	 0.00000000E+00	 0.00000000E+00
		 4.49345000E-04	 0.00000000E+00	 5.66454000E-05
		 4.48917000E-04	 0.00000000E+00	 0.00000000E+00
		 4.49345000E-04	 0.00000000E+00	-5.66454000E-05
		 4.48263000E-04	 0.00000000E+00	 0.00000000E+00
		 5.69166000E-04	 0.00000000E+00	 0.00000000E+00
		 7.03107000E-04	 0.00000000E+00	 0.00000000E+00
		 7.04283000E-04	 0.00000000E+00	 7.08300000E-05
		 7.03956000E-04	 0.00000000E+00	 0.00000000E+00
		 7.04283000E-04	 0.00000000E+00	-7.08300000E-05
		 7.03107000E-04	 0.00000000E+00	 0.00000000E+00
		 8.52668000E-04	 0.00000000E+00	 0.00000000E+00
		 1.01531000E-03	 0.00000000E+00	 0.00000000E+00
		 1.01619000E-03	 0.00000000E+00	 8.57108000E-05
		 1.01596000E-03	 0.00000000E+00	 0.00000000E+00
		 1.01619000E-03	 0.00000000E+00	-8.57108000E-05
		 1.01531000E-03	 0.00000000E+00	 0.00000000E+00
		 1.19389000E-03	 0.00000000E+00	 0.00000000E+00
		 1.38289000E-03	 0.00000000E+00	 0.00000000E+00
		 1.38361000E-03	 0.00000000E+00	 9.75635000E-05
		 1.38421000E-03	 0.00000000E+00	 0.00000000E+00
		 1.38361000E-03	 0.00000000E+00	-9.75635000E-05
		 1.38289000E-03	 0.00000000E+00	 0.00000000E+00
		 1.59087000E-03	 0.00000000E+00	 0.00000000E+00
