<?xml version="1.0"?>
<VTKFile type="UnstructuredGrid" version="0.1" byte_order="LittleEndian">
	<UnstructuredGrid>
		<Piece NumberOfPoints="261" NumberOfCells="32">
			<Points>
				<DataArray type="Float64" NumberOfComponents="3" format="ascii">
					 0.00000000E+00	 0.00000000E+00	 0.00000000E+00
					 1.00000000E+00	 0.00000000E+00	 0.00000000E+00
					 1.00000000E+00	 1.00000000E+00	 0.00000000E+00
					 0.00000000E+00	 1.00000000E+00	 0.00000000E+00
					 0.00000000E+00	 0.00000000E+00	 8.00000000E+00
					 1.00000000E+00	 0.00000000E+00	 8.00000000E+00
					 1.00000000E+00	 1.00000000E+00	 8.00000000E+00
					 0.00000000E+00	 1.00000000E+00	 8.00000000E+00
					 2.50000000E-01	 0.00000000E+00	 0.00000000E+00
					 5.00000000E-01	 0.00000000E+00	 0.00000000E+00
					 7.50000000E-01	 0.00000000E+00	 0.00000000E+00
					 1.00000000E+00	 2.50000000E-01	 0.00000000E+00
					 1.00000000E+00	 5.00000000E-01	 0.00000000E+00
					 1.00000000E+00	 7.50000000E-01	 0.00000000E+00
					 7.50000000E-01	 1.00000000E+00	 0.00000000E+00
					 5.00000000E-01	 1.00000000E+00	 0.00000000E+00
					 2.50000000E-01	 1.00000000E+00	 0.00000000E+00
					 0.00000000E+00	 7.50000000E-01	 0.00000000E+00
					 0.00000000E+00	 5.00000000E-01	 0.00000000E+00
					 0.00000000E+00	 2.50000000E-01	 0.00000000E+00
					 2.50000000E-01	 0.00000000E+00	 8.00000000E+00
					 5.00000000E-01	 0.00000000E+00	 8.00000000E+00
					 7.50000000E-01	 0.00000000E+00	 8.00000000E+00
					 1.00000000E+00	 2.50000000E-01	 8.00000000E+00
					 1.00000000E+00	 5.00000000E-01	 8.00000000E+00
					 1.00000000E+00	 7.50000000E-01	 8.00000000E+00
					 7.50000000E-01	 1.00000000E+00	 8.00000000E+00
					 5.00000000E-01	 1.00000000E+00	 8.00000000E+00
					 2.50000000E-01	 1.00000000E+00	 8.00000000E+00
					 0.00000000E+00	 7.50000000E-01	 8.00000000E+00
					 0.00000000E+00	 5.00000000E-01	 8.00000000E+00
					 0.00000000E+00	 2.50000000E-01	 8.00000000E+00
					 1.00000000E+00	 0.00000000E+00	 5.00000000E-01
					 1.00000000E+00	 0.00000000E+00	 1.00000000E+00
					 1.00000000E+00	 0.00000000E+00	 1.50000000E+00
					 1.00000000E+00	 0.00000000E+00	 2.00000000E+00
					 1.00000000E+00	 0.00000000E+00	 2.50000000E+00
					 1.00000000E+00	 0.00000000E+00	 3.00000000E+00
					 1.00000000E+00	 0.00000000E+00	 3.50000000E+00
					 1.00000000E+00	 0.00000000E+00	 4.00000000E+00
					 1.00000000E+00	 0.00000000E+00	 4.50000000E+00
					 1.00000000E+00	 0.00000000E+00	 5.00000000E+00
					 1.00000000E+00	 0.00000000E+00	 5.50000000E+00
					 1.00000000E+00	 0.00000000E+00	 6.00000000E+00
					 1.00000000E+00	 0.00000000E+00	 6.50000000E+00
					 1.00000000E+00	 0.00000000E+00	 7.00000000E+00
					 1.00000000E+00	 0.00000000E+00	 7.50000000E+00
					 0.00000000E+00	 0.00000000E+00	 7.50000000E+00
					 0.00000000E+00	 0.00000000E+00	 7.00000000E+00
					 0.00000000E+00	 0.00000000E+00	 6.50000000E+00
					 0.00000000E+00	 0.00000000E+00	 6.00000000E+00
					 0.00000000E+00	 0.00000000E+00	 5.50000000E+00
					 0.00000000E+00	 0.00000000E+00	 5.00000000E+00
					 0.00000000E+00	 0.00000000E+00	 4.50000000E+00
					 0.00000000E+00	 0.00000000E+00	 4.00000000E+00
					 0.00000000E+00	 0.00000000E+00	 3.50000000E+00
					 0.00000000E+00	 0.00000000E+00	 3.00000000E+00
					 0.00000000E+00	 0.00000000E+00	 2.50000000E+00
					 0.00000000E+00	 0.00000000E+00	 2.00000000E+00
					 0.00000000E+00	 0.00000000E+00	 1.50000000E+00
					 0.00000000E+00	 0.00000000E+00	 1.00000000E+00
					 0.00000000E+00	 0.00000000E+00	 5.00000000E-01
					 1.00000000E+00	 1.00000000E+00	 5.00000000E-01
					 1.00000000E+00	 1.00000000E+00	 1.00000000E+00
					 1.00000000E+00	 1.00000000E+00	 1.50000000E+00
					 1.00000000E+00	 1.00000000E+00	 2.00000000E+00
					 1.00000000E+00	 1.00000000E+00	 2.50000000E+00
					 1.00000000E+00	 1.00000000E+00	 3.00000000E+00
					 1.00000000E+00	 1.00000000E+00	 3.50000000E+00
					 1.00000000E+00	 1.00000000E+00	 4.00000000E+00
					 1.00000000E+00	 1.00000000E+00	 4.50000000E+00
					 1.00000000E+00	 1.00000000E+00	 5.00000000E+00
					 1.00000000E+00	 1.00000000E+00	 5.50000000E+00
					 1.00000000E+00	 1.00000000E+00	 6.00000000E+00
					 1.00000000E+00	 1.00000000E+00	 6.50000000E+00
					 1.00000000E+00	 1.00000000E+00	 7.00000000E+00
					 1.00000000E+00	 1.00000000E+00	 7.50000000E+00
					 0.00000000E+00	 1.00000000E+00	 5.00000000E-01
					 0.00000000E+00	 1.00000000E+00	 1.00000000E+00
					 0.00000000E+00	 1.00000000E+00	 1.50000000E+00
					 0.00000000E+00	 1.00000000E+00	 2.00000000E+00
					 0.00000000E+00	 1.00000000E+00	 2.50000000E+00
					 0.00000000E+00	 1.00000000E+00	 3.00000000E+00
					 0.00000000E+00	 1.00000000E+00	 3.50000000E+00
					 0.00000000E+00	 1.00000000E+00	 4.00000000E+00
					 0.00000000E+00	 1.00000000E+00	 4.50000000E+00
					 0.00000000E+00	 1.00000000E+00	 5.00000000E+00
					 0.00000000E+00	 1.00000000E+00	 5.50000000E+00
					 0.00000000E+00	 1.00000000E+00	 6.00000000E+00
					 0.00000000E+00	 1.00000000E+00	 6.50000000E+00
					 0.00000000E+00	 1.00000000E+00	 7.00000000E+00
					 0.00000000E+00	 1.00000000E+00	 7.50000000E+00
					 5.00000000E-01	 2.50000000E-01	 0.00000000E+00
					 2.50000000E-01	 5.00000000E-01	 0.00000000E+00
					 5.00000000E-01	 5.00000000E-01	 0.00000000E+00
					 7.50000000E-01	 5.00000000E-01	 0.00000000E+00
					 5.00000000E-01	 7.50000000E-01	 0.00000000E+00
					 5.00000000E-01	 2.50000000E-01	 8.00000000E+00
					 2.50000000E-01	 5.00000000E-01	 8.00000000E+00
					 5.00000000E-01	 5.00000000E-01	 8.00000000E+00
					 7.50000000E-01	 5.00000000E-01	 8.00000000E+00
					 5.00000000E-01	 7.50000000E-01	 8.00000000E+00
					 5.00000000E-01	 0.00000000E+00	 5.00000000E-01
					 2.50000000E-01	 0.00000000E+00	 1.00000000E+00
					 5.00000000E-01	 0.00000000E+00	 1.00000000E+00
					 7.50000000E-01	 0.00000000E+00	 1.00000000E+00
					 5.00000000E-01	 0.00000000E+00	 1.50000000E+00
					 2.50000000E-01	 0.00000000E+00	 2.00000000E+00
					 5.00000000E-01	 0.00000000E+00	 2.00000000E+00
					 7.50000000E-01	 0.00000000E+00	 2.00000000E+00
					 5.00000000E-01	 0.00000000E+00	 2.50000000E+00
					 2.50000000E-01	 0.00000000E+00	 3.00000000E+00
					 5.00000000E-01	 0.00000000E+00	 3.00000000E+00
					 7.50000000E-01	 0.00000000E+00	 3.00000000E+00
					 5.00000000E-01	 0.00000000E+00	 3.50000000E+00
					 2.50000000E-01	 0.00000000E+00	 4.00000000E+00
					 5.00000000E-01	 0.00000000E+00	 4.00000000E+00
					 7.50000000E-01	 0.00000000E+00	 4.00000000E+00
					 5.00000000E-01	 0.00000000E+00	 4.50000000E+00
					 2.50000000E-01	 0.00000000E+00	 5.00000000E+00
					 5.00000000E-01	 0.00000000E+00	 5.00000000E+00
					 7.50000000E-01	 0.00000000E+00	 5.00000000E+00
					 5.00000000E-01	 0.00000000E+00	 5.50000000E+00
					 2.50000000E-01	 0.00000000E+00	 6.00000000E+00
					 5.00000000E-01	 0.00000000E+00	 6.00000000E+00
					 7.50000000E-01	 0.00000000E+00	 6.00000000E+00
					 5.00000000E-01	 0.00000000E+00	 6.50000000E+00
					 2.50000000E-01	 0.00000000E+00	 7.00000000E+00
					 5.00000000E-01	 0.00000000E+00	 7.00000000E+00
					 7.50000000E-01	 0.00000000E+00	 7.00000000E+00
					 5.00000000E-01	 0.00000000E+00	 7.50000000E+00
					 1.00000000E+00	 5.00000000E-01	 5.00000000E-01
					 1.00000000E+00	 2.50000000E-01	 1.00000000E+00
					 1.00000000E+00	 5.00000000E-01	 1.00000000E+00
					 1.00000000E+00	 7.50000000E-01	 1.00000000E+00
					 1.00000000E+00	 5.00000000E-01	 1.50000000E+00
					 1.00000000E+00	 2.50000000E-01	 2.00000000E+00
					 1.00000000E+00	 5.00000000E-01	 2.00000000E+00
					 1.00000000E+00	 7.50000000E-01	 2.00000000E+00
					 1.00000000E+00	 5.00000000E-01	 2.50000000E+00
					 1.00000000E+00	 2.50000000E-01	 3.00000000E+00
					 1.00000000E+00	 5.00000000E-01	 3.00000000E+00
					 1.00000000E+00	 7.50000000E-01	 3.00000000E+00
					 1.00000000E+00	 5.00000000E-01	 3.50000000E+00
					 1.00000000E+00	 2.50000000E-01	 4.00000000E+00
					 1.00000000E+00	 5.00000000E-01	 4.00000000E+00
					 1.00000000E+00	 7.50000000E-01	 4.00000000E+00
					 1.00000000E+00	 5.00000000E-01	 4.50000000E+00
					 1.00000000E+00	 2.50000000E-01	 5.00000000E+00
					 1.00000000E+00	 5.00000000E-01	 5.00000000E+00
					 1.00000000E+00	 7.50000000E-01	 5.00000000E+00
					 1.00000000E+00	 5.00000000E-01	 5.50000000E+00
					 1.00000000E+00	 2.50000000E-01	 6.00000000E+00
					 1.00000000E+00	 5.00000000E-01	 6.00000000E+00
					 1.00000000E+00	 7.50000000E-01	 6.00000000E+00
					 1.00000000E+00	 5.00000000E-01	 6.50000000E+00
					 1.00000000E+00	 2.50000000E-01	 7.00000000E+00
					 1.00000000E+00	 5.00000000E-01	 7.00000000E+00
					 1.00000000E+00	 7.50000000E-01	 7.00000000E+00
					 1.00000000E+00	 5.00000000E-01	 7.50000000E+00
					 5.00000000E-01	 1.00000000E+00	 5.00000000E-01
					 7.50000000E-01	 1.00000000E+00	 1.00000000E+00
					 5.00000000E-01	 1.00000000E+00	 1.00000000E+00
					 2.50000000E-01	 1.00000000E+00	 1.00000000E+00
					 5.00000000E-01	 1.00000000E+00	 1.50000000E+00
					 7.50000000E-01	 1.00000000E+00	 2.00000000E+00
					 5.00000000E-01	 1.00000000E+00	 2.00000000E+00
					 2.50000000E-01	 1.00000000E+00	 2.00000000E+00
					 5.00000000E-01	 1.00000000E+00	 2.50000000E+00
					 7.50000000E-01	 1.00000000E+00	 3.00000000E+00
					 5.00000000E-01	 1.00000000E+00	 3.00000000E+00
					 2.50000000E-01	 1.00000000E+00	 3.00000000E+00
					 5.00000000E-01	 1.00000000E+00	 3.50000000E+00
					 7.50000000E-01	 1.00000000E+00	 4.00000000E+00
					 5.00000000E-01	 1.00000000E+00	 4.00000000E+00
					 2.50000000E-01	 1.00000000E+00	 4.00000000E+00
					 5.00000000E-01	 1.00000000E+00	 4.50000000E+00
					 7.50000000E-01	 1.00000000E+00	 5.00000000E+00
					 5.00000000E-01	 1.00000000E+00	 5.00000000E+00
					 2.50000000E-01	 1.00000000E+00	 5.00000000E+00
					 5.00000000E-01	 1.00000000E+00	 5.50000000E+00
					 7.50000000E-01	 1.00000000E+00	 6.00000000E+00
					 5.00000000E-01	 1.00000000E+00	 6.00000000E+00
					 2.50000000E-01	 1.00000000E+00	 6.00000000E+00
					 5.00000000E-01	 1.00000000E+00	 6.50000000E+00
					 7.50000000E-01	 1.00000000E+00	 7.00000000E+00
					 5.00000000E-01	 1.00000000E+00	 7.00000000E+00
					 2.50000000E-01	 1.00000000E+00	 7.00000000E+00
					 5.00000000E-01	 1.00000000E+00	 7.50000000E+00
					 0.00000000E+00	 5.00000000E-01	 5.00000000E-01
					 0.00000000E+00	 7.50000000E-01	 1.00000000E+00
					 0.00000000E+00	 5.00000000E-01	 1.00000000E+00
					 0.00000000E+00	 2.50000000E-01	 1.00000000E+00
					 0.00000000E+00	 5.00000000E-01	 1.50000000E+00
					 0.00000000E+00	 7.50000000E-01	 2.00000000E+00
					 0.00000000E+00	 5.00000000E-01	 2.00000000E+00
					 0.00000000E+00	 2.50000000E-01	 2.00000000E+00
					 0.00000000E+00	 5.00000000E-01	 2.50000000E+00
					 0.00000000E+00	 7.50000000E-01	 3.00000000E+00
					 0.00000000E+00	 5.00000000E-01	 3.00000000E+00
					 0.00000000E+00	 2.50000000E-01	 3.00000000E+00
					 0.00000000E+00	 5.00000000E-01	 3.50000000E+00
					 0.00000000E+00	 7.50000000E-01	 4.00000000E+00
					 0.00000000E+00	 5.00000000E-01	 4.00000000E+00
					 0.00000000E+00	 2.50000000E-01	 4.00000000E+00
					 0.00000000E+00	 5.00000000E-01	 4.50000000E+00
					 0.00000000E+00	 7.50000000E-01	 5.00000000E+00
					 0.00000000E+00	 5.00000000E-01	 5.00000000E+00
					 0.00000000E+00	 2.50000000E-01	 5.00000000E+00
					 0.00000000E+00	 5.00000000E-01	 5.50000000E+00
					 0.00000000E+00	 7.50000000E-01	 6.00000000E+00
					 0.00000000E+00	 5.00000000E-01	 6.00000000E+00
					 0.00000000E+00	 2.50000000E-01	 6.00000000E+00
					 0.00000000E+00	 5.00000000E-01	 6.50000000E+00
					 0.00000000E+00	 7.50000000E-01	 7.00000000E+00
					 0.00000000E+00	 5.00000000E-01	 7.00000000E+00
					 0.00000000E+00	 2.50000000E-01	 7.00000000E+00
					 0.00000000E+00	 5.00000000E-01	 7.50000000E+00
					 5.00000000E-01	 5.00000000E-01	 5.00000000E-01
					 5.00000000E-01	 2.50000000E-01	 1.00000000E+00
					 2.50000000E-01	 5.00000000E-01	 1.00000000E+00
					 5.00000000E-01	 5.00000000E-01	 1.00000000E+00
					 7.50000000E-01	 5.00000000E-01	 1.00000000E+00
					 5.00000000E-01	 7.50000000E-01	 1.00000000E+00
					 5.00000000E-01	 5.00000000E-01	 1.50000000E+00
					 5.00000000E-01	 2.50000000E-01	 2.00000000E+00
					 2.50000000E-01	 5.00000000E-01	 2.00000000E+00
					 5.00000000E-01	 5.00000000E-01	 2.00000000E+00
					 7.50000000E-01	 5.00000000E-01	 2.00000000E+00
					 5.00000000E-01	 7.50000000E-01	 2.00000000E+00
					 5.00000000E-01	 5.00000000E-01	 2.50000000E+00
					 5.00000000E-01	 2.50000000E-01	 3.00000000E+00
					 2.50000000E-01	 5.00000000E-01	 3.00000000E+00
					 5.00000000E-01	 5.00000000E-01	 3.00000000E+00
					 7.50000000E-01	 5.00000000E-01	 3.00000000E+00
					 5.00000000E-01	 7.50000000E-01	 3.00000000E+00
					 5.00000000E-01	 5.00000000E-01	 3.50000000E+00
					 5.00000000E-01	 2.50000000E-01	 4.00000000E+00
					 2.50000000E-01	 5.00000000E-01	 4.00000000E+00
					 5.00000000E-01	 5.00000000E-01	 4.00000000E+00
					 7.50000000E-01	 5.00000000E-01	 4.00000000E+00
					 5.00000000E-01	 7.50000000E-01	 4.00000000E+00
					 5.00000000E-01	 5.00000000E-01	 4.50000000E+00
					 5.00000000E-01	 2.50000000E-01	 5.00000000E+00
					 2.50000000E-01	 5.00000000E-01	 5.00000000E+00
					 5.00000000E-01	 5.00000000E-01	 5.00000000E+00
					 7.50000000E-01	 5.00000000E-01	 5.00000000E+00
					 5.00000000E-01	 7.50000000E-01	 5.00000000E+00
					 5.00000000E-01	 5.00000000E-01	 5.50000000E+00
					 5.00000000E-01	 2.50000000E-01	 6.00000000E+00
					 2.50000000E-01	 5.00000000E-01	 6.00000000E+00
					 5.00000000E-01	 5.00000000E-01	 6.00000000E+00
					 7.50000000E-01	 5.00000000E-01	 6.00000000E+00
					 5.00000000E-01	 7.50000000E-01	 6.00000000E+00
					 5.00000000E-01	 5.00000000E-01	 6.50000000E+00
					 5.00000000E-01	 2.50000000E-01	 7.00000000E+00
					 2.50000000E-01	 5.00000000E-01	 7.00000000E+00
					 5.00000000E-01	 5.00000000E-01	 7.00000000E+00
					 7.50000000E-01	 5.00000000E-01	 7.00000000E+00
					 5.00000000E-01	 7.50000000E-01	 7.00000000E+00
					 5.00000000E-01	 5.00000000E-01	 7.50000000E+00

				</DataArray>
			</Points>
			<Cells>
				<DataArray type="Int32" Name="connectivity" format="ascii">
					0 9 94 18 60 104 221 191 8 92 93 19 103 219 220 192 61 102 218 189 9 1 12 94 104 33 133 221 10 11 95 92 105 132 222 219 102 32 131 218 18 94 15 3 191 221 162 78 93 96 16 17 220 223 163 190 189 218 160 77 94 12 2 15 221 133 63 162 95 13 14 96 222 134 161 223 218 131 62 160 60 104 221 191 58 108 227 195 103 219 220 192 107 225 226 196 59 106 224 193 104 33 133 221 108 35 137 227 105 132 222 219 109 136 228 225 106 34 135 224 191 221 162 78 195 227 166 80 220 223 163 190 226 229 167 194 193 224 164 79 221 133 63 162 227 137 65 166 222 134 161 223 228 138 165 229 224 135 64 164 58 108 227 195 56 112 233 199 107 225 226 196 111 231 232 200 57 110 230 197 108 35 137 227 112 37 141 233 109 136 228 225 113 140 234 231 110 36 139 230 195 227 166 80 199 233 170 82 226 229 167 194 232 235 171 198 197 230 168 81 227 137 65 166 233 141 67 170 228 138 165 229 234 142 169 235 230 139 66 168 56 112 233 199 54 116 239 203 111 231 232 200 115 237 238 204 55 114 236 201 112 37 141 233 116 39 145 239 113 140 234 231 117 144 240 237 114 38 143 236 199 233 170 82 203 239 174 84 232 235 171 198 238 241 175 202 201 236 172 83 233 141 67 170 239 145 69 174 234 142 169 235 240 146 173 241 236 143 68 172 54 116 239 203 52 120 245 207 115 237 238 204 119 243 244 208 53 118 242 205 116 39 145 239 120 41 149 245 117 144 240 237 121 148 246 243 118 40 147 242 203 239 174 84 207 245 178 86 238 241 175 202 244 247 179 206 205 242 176 85 239 145 69 174 245 149 71 178 240 146 173 241 246 150 177 247 242 147 70 176 52 120 245 207 50 124 251 211 119 243 244 208 123 249 250 212 51 122 248 209 120 41 149 245 124 43 153 251 121 148 246 243 125 152 252 249 122 42 151 248 207 245 178 86 211 251 182 88 244 247 179 206 250 253 183 210 209 248 180 87 245 149 71 178 251 153 73 182 246 150 177 247 252 154 181 253 248 151 72 180 50 124 251 211 48 128 257 215 123 249 250 212 127 255 256 216 49 126 254 213 124 43 153 251 128 45 157 257 125 152 252 249 129 156 258 255 126 44 155 254 211 251 182 88 215 257 186 90 250 253 183 210 256 259 187 214 213 254 184 89 251 153 73 182 257 157 75 186 252 154 181 253 258 158 185 259 254 155 74 184 48 128 257 215 4 21 99 30 127 255 256 216 20 97 98 31 47 130 260 217 128 45 157 257 21 5 24 99 129 156 258 255 22 23 100 97 130 46 159 260 215 257 186 90 30 99 27 7 256 259 187 214 98 101 28 29 217 260 188 91 257 157 75 186 99 24 6 27 258 158 185 259 100 25 26 101 260 159 76 188 
				</DataArray>
				<DataArray type="Int32" Name="offsets" format="ascii">
					20 40 60 80 100 120 140 160 180 200 220 240 260 280 300 320 340 360 380 400 420 440 460 480 500 520 540 560 580 600 620 640 
				</DataArray>
				<DataArray type="UInt8" Name="types" format="ascii">
					25 25 25 25 25 25 25 25 25 25 25 25 25 25 25 25 25 25 25 25 25 25 25 25 25 25 25 25 25 25 25 25 
				</DataArray>
			</Cells>
			<PointData>
				<DataArray type="Float32" Name="U" NumberOfComponents="3" ComponentName0="D1" ComponentName1="D2" ComponentName2="D3" format="ascii">
					 0.00000000E+00	 0.00000000E+00	 0.00000000E+00
					 0.00000000E+00	 0.00000000E+00	 0.00000000E+00
					 0.00000000E+00	 0.00000000E+00	 0.00000000E+00
					 0.00000000E+00	 0.00000000E+00	 0.00000000E+00
					 1.29602000E-05	 5.22892000E-02	 4.41727000E-03
					-1.32623000E-05	 5.22895000E-02	 4.41788000E-03
					 1.29784000E-05	 5.22463000E-02	-4.79514000E-03
					-1.28626000E-05	 5.22468000E-02	-4.79539000E-03
					 0.00000000E+00	 0.00000000E+00	 0.00000000E+00
					 0.00000000E+00	 0.00000000E+00	 0.00000000E+00
					 0.00000000E+00	 0.00000000E+00	 0.00000000E+00
					 0.00000000E+00	 0.00000000E+00	 0.00000000E+00
					 0.00000000E+00	 0.00000000E+00	 0.00000000E+00
					 0.00000000E+00	 0.00000000E+00	 0.00000000E+00
					 0.00000000E+00	 0.00000000E+00	 0.00000000E+00
					 0.00000000E+00	 0.00000000E+00	 0.00000000E+00
					 0.00000000E+00	 0.00000000E+00	 0.00000000E+00
					 0.00000000E+00	 0.00000000E+00	 0.00000000E+00
					 0.00000000E+00	 0.00000000E+00	 0.00000000E+00
					 0.00000000E+00	 0.00000000E+00	 0.00000000E+00
					 1.20671000E-05	 5.22998000E-02	 4.41561000E-03
					-7.88707000E-08	 5.22468000E-02	 4.41169000E-03
					-1.22653000E-05	 5.23001000E-02	 4.41594000E-03
					 1.30612000E-06	 5.22646000E-02	 2.10345000E-03
					 4.02009000E-07	 5.22253000E-02	-1.89095000E-04
					-9.06211000E-07	 5.22434000E-02	-2.48109000E-03
					 1.20991000E-05	 5.22574000E-02	-4.79351000E-03
					 2.02634000E-09	 5.22050000E-02	-4.78944000E-03
					-1.20332000E-05	 5.22577000E-02	-4.79372000E-03
					 1.16120000E-06	 5.22433000E-02	-2.48067000E-03
					-2.10927000E-07	 5.22248000E-02	-1.88835000E-04
					-1.34153000E-06	 5.22643000E-02	 2.10315000E-03
					-2.08713000E-04	 3.73882000E-04	 6.28779000E-04
					-1.48446000E-04	 1.31924000E-03	 1.24970000E-03
					-1.63761000E-04	 2.94528000E-03	 1.81691000E-03
					-1.37555000E-04	 5.06169000E-03	 2.32020000E-03
					-1.24118000E-04	 7.68609000E-03	 2.75209000E-03
					-1.04154000E-04	 1.06956000E-02	 3.12472000E-03
					-8.90733000E-05	 1.40638000E-02	 3.43648000E-03
					-7.23050000E-05	 1.77205000E-02	 3.69334000E-03
					-5.68265000E-05	 2.16173000E-02	 3.89180000E-03
					-4.20989000E-05	 2.57010000E-02	 4.04069000E-03
					-3.27146000E-05	 2.99006000E-02	 4.14432000E-03
					-2.88504000E-05	 3.42085000E-02	 4.23083000E-03
					-3.06452000E-05	 3.85916000E-02	 4.30544000E-03
					-2.06408000E-05	 4.31129000E-02	 4.38018000E-03
					-1.79857000E-05	 4.76535000E-02	 4.41625000E-03
					 1.81563000E-05	 4.76533000E-02	 4.41602000E-03
					 2.09699000E-05	 4.31121000E-02	 4.37997000E-03
					 3.09543000E-05	 3.85912000E-02	 4.30513000E-03
					 2.87511000E-05	 3.42087000E-02	 4.23074000E-03
					 3.24874000E-05	 2.99008000E-02	 4.14431000E-03
					 4.20778000E-05	 2.57011000E-02	 4.04070000E-03
					 5.70297000E-05	 2.16171000E-02	 3.89180000E-03
					 7.25667000E-05	 1.77203000E-02	 3.69335000E-03
					 8.92355000E-05	 1.40636000E-02	 3.43648000E-03
					 1.04150000E-04	 1.06956000E-02	 3.12472000E-03
					 1.23932000E-04	 7.68626000E-03	 2.75208000E-03
					 1.37247000E-04	 5.06201000E-03	 2.32020000E-03
					 1.63405000E-04	 2.94564000E-03	 1.81690000E-03
					 1.48159000E-04	 1.31953000E-03	 1.24970000E-03
					 2.08560000E-04	 3.74035000E-04	 6.28778000E-04
					 2.08351000E-04	 3.72162000E-04	-6.28013000E-04
					 1.47953000E-04	 1.31527000E-03	-1.24979000E-03
					 1.63271000E-04	 2.93792000E-03	-1.82097000E-03
					 1.37076000E-04	 5.05004000E-03	-2.33192000E-03
					 1.23608000E-04	 7.67016000E-03	-2.77602000E-03
					 1.03614000E-04	 1.06751000E-02	-3.16519000E-03
					 8.85424000E-05	 1.40392000E-02	-3.49799000E-03
					 7.17625000E-05	 1.76920000E-02	-3.77996000E-03
					 5.63599000E-05	 2.15857000E-02	-4.00715000E-03
					 4.16408000E-05	 2.56666000E-02	-4.18792000E-03
					 3.23610000E-05	 2.98643000E-02	-4.32544000E-03
					 2.84020000E-05	 3.41702000E-02	-4.44785000E-03
					 3.05681000E-05	 3.85521000E-02	-4.55982000E-03
					 2.04265000E-05	 4.30710000E-02	-4.67440000E-03
					 1.76643000E-05	 4.76118000E-02	-4.75141000E-03
					-2.08199000E-04	 3.72316000E-04	-6.28019000E-04
					-1.47662000E-04	 1.31556000E-03	-1.24980000E-03
					-1.62909000E-04	 2.93827000E-03	-1.82097000E-03
					-1.36757000E-04	 5.05036000E-03	-2.33193000E-03
					-1.23423000E-04	 7.67034000E-03	-2.77603000E-03
					-1.03631000E-04	 1.06751000E-02	-3.16520000E-03
					-8.87432000E-05	 1.40390000E-02	-3.49799000E-03
					-7.20569000E-05	 1.76917000E-02	-3.77996000E-03
					-5.65757000E-05	 2.15854000E-02	-4.00714000E-03
					-4.16272000E-05	 2.56667000E-02	-4.18792000E-03
					-3.21224000E-05	 2.98645000E-02	-4.32550000E-03
					-2.83060000E-05	 3.41706000E-02	-4.44789000E-03
					-3.07968000E-05	 3.85516000E-02	-4.55954000E-03
					-2.08445000E-05	 4.30707000E-02	-4.67412000E-03
					-1.80589000E-05	 4.76110000E-02	-4.75133000E-03
					 0.00000000E+00	 0.00000000E+00	 0.00000000E+00
					 0.00000000E+00	 0.00000000E+00	 0.00000000E+00
					 0.00000000E+00	 0.00000000E+00	 0.00000000E+00
					 0.00000000E+00	 0.00000000E+00	 0.00000000E+00
					 0.00000000E+00	 0.00000000E+00	 0.00000000E+00
					-3.13760000E-08	 5.23591000E-02	 2.12524000E-03
					-3.06743000E-08	 5.23055000E-02	-1.88788000E-04
					 4.98060000E-08	 5.24975000E-02	-1.88979000E-04
					 1.64778000E-07	 5.23057000E-02	-1.88913000E-04
					 2.86365000E-08	 5.23377000E-02	-2.50367000E-03
					-7.92534000E-08	 4.63243000E-04	 6.11078000E-04
					 7.32280000E-05	 1.39168000E-03	 1.25857000E-03
					-1.43886000E-07	 1.40744000E-03	 1.26752000E-03
					-7.35152000E-05	 1.39153000E-03	 1.25854000E-03
					-1.72121000E-07	 3.02305000E-03	 1.81822000E-03
					 6.85486000E-05	 5.11511000E-03	 2.32577000E-03
					-1.54497000E-07	 5.13596000E-03	 2.32615000E-03
					-6.88574000E-05	 5.11496000E-03	 2.32578000E-03
					-8.95135000E-08	 7.74668000E-03	 2.75537000E-03
					 5.20078000E-05	 1.07355000E-02	 3.12836000E-03
					-5.50666000E-09	 1.07484000E-02	 3.12818000E-03
					-5.20156000E-05	 1.07355000E-02	 3.12839000E-03
					 7.98710000E-08	 1.41087000E-02	 3.43976000E-03
					 3.64084000E-05	 1.77461000E-02	 3.69642000E-03
					 1.21615000E-07	 1.77536000E-02	 3.69560000E-03
					-3.61548000E-05	 1.77462000E-02	 3.69642000E-03
					 9.70627000E-08	 2.16480000E-02	 3.89563000E-03
					 2.09111000E-05	 2.57111000E-02	 4.04256000E-03
					-1.25143000E-08	 2.57122000E-02	 4.04081000E-03
					-2.09357000E-05	 2.57110000E-02	 4.04250000E-03
					-9.45932000E-08	 2.99243000E-02	 4.14650000E-03
					 1.47364000E-05	 3.42109000E-02	 4.22671000E-03
					-5.01016000E-08	 3.42015000E-02	 4.22362000E-03
					-1.48298000E-05	 3.42108000E-02	 4.22683000E-03
					 1.76493000E-07	 3.86205000E-02	 4.31343000E-03
					 9.74309000E-06	 4.30866000E-02	 4.37693000E-03
					 1.91517000E-07	 4.30711000E-02	 4.37161000E-03
					-9.39407000E-06	 4.30871000E-02	 4.37712000E-03
					 1.25249000E-07	 4.77044000E-02	 4.42189000E-03
					-1.01159000E-07	 2.45255000E-04	 4.16977000E-07
					-7.49133000E-05	 1.26804000E-03	 6.17083000E-04
					-6.49080000E-08	 1.27571000E-03	 1.59708000E-07
					 7.46420000E-05	 1.26603000E-03	-6.16892000E-04
					-1.06400000E-07	 2.84615000E-03	-1.63143000E-06
					-6.86786000E-05	 5.01804000E-03	 1.14646000E-03
					-1.53623000E-07	 5.00621000E-03	-5.54754000E-06
					 6.83010000E-05	 5.01230000E-03	-1.15765000E-03
					-1.88211000E-07	 7.61061000E-03	-1.15455000E-05
					-5.22469000E-05	 1.06539000E-02	 1.54365000E-03
					-2.13826000E-07	 1.06396000E-02	-1.99058000E-05
					 5.17723000E-05	 1.06438000E-02	-1.58362000E-03
					-2.32898000E-07	 1.40058000E-02	-3.04029000E-05
					-3.62318000E-05	 1.76864000E-02	 1.81650000E-03
					-2.37735000E-07	 1.76703000E-02	-4.29960000E-05
					 3.57255000E-05	 1.76723000E-02	-1.90266000E-03
					-2.34199000E-07	 2.15738000E-02	-5.74492000E-05
					-2.13342000E-05	 2.56727000E-02	 1.97699000E-03
					-1.89881000E-07	 2.56548000E-02	-7.33625000E-05
					 2.09120000E-05	 2.56556000E-02	-2.12387000E-03
					-1.84906000E-07	 2.98708000E-02	-9.04723000E-05
					-1.40187000E-05	 3.41812000E-02	 2.06096000E-03
					-1.26661000E-07	 3.41600000E-02	-1.08229000E-04
					 1.36714000E-05	 3.41621000E-02	-2.27765000E-03
					-2.61281000E-07	 3.85660000E-02	-1.27181000E-04
					-1.22017000E-05	 4.30612000E-02	 2.11450000E-03
					 3.35486000E-08	 4.30198000E-02	-1.46554000E-04
					 1.20166000E-05	 4.30402000E-02	-2.40805000E-03
					-1.80463000E-07	 4.76806000E-02	-1.67832000E-04
					 7.98954000E-08	 4.61537000E-04	-6.10579000E-04
					 7.33266000E-05	 1.38742000E-03	-1.25903000E-03
					 1.44298000E-07	 1.40337000E-03	-1.26812000E-03
					-7.30365000E-05	 1.38757000E-03	-1.25905000E-03
					 1.77114000E-07	 3.01556000E-03	-1.82290000E-03
					 6.86398000E-05	 5.10323000E-03	-2.33805000E-03
					 1.59255000E-07	 5.12427000E-03	-2.33861000E-03
					-6.83205000E-05	 5.10339000E-03	-2.33804000E-03
					 9.04013000E-08	 7.73067000E-03	-2.78000000E-03
					 5.17549000E-05	 1.07150000E-02	-3.16937000E-03
					-4.92405000E-09	 1.07279000E-02	-3.16933000E-03
					-5.17685000E-05	 1.07150000E-02	-3.16935000E-03
					-1.00021000E-07	 1.40840000E-02	-3.50191000E-03
					 3.58774000E-05	 1.77176000E-02	-3.78341000E-03
					-1.42972000E-07	 1.77250000E-02	-3.78269000E-03
					-3.61697000E-05	 1.77175000E-02	-3.78341000E-03
					-1.01944000E-07	 2.16162000E-02	-4.01147000E-03
					 2.07076000E-05	 2.56767000E-02	-4.18988000E-03
					 7.72856000E-09	 2.56780000E-02	-4.18819000E-03
					-2.06892000E-05	 2.56767000E-02	-4.18994000E-03
					 1.06085000E-07	 2.98879000E-02	-4.32806000E-03
					 1.45926000E-05	 3.41729000E-02	-4.44387000E-03
					 2.30903000E-08	 3.41638000E-02	-4.44054000E-03
					-1.45322000E-05	 3.41730000E-02	-4.44380000E-03
					-1.28480000E-07	 3.85806000E-02	-4.56840000E-03
					 9.25644000E-06	 4.30460000E-02	-4.67109000E-03
					-2.59703000E-07	 4.30308000E-02	-4.66542000E-03
					-9.72132000E-06	 4.30458000E-02	-4.67094000E-03
					-1.42638000E-07	 4.76618000E-02	-4.75752000E-03
					 1.01453000E-07	 2.45416000E-04	 4.18403000E-07
					-7.44959000E-05	 1.26631000E-03	-6.16868000E-04
					 6.54640000E-08	 1.27600000E-03	 1.61387000E-07
					 7.47704000E-05	 1.26832000E-03	 6.17058000E-04
					 1.10209000E-07	 2.84650000E-03	-1.63096000E-06
					-6.81409000E-05	 5.01262000E-03	-1.15768000E-03
					 1.56356000E-07	 5.00652000E-03	-5.54916000E-06
					 6.85267000E-05	 5.01835000E-03	 1.14647000E-03
					 1.88244000E-07	 7.61079000E-03	-1.15526000E-05
					-5.17863000E-05	 1.06438000E-02	-1.58366000E-03
					 2.02341000E-07	 1.06396000E-02	-1.99142000E-05
					 5.22400000E-05	 1.06539000E-02	 1.54367000E-03
					 2.15515000E-07	 1.40056000E-02	-3.04070000E-05
					-3.58825000E-05	 1.76720000E-02	-1.90266000E-03
					 2.18348000E-07	 1.76700000E-02	-4.29958000E-05
					 3.63498000E-05	 1.76862000E-02	 1.81652000E-03
					 2.24364000E-07	 2.15736000E-02	-5.74350000E-05
					-2.09019000E-05	 2.56556000E-02	-2.12382000E-03
					 1.89727000E-07	 2.56548000E-02	-7.33502000E-05
					 2.13236000E-05	 2.56727000E-02	 1.97694000E-03
					 1.94018000E-07	 2.98711000E-02	-9.04722000E-05
					-1.36450000E-05	 3.41623000E-02	-2.27769000E-03
					 1.27001000E-07	 3.41600000E-02	-1.08246000E-04
					 1.39789000E-05	 3.41813000E-02	 2.06097000E-03
					 2.20264000E-07	 3.85658000E-02	-1.27127000E-04
					-1.21562000E-05	 4.30396000E-02	-2.40800000E-03
					 2.46455000E-08	 4.30189000E-02	-1.46583000E-04
					 1.23467000E-05	 4.30603000E-02	 2.11432000E-03
					 2.16207000E-07	 4.76804000E-02	-1.67825000E-04
					 0.00000000E+00	 3.33826000E-04	 2.60515000E-07
					-7.15428000E-08	 1.35195000E-03	 6.25060000E-04
					 2.59306000E-08	 1.34542000E-03	-6.66454000E-09
					 0.00000000E+00	 1.35718000E-03	-4.77209000E-08
					-2.49603000E-08	 1.34528000E-03	-6.89716000E-09
					 7.23647000E-08	 1.34987000E-03	-6.25337000E-04
					 1.64816000E-09	 2.92645000E-03	-1.94383000E-06
					-7.60163000E-08	 5.09006000E-03	 1.15172000E-03
					 7.59866000E-08	 5.05695000E-03	-5.81156000E-06
					 2.60636000E-09	 5.07557000E-03	-5.88763000E-06
					-7.16967000E-08	 5.05680000E-03	-5.81026000E-06
					 8.06812000E-08	 5.08428000E-03	-1.16362000E-03
					 0.00000000E+00	 7.67258000E-03	-1.19051000E-05
					-4.90448000E-09	 1.07068000E-02	 1.54696000E-03
					 9.68091000E-08	 1.06797000E-02	-2.01695000E-05
					-4.27695000E-09	 1.06925000E-02	-2.02520000E-05
					-1.06618000E-07	 1.06797000E-02	-2.01662000E-05
					-4.83709000E-09	 1.06967000E-02	-1.58762000E-03
					-1.00426000E-08	 1.40494000E-02	-3.07097000E-05
					 5.77540000E-08	 1.77227000E-02	 1.81930000E-03
					 1.03922000E-07	 1.76986000E-02	-4.32200000E-05
					-7.93523000E-09	 1.77099000E-02	-4.33028000E-05
					-1.22311000E-07	 1.76988000E-02	-4.32210000E-05
					-7.49545000E-08	 1.77085000E-02	-1.90601000E-03