    1C
    1UModel: beam     Date: 10-Mar-1998                                 
    1UUSER                                                              
    1UDATE              01.august.2019                                  
    1UTIME              09:25:07                                        
    1UHOST                                                              
    1UPGM               CalculiX                                        
    1UVERSION           Version 2.15                             
    1UCOMPILETIME       Fri 15 Mar 11:57:46 CET 2019                    
    1UDIR                                                               
    1UDBN                                                               
    1UMAT    1EL                                                        
    2C                            81                                     1
 -1         1 0.00000E+00 0.00000E+00 0.00000E+00
 -1         2 1.00000E+00 0.00000E+00 0.00000E+00
 -1         3 1.00000E+00 1.00000E+00 0.00000E+00
 -1         4 0.00000E+00 1.00000E+00 0.00000E+00
 -1         5 0.00000E+00 0.00000E+00 8.00000E+00
 -1         6 1.00000E+00 0.00000E+00 8.00000E+00
 -1         7 1.00000E+00 1.00000E+00 8.00000E+00
 -1         8 0.00000E+00 1.00000E+00 8.00000E+00
 -1        10 5.00000E-01 0.00000E+00 0.00000E+00
 -1        13 1.00000E+00 5.00000E-01 0.00000E+00
 -1        16 5.00000E-01 1.00000E+00 0.00000E+00
 -1        19 0.00000E+00 5.00000E-01 0.00000E+00
 -1        22 5.00000E-01 0.00000E+00 8.00000E+00
 -1        25 1.00000E+00 5.00000E-01 8.00000E+00
 -1        28 5.00000E-01 1.00000E+00 8.00000E+00
 -1        31 0.00000E+00 5.00000E-01 8.00000E+00
 -1        34 1.00000E+00 0.00000E+00 1.00000E+00
 -1        36 1.00000E+00 0.00000E+00 2.00000E+00
 -1        38 1.00000E+00 0.00000E+00 3.00000E+00
 -1        40 1.00000E+00 0.00000E+00 4.00000E+00
 -1        42 1.00000E+00 0.00000E+00 5.00000E+00
 -1        44 1.00000E+00 0.00000E+00 6.00000E+00
 -1        46 1.00000E+00 0.00000E+00 7.00000E+00
 -1        49 0.00000E+00 0.00000E+00 7.00000E+00
 -1        51 0.00000E+00 0.00000E+00 6.00000E+00
 -1        53 0.00000E+00 0.00000E+00 5.00000E+00
 -1        55 0.00000E+00 0.00000E+00 4.00000E+00
 -1        57 0.00000E+00 0.00000E+00 3.00000E+00
 -1        59 0.00000E+00 0.00000E+00 2.00000E+00
 -1        61 0.00000E+00 0.00000E+00 1.00000E+00
 -1        64 1.00000E+00 1.00000E+00 1.00000E+00
 -1        66 1.00000E+00 1.00000E+00 2.00000E+00
 -1        68 1.00000E+00 1.00000E+00 3.00000E+00
 -1        70 1.00000E+00 1.00000E+00 4.00000E+00
 -1        72 1.00000E+00 1.00000E+00 5.00000E+00
 -1        74 1.00000E+00 1.00000E+00 6.00000E+00
 -1        76 1.00000E+00 1.00000E+00 7.00000E+00
 -1        79 0.00000E+00 1.00000E+00 1.00000E+00
 -1        81 0.00000E+00 1.00000E+00 2.00000E+00
 -1        83 0.00000E+00 1.00000E+00 3.00000E+00
 -1        85 0.00000E+00 1.00000E+00 4.00000E+00
 -1        87 0.00000E+00 1.00000E+00 5.00000E+00
 -1        89 0.00000E+00 1.00000E+00 6.00000E+00
 -1        91 0.00000E+00 1.00000E+00 7.00000E+00
 -1        95 5.00000E-01 5.00000E-01 0.00000E+00
 -1       100 5.00000E-01 5.00000E-01 8.00000E+00
 -1       105 5.00000E-01 0.00000E+00 1.00000E+00
 -1       109 5.00000E-01 0.00000E+00 2.00000E+00
 -1       113 5.00000E-01 0.00000E+00 3.00000E+00
 -1       117 5.00000E-01 0.00000E+00 4.00000E+00
 -1       121 5.00000E-01 0.00000E+00 5.00000E+00
 -1       125 5.00000E-01 0.00000E+00 6.00000E+00
 -1       129 5.00000E-01 0.00000E+00 7.00000E+00
 -1       134 1.00000E+00 5.00000E-01 1.00000E+00
 -1       138 1.00000E+00 5.00000E-01 2.00000E+00
 -1       142 1.00000E+00 5.00000E-01 3.00000E+00
 -1       146 1.00000E+00 5.00000E-01 4.00000E+00
 -1       150 1.00000E+00 5.00000E-01 5.00000E+00
 -1       154 1.00000E+00 5.00000E-01 6.00000E+00
 -1       158 1.00000E+00 5.00000E-01 7.00000E+00
 -1       163 5.00000E-01 1.00000E+00 1.00000E+00
 -1       167 5.00000E-01 1.00000E+00 2.00000E+00
 -1       171 5.00000E-01 1.00000E+00 3.00000E+00
 -1       175 5.00000E-01 1.00000E+00 4.00000E+00
 -1       179 5.00000E-01 1.00000E+00 5.00000E+00
 -1       183 5.00000E-01 1.00000E+00 6.00000E+00
 -1       187 5.00000E-01 1.00000E+00 7.00000E+00
 -1       192 0.00000E+00 5.00000E-01 1.00000E+00
 -1       196 0.00000E+00 5.00000E-01 2.00000E+00
 -1       200 0.00000E+00 5.00000E-01 3.00000E+00
 -1       204 0.00000E+00 5.00000E-01 4.00000E+00
 -1       208 0.00000E+00 5.00000E-01 5.00000E+00
 -1       212 0.00000E+00 5.00000E-01 6.00000E+00
 -1       216 0.00000E+00 5.00000E-01 7.00000E+00
 -1       222 5.00000E-01 5.00000E-01 1.00000E+00
 -1       228 5.00000E-01 5.00000E-01 2.00000E+00
 -1       234 5.00000E-01 5.00000E-01 3.00000E+00
 -1       240 5.00000E-01 5.00000E-01 4.00000E+00
 -1       246 5.00000E-01 5.00000E-01 5.00000E+00
 -1       252 5.00000E-01 5.00000E-01 6.00000E+00
 -1       258 5.00000E-01 5.00000E-01 7.00000E+00
 -3
    3C                            32                                     1
 -1         1    1    0    1
 -2         1        10        95        19        61       105       222       192
 -1         2    1    0    1
 -2        10         2        13        95       105        34       134       222
 -1         3    1    0    1
 -2        19        95        16         4       192       222       163        79
 -1         4    1    0    1
 -2        95        13         3        16       222       134        64       163
 -1         5    1    0    1
 -2        61       105       222       192        59       109       228       196
 -1         6    1    0    1
 -2       105        34       134       222       109        36       138       228
 -1         7    1    0    1
 -2       192       222       163        79       196       228       167        81
 -1         8    1    0    1
 -2       222       134        64       163       228       138        66       167
 -1         9    1    0    1
 -2        59       109       228       196        57       113       234       200
 -1        10    1    0    1
 -2       109        36       138       228       113        38       142       234
 -1        11    1    0    1
 -2       196       228       167        81       200       234       171        83
 -1        12    1    0    1
 -2       228       138        66       167       234       142        68       171
 -1        13    1    0    1
 -2        57       113       234       200        55       117       240       204
 -1        14    1    0    1
 -2       113        38       142       234       117        40       146       240
 -1        15    1    0    1
 -2       200       234       171        83       204       240       175        85
 -1        16    1    0    1
 -2       234       142        68       171       240       146        70       175
 -1        17    1    0    1
 -2        55       117       240       204        53       121       246       208
 -1        18    1    0    1
 -2       117        40       146       240       121        42       150       246
 -1        19    1    0    1
 -2       204       240       175        85       208       246       179        87
 -1        20    1    0    1
 -2       240       146        70       175       246       150        72       179
 -1        21    1    0    1
 -2        53       121       246       208        51       125       252       212
 -1        22    1    0    1
 -2       121        42       150       246       125        44       154       252
 -1        23    1    0    1
 -2       208       246       179        87       212       252       183        89
 -1        24    1    0    1
 -2       246       150        72       179       252       154        74       183
 -1        25    1    0    1
 -2        51       125       252       212        49       129       258       216
 -1        26    1    0    1
 -2       125        44       154       252       129        46       158       258
 -1        27    1    0    1
 -2       212       252       183        89       216       258       187        91
 -1        28    1    0    1
 -2       252       154        74       183       258       158        76       187
 -1        29    1    0    1
 -2        49       129       258       216         5        22       100        31
 -1        30    1    0    1
 -2       129        46       158       258        22         6        25       100
 -1        31    1    0    1
 -2       216       258       187        91        31       100        28         8
 -1        32    1    0    1
 -2       258       158        76       187       100        25         7        28
 -3
    1PSTEP                         1           1           1          
  100CL  101 1.000000000          81                     0    1           1
 -4  DISP        4    1
 -5  D1          1    2    1    0
 -5  D2          1    2    2    0
 -5  D3          1    2    3    0
 -5  ALL         1    2    0    0    1ALL
 -1         1 0.00000E+00 0.00000E+00 0.00000E+00
 -1         2 0.00000E+00 0.00000E+00 0.00000E+00
 -1         3 0.00000E+00 0.00000E+00 0.00000E+00
 -1         4 0.00000E+00 0.00000E+00 0.00000E+00
 -1         5 3.95069E-02 3.95069E-02 3.69317E+00
 -1         6-3.95069E-02 3.95069E-02 3.69317E+00
 -1         7-3.95069E-02-3.95069E-02 3.69317E+00
 -1         8 3.95069E-02-3.95069E-02 3.69317E+00
 -1        10 0.00000E+00 0.00000E+00 0.00000E+00
 -1        13 0.00000E+00 0.00000E+00 0.00000E+00
 -1        16 0.00000E+00 0.00000E+00 0.00000E+00
 -1        19 0.00000E+00 0.00000E+00 0.00000E+00
 -1        22 8.52684E-13 2.34086E-02 3.42371E+00
 -1        25-2.34086E-02 7.88116E-13 3.42371E+00
 -1        28 8.91892E-13-2.34086E-02 3.42371E+00
 -1        31 2.34086E-02 8.27436E-13 3.42371E+00
 -1        34-8.24414E-02 8.24414E-02 4.35572E-01
 -1        36-6.99543E-02 6.99543E-02 9.05998E-01
 -1        38-7.14760E-02 7.14760E-02 1.38474E+00
 -1        40-7.20135E-02 7.20135E-02 1.86080E+00
 -1        42-6.94768E-02 6.94768E-02 2.33478E+00
 -1        44-7.57606E-02 7.57606E-02 2.81912E+00
 -1        46-6.97539E-02 6.97539E-02 3.28253E+00
 -1        49 6.97539E-02 6.97539E-02 3.28253E+00
 -1        51 7.57606E-02 7.57606E-02 2.81912E+00
 -1        53 6.94768E-02 6.94768E-02 2.33478E+00
 -1        55 7.20135E-02 7.20135E-02 1.86080E+00
 -1        57 7.14760E-02 7.14760E-02 1.38474E+00
 -1        59 6.99543E-02 6.99543E-02 9.05998E-01
 -1        61 8.24414E-02 8.24414E-02 4.35572E-01
 -1        64-8.24414E-02-8.24414E-02 4.35572E-01
 -1        66-6.99543E-02-6.99543E-02 9.05998E-01
 -1        68-7.14760E-02-7.14760E-02 1.38474E+00
 -1        70-7.20135E-02-7.20135E-02 1.86080E+00
 -1        72-6.94768E-02-6.94768E-02 2.33478E+00
 -1        74-7.57606E-02-7.57606E-02 2.81912E+00
 -1        76-6.97539E-02-6.97539E-02 3.28253E+00
 -1        79 8.24414E-02-8.24414E-02 4.35572E-01
 -1        81 6.99543E-02-6.99543E-02 9.05998E-01
 -1        83 7.14760E-02-7.14760E-02 1.38474E+00
 -1        85 7.20135E-02-7.20135E-02 1.86080E+00
 -1        87 6.94768E-02-6.94768E-02 2.33478E+00
 -1        89 7.57606E-02-7.57606E-02 2.81912E+00
 -1        91 6.97539E-02-6.97539E-02 3.28253E+00
 -1        95 0.00000E+00 0.00000E+00 0.00000E+00
 -1       100 8.72207E-13 8.07810E-13 4.52043E+00
 -1       105 1.88051E-14 8.24653E-02 4.24438E-01
 -1       109 8.05050E-14 7.05300E-02 9.09050E-01
 -1       113 1.75701E-13 7.14394E-02 1.38414E+00
 -1       117 2.94154E-13 7.07662E-02 1.86054E+00
 -1       121 4.25240E-13 7.51077E-02 2.33808E+00
 -1       125 5.63189E-13 5.54595E-02 2.80025E+00
 -1       129 7.05797E-13 1.23106E-01 3.36379E+00
 -1       134-8.24653E-02 1.95055E-14 4.24438E-01
 -1       138-7.05300E-02 8.13932E-14 9.09050E-01
 -1       142-7.14394E-02 1.73284E-13 1.38414E+00
 -1       146-7.07662E-02 2.84378E-13 1.86054E+00
 -1       150-7.51077E-02 4.06607E-13 2.33808E+00
 -1       154-5.54595E-02 5.34110E-13 2.80025E+00
 -1       158-1.23106E-01 6.61541E-13 3.36379E+00
 -1       163 2.60917E-14-8.24653E-02 4.24438E-01
 -1       167 9.50871E-14-7.05300E-02 9.09050E-01
 -1       171 1.96278E-13-7.14394E-02 1.38414E+00
 -1       175 3.20730E-13-7.07662E-02 1.86054E+00
 -1       179 4.57110E-13-7.51077E-02 2.33808E+00
 -1       183 5.98038E-13-5.54595E-02 2.80025E+00
 -1       187 7.43499E-13-1.23106E-01 3.36379E+00
 -1       192 8.24653E-02 2.67911E-14 4.24438E-01
 -1       196 7.05300E-02 9.59788E-14 9.09050E-01
 -1       200 7.14394E-02 1.94170E-13 1.38414E+00
 -1       204 7.07662E-02 3.10973E-13 1.86054E+00
 -1       208 7.51077E-02 4.38469E-13 2.33808E+00
 -1       212 5.54595E-02 5.69315E-13 2.80025E+00
 -1       216 1.23106E-01 6.98937E-13 3.36379E+00
 -1       222 2.43048E-14 2.50306E-14 4.13215E-01
 -1       228 8.90783E-14 8.97206E-14 9.12058E-01
 -1       234 1.86844E-13 1.84566E-13 1.38394E+00
 -1       240 3.07907E-13 2.98199E-13 1.85979E+00
 -1       246 4.41191E-13 4.22659E-13 2.33834E+00
 -1       252 5.80976E-13 5.51809E-13 2.81743E+00
 -1       258 7.24757E-13 6.80227E-13 3.19746E+00
 -3
    1PSTEP                         2           1           2          
    1PGM                1.000000E+00                                  
    1PGK                5.454937E+11                                  
    1PHID                         -1                                  
    1PSUBC                         0                                  
    1PMODE                         1                                  
  100CL  102 117547.9305          81                     2    2MODAL      1
 -4  DISP        4    1
 -5  D1          1    2    1    0
 -5  D2          1    2    2    0
 -5  D3          1    2    3    0
 -5  ALL         1    2    0    0    1ALL
 -1         1 0.00000E+00 0.00000E+00 0.00000E+00
 -1         2 0.00000E+00 0.00000E+00 0.00000E+00
 -1         3 0.00000E+00 0.00000E+00 0.00000E+00
 -1         4 0.00000E+00 0.00000E+00 0.00000E+00
 -1         5-2.37306E+03 5.37926E+03 6.61689E+00
 -1         6-2.28857E+03 5.34253E+03 1.67967E+01
 -1         7-2.37306E+03 5.37926E+03-6.61689E+00
 -1         8-2.28857E+03 5.34253E+03-1.67967E+01
 -1        10 0.00000E+00 0.00000E+00 0.00000E+00
 -1        13 0.00000E+00 0.00000E+00 0.00000E+00
 -1        16 0.00000E+00 0.00000E+00 0.00000E+00
 -1        19 0.00000E+00 0.00000E+00 0.00000E+00
 -1        22-2.33948E+03 5.32748E+03 5.22187E+00
 -1        25-2.31629E+03 5.38082E+03 2.27037E+00
 -1        28-2.33948E+03 5.32748E+03-5.22187E+00
 -1        31-2.31629E+03 5.38082E+03-2.27037E+00
 -1        34-3.96796E+02 8.10392E+02 3.23765E+02
 -1        36-7.72839E+02 1.77740E+03 4.04964E+02
 -1        38-1.19083E+03 2.75316E+03 3.80871E+02
 -1        40-1.56341E+03 3.61698E+03 3.27915E+02
 -1        42-1.87160E+03 4.33215E+03 2.60706E+02
 -1        44-2.10347E+03 4.86520E+03 1.76520E+02
 -1        46-2.24875E+03 5.19966E+03 9.68599E+01
 -1        49-2.27826E+03 5.21249E+03 3.81571E+01
 -1        51-2.13265E+03 4.87789E+03 6.95386E+01
 -1        53-1.90104E+03 4.34495E+03 1.02703E+02
 -1        55-1.58606E+03 3.62683E+03 1.29179E+02
 -1        57-1.20610E+03 2.75980E+03 1.50041E+02
 -1        59-7.72691E+02 1.77733E+03 1.59532E+02
 -1        61-2.87166E+02 7.62727E+02 1.27544E+02
 -1        64-2.87166E+02 7.62727E+02-1.27544E+02
 -1        66-7.72691E+02 1.77733E+03-1.59532E+02
 -1        68-1.20610E+03 2.75980E+03-1.50041E+02
 -1        70-1.58606E+03 3.62683E+03-1.29179E+02
 -1        72-1.90104E+03 4.34495E+03-1.02703E+02
 -1        74-2.13265E+03 4.87789E+03-6.95386E+01
 -1        76-2.27826E+03 5.21249E+03-3.81571E+01
 -1        79-3.96796E+02 8.10392E+02-3.23765E+02
 -1        81-7.72839E+02 1.77740E+03-4.04964E+02
 -1        83-1.19083E+03 2.75316E+03-3.80871E+02
 -1        85-1.56341E+03 3.61698E+03-3.27915E+02
 -1        87-1.87160E+03 4.33215E+03-2.60706E+02
 -1        89-2.10347E+03 4.86520E+03-1.76520E+02
 -1        91-2.24875E+03 5.19966E+03-9.68599E+01
 -1        95 0.00000E+00 0.00000E+00 0.00000E+00
 -1       100-2.30746E+03 5.30717E+03-1.79625E-10
 -1       105-3.25885E+02 8.07476E+02 2.25968E+02
 -1       109-7.75206E+02 1.78086E+03 2.85169E+02
 -1       113-1.19947E+03 2.75210E+03 2.65571E+02
 -1       117-1.57742E+03 3.61678E+03 2.29590E+02
 -1       121-1.88875E+03 4.33017E+03 1.79293E+02
 -1       125-2.12228E+03 4.86598E+03 1.29782E+02
 -1       129-2.26255E+03 5.19538E+03 5.55708E+01
 -1       134-3.51075E+02 7.49537E+02 9.82466E+01
 -1       138-7.74286E+02 1.78298E+03 1.23986E+02
 -1       142-1.19656E+03 2.75879E+03 1.15465E+02
 -1       146-1.57251E+03 3.62809E+03 9.98214E+01
 -1       150-1.88268E+03 4.34414E+03 7.79533E+01
 -1       154-2.11564E+03 4.88125E+03 5.64268E+01
 -1       158-2.25885E+03 5.20388E+03 2.41611E+01
 -1       163-3.25885E+02 8.07476E+02-2.25968E+02
 -1       167-7.75206E+02 1.78086E+03-2.85169E+02
 -1       171-1.19947E+03 2.75210E+03-2.65571E+02
 -1       175-1.57742E+03 3.61678E+03-2.29590E+02
 -1       179-1.88875E+03 4.33017E+03-1.79293E+02
 -1       183-2.12228E+03 4.86598E+03-1.29782E+02
 -1       187-2.26255E+03 5.19538E+03-5.55708E+01
 -1       192-3.51075E+02 7.49537E+02-9.82466E+01
 -1       196-7.74286E+02 1.78298E+03-1.23986E+02
 -1       200-1.19656E+03 2.75879E+03-1.15465E+02
 -1       204-1.57251E+03 3.62809E+03-9.98214E+01
 -1       208-1.88268E+03 4.34414E+03-7.79533E+01
 -1       212-2.11564E+03 4.88125E+03-5.64268E+01
 -1       216-2.25885E+03 5.20388E+03-2.41611E+01
 -1       222-3.35035E+02 7.70584E+02-1.28573E-11
 -1       228-7.76649E+02 1.78630E+03-3.81490E-11
 -1       234-1.19795E+03 2.75529E+03-7.21059E-11
 -1       240-1.57448E+03 3.62132E+03-1.06184E-10
 -1       246-1.88702E+03 4.34016E+03-1.38584E-10
 -1       252-2.11559E+03 4.86587E+03-1.61890E-10
 -1       258-2.26994E+03 5.22088E+03-1.76897E-10
 -3
    1PSTEP                         3           1           2          
    1PGM                1.000000E+00                                  
    1PGK                5.454937E+11                                  
    1PHID                         -1                                  
    1PSUBC                         0                                  
    1PMODE                         2                                  
  100CL  103 117547.9305          81                     2    3MODAL      1
 -4  DISP        4    1
 -5  D1          1    2    1    0
 -5  D2          1    2    2    0
 -5  D3          1    2    3    0
 -5  ALL         1    2    0    0    1ALL
 -1         1 0.00000E+00 0.00000E+00 0.00000E+00
 -1         2 0.00000E+00 0.00000E+00 0.00000E+00
 -1         3 0.00000E+00 0.00000E+00 0.00000E+00
 -1         4 0.00000E+00 0.00000E+00 0.00000E+00
 -1         5 5.34253E+03 2.28857E+03 1.67967E+01
 -1         6 5.37926E+03 2.37306E+03-6.61689E+00
 -1         7 5.34253E+03 2.28857E+03-1.67967E+01
 -1         8 5.37926E+03 2.37306E+03 6.61689E+00
 -1        10 0.00000E+00 0.00000E+00 0.00000E+00
 -1        13 0.00000E+00 0.00000E+00 0.00000E+00
 -1        16 0.00000E+00 0.00000E+00 0.00000E+00
 -1        19 0.00000E+00 0.00000E+00 0.00000E+00
 -1        22 5.38082E+03 2.31629E+03 2.27037E+00
 -1        25 5.32748E+03 2.33948E+03-5.22187E+00
 -1        28 5.38082E+03 2.31629E+03-2.27037E+00
 -1        31 5.32748E+03 2.33948E+03 5.22187E+00
 -1        34 7.62727E+02 2.87166E+02-1.27544E+02
 -1        36 1.77733E+03 7.72691E+02-1.59532E+02
 -1        38 2.75980E+03 1.20610E+03-1.50041E+02
 -1        40 3.62683E+03 1.58606E+03-1.29179E+02
 -1        42 4.34495E+03 1.90104E+03-1.02703E+02
 -1        44 4.87789E+03 2.13265E+03-6.95386E+01
 -1        46 5.21249E+03 2.27826E+03-3.81571E+01
 -1        49 5.19966E+03 2.24875E+03 9.68599E+01
 -1        51 4.86520E+03 2.10347E+03 1.76520E+02
 -1        53 4.33215E+03 1.87160E+03 2.60706E+02
 -1        55 3.61698E+03 1.56341E+03 3.27915E+02
 -1        57 2.75316E+03 1.19083E+03 3.80871E+02
 -1        59 1.77740E+03 7.72839E+02 4.04964E+02
 -1        61 8.10392E+02 3.96796E+02 3.23765E+02
 -1        64 8.10392E+02 3.96796E+02-3.23765E+02
 -1        66 1.77740E+03 7.72839E+02-4.04964E+02
 -1        68 2.75316E+03 1.19083E+03-3.80871E+02
 -1        70 3.61698E+03 1.56341E+03-3.27915E+02
 -1        72 4.33215E+03 1.87160E+03-2.60706E+02
 -1        74 4.86520E+03 2.10347E+03-1.76520E+02
 -1        76 5.19966E+03 2.24875E+03-9.68599E+01
 -1        79 7.62727E+02 2.87166E+02 1.27544E+02
 -1        81 1.77733E+03 7.72691E+02 1.59532E+02
 -1        83 2.75980E+03 1.20610E+03 1.50041E+02
 -1        85 3.62683E+03 1.58606E+03 1.29179E+02
 -1        87 4.34495E+03 1.90104E+03 1.02703E+02
 -1        89 4.87789E+03 2.13265E+03 6.95386E+01
 -1        91 5.21249E+03 2.27826E+03 3.81571E+01
 -1        95 0.00000E+00 0.00000E+00 0.00000E+00
 -1       100 5.30717E+03 2.30746E+03-4.81577E-10
 -1       105 7.49537E+02 3.51075E+02 9.82466E+01
 -1       109 1.78298E+03 7.74286E+02 1.23986E+02
 -1       113 2.75879E+03 1.19656E+03 1.15465E+02
 -1       117 3.62809E+03 1.57251E+03 9.98214E+01
 -1       121 4.34414E+03 1.88268E+03 7.79533E+01
 -1       125 4.88125E+03 2.11564E+03 5.64268E+01
 -1       129 5.20388E+03 2.25885E+03 2.41611E+01
 -1       134 8.07476E+02 3.25885E+02-2.25968E+02
 -1       138 1.78086E+03 7.75206E+02-2.85169E+02
 -1       142 2.75210E+03 1.19947E+03-2.65571E+02
 -1       146 3.61678E+03 1.57742E+03-2.29590E+02
 -1       150 4.33017E+03 1.88875E+03-1.79293E+02
 -1       154 4.86598E+03 2.12228E+03-1.29782E+02
 -1       158 5.19538E+03 2.26255E+03-5.55708E+01
 -1       163 7.49537E+02 3.51075E+02-9.82466E+01
 -1       167 1.78298E+03 7.74286E+02-1.23986E+02
 -1       171 2.75879E+03 1.19656E+03-1.15465E+02
 -1       175 3.62809E+03 1.57251E+03-9.98214E+01
 -1       179 4.34414E+03 1.88268E+03-7.79533E+01
 -1       183 4.88125E+03 2.11564E+03-5.64268E+01
 -1       187 5.20388E+03 2.25885E+03-2.41611E+01
 -1       192 8.07476E+02 3.25885E+02 2.25968E+02
 -1       196 1.78086E+03 7.75206E+02 2.85169E+02
 -1       200 2.75210E+03 1.19947E+03 2.65571E+02
 -1       204 3.61678E+03 1.57742E+03 2.29590E+02
 -1       208 4.33017E+03 1.88875E+03 1.79293E+02
 -1       212 4.86598E+03 2.12228E+03 1.29782E+02
 -1       216 5.19538E+03 2.26255E+03 5.55708E+01
 -1       222 7.70584E+02 3.35035E+02-3.20171E-11
 -1       228 1.78630E+03 7.76649E+02-9.78417E-11
 -1       234 2.75529E+03 1.19795E+03-1.86418E-10
 -1       240 3.62132E+03 1.57448E+03-2.79442E-10
 -1       246 4.34016E+03 1.88702E+03-3.65162E-10
 -1       252 4.86587E+03 2.11559E+03-4.27463E-10
 -1       258 5.22088E+03 2.26994E+03-4.73847E-10
 -3
    1PSTEP                         4           1           2          
    1PGM                1.000000E+00                                  
    1PGK                7.413272E+11                                  
    1PHID                         -1                                  
    1PSUBC                         0                                  
    1PMODE                         3                                  
  100CL  104 137032.9829          81                     2    4MODAL      1
 -4  DISP        4    1
 -5  D1          1    2    1    0
 -5  D2          1    2    2    0
 -5  D3          1    2    3    0
 -5  ALL         1    2    0    0    1ALL
 -1         1 0.00000E+00 0.00000E+00 0.00000E+00
 -1         2 0.00000E+00 0.00000E+00 0.00000E+00
 -1         3 0.00000E+00 0.00000E+00 0.00000E+00
 -1         4 0.00000E+00 0.00000E+00 0.00000E+00
 -1         5-7.74965E+03 7.74965E+03 6.51710E-11
 -1         6-7.74965E+03-7.74965E+03 9.94277E-10
 -1         7 7.74965E+03-7.74965E+03-8.21956E-11
 -1         8 7.74965E+03 7.74965E+03-1.00798E-09
 -1        10 0.00000E+00 0.00000E+00 0.00000E+00
 -1        13 0.00000E+00 0.00000E+00 0.00000E+00
 -1        16 0.00000E+00 0.00000E+00 0.00000E+00
 -1        19 0.00000E+00 0.00000E+00 0.00000E+00
 -1        22-8.05540E+03-5.80371E-10 5.59073E-10
 -1        25 7.16597E-10-8.05540E+03 4.83496E-10
 -1        28 8.05540E+03-1.25078E-09-5.77889E-10
 -1        31 1.37414E-09 8.05540E+03-4.98673E-10
 -1        34-1.42382E+03-1.42382E+03 1.27216E-10
 -1        36-2.66877E+03-2.66877E+03 3.32648E-10
 -1        38-3.81085E+03-3.81085E+03 5.77529E-10
 -1        40-4.80968E+03-4.80968E+03 8.14225E-10
 -1        42-5.68510E+03-5.68510E+03 1.00880E-09
 -1        44-6.17751E+03-6.17751E+03 1.07758E-09
 -1        46-7.09332E+03-7.09332E+03 1.07003E-09
 -1        49-7.09332E+03 7.09332E+03 6.09859E-11
 -1        51-6.17751E+03 6.17751E+03 4.99085E-11
 -1        53-5.68510E+03 5.68510E+03 4.06999E-11
 -1        55-4.80968E+03 4.80968E+03 3.45608E-11
 -1        57-3.81085E+03 3.81085E+03 2.56932E-11
 -1        59-2.66877E+03 2.66877E+03 1.97815E-11
 -1        61-1.42382E+03 1.42382E+03 1.43245E-11
 -1        64 1.42382E+03-1.42382E+03-1.73941E-11
 -1        66 2.66877E+03-2.66877E+03-2.59206E-11
 -1        68 3.81085E+03-3.81085E+03-3.50155E-11
 -1        70 4.80968E+03-4.80968E+03-4.50200E-11
 -1        72 5.68510E+03-5.68510E+03-5.41149E-11
 -1        74 6.17751E+03-6.17751E+03-6.38920E-11
 -1        76 7.09332E+03-7.09332E+03-7.51186E-11
 -1        79 1.42382E+03 1.42382E+03-1.30512E-10
 -1        81 2.66877E+03 2.66877E+03-3.39469E-10
 -1        83 3.81085E+03 3.81085E+03-5.89125E-10
 -1        85 4.80968E+03 4.80968E+03-8.26049E-10
 -1        87 5.68510E+03 5.68510E+03-1.02204E-09
 -1        89 6.17751E+03 6.17751E+03-1.09196E-09
 -1        91 7.09332E+03 7.09332E+03-1.08298E-09
 -1        95 0.00000E+00 0.00000E+00 0.00000E+00
 -1       100-1.19243E-10 4.32692E-10-9.04521E-12
 -1       105-1.41623E+03 1.00357E-10 7.19638E-11
 -1       109-2.66881E+03 2.43290E-10 1.76442E-10
 -1       113-3.80884E+03 3.88582E-10 3.03316E-10
 -1       117-4.82531E+03 5.15911E-10 4.25644E-10
 -1       121-5.61047E+03 6.14932E-10 5.18639E-10
 -1       125-6.47550E+03 6.58588E-10 5.93005E-10
 -1       129-6.13105E+03 7.54426E-10 4.88669E-10
 -1       134-4.54747E-11-1.41623E+03 5.69003E-11
 -1       138-1.19144E-10-2.66881E+03 1.53932E-10
 -1       142-1.97133E-10-3.80884E+03 2.72394E-10
 -1       146-2.73985E-10-4.82531E+03 3.86535E-10
 -1       150-3.37423E-10-5.61047E+03 4.71346E-10
 -1       154-3.47995E-10-6.47550E+03 5.32737E-10
 -1       158-4.31100E-10-6.13105E+03 4.29509E-10
 -1       163 1.41623E+03 7.60849E-11-7.51470E-11
 -1       167 2.66881E+03 1.53591E-10-1.82354E-10
 -1       171 3.80884E+03 2.03841E-10-3.12184E-10
 -1       175 4.82531E+03 2.15550E-10-4.37012E-10
 -1       179 5.61047E+03 2.02363E-10-5.31372E-10
 -1       183 6.47550E+03 1.39465E-10-6.05610E-10
 -1       187 6.13105E+03 1.53250E-10-5.04826E-10
 -1       192-2.09184E-11 1.41623E+03-5.97993E-11
 -1       196-3.09228E-11 2.66881E+03-1.60071E-10
 -1       200-1.29603E-11 3.80884E+03-2.82853E-10
 -1       204 2.36469E-11 4.82531E+03-3.98359E-10
 -1       208 8.13998E-11 5.61047E+03-4.84533E-10
 -1       212 1.66438E-10 6.47550E+03-5.44446E-10
 -1       216 1.79227E-10 6.13105E+03-4.45894E-10
 -1       222-1.93268E-11 7.20775E-11-1.36424E-12
 -1       228-6.41194E-11 1.85651E-10-2.72848E-12
 -1       234-9.32232E-11 2.81375E-10-4.54747E-12
 -1       240-1.14824E-10 3.55158E-10-5.22959E-12
 -1       246-1.28239E-10 4.08818E-10-6.59384E-12
 -1       252-1.03910E-10 4.10296E-10-6.36646E-12
 -1       258 2.09184E-11 2.79670E-10-6.69331E-12
 -3
    1PSTEP                         5           1           2          
    1PGM                1.000000E+00                                  
    1PGK                2.798655E+12                                  
    1PHID                         -1                                  
    1PSUBC                         0                                  
    1PMODE                         4                                  
  100CL  105 266253.1736          81                     2    5MODAL      1
 -4  DISP        4    1
 -5  D1          1    2    1    0
 -5  D2          1    2    2    0
 -5  D3          1    2    3    0
 -5  ALL         1    2    0    0    1ALL
 -1         1 0.00000E+00 0.00000E+00 0.00000E+00
 -1         2 0.00000E+00 0.00000E+00 0.00000E+00
 -1         3 0.00000E+00 0.00000E+00 0.00000E+00
 -1         4 0.00000E+00 0.00000E+00 0.00000E+00
 -1         5-1.26916E+01-1.26916E+01-5.69987E+03
 -1         6 1.26916E+01-1.26916E+01-5.69987E+03
 -1         7 1.26916E+01 1.26916E+01-5.69987E+03
 -1         8-1.26916E+01 1.26916E+01-5.69987E+03
 -1        10 0.00000E+00 0.00000E+00 0.00000E+00
 -1        13 0.00000E+00 0.00000E+00 0.00000E+00
 -1        16 0.00000E+00 0.00000E+00 0.00000E+00
 -1        19 0.00000E+00 0.00000E+00 0.00000E+00
 -1        22 2.00089E-11 1.91746E+01-5.72885E+03
 -1        25-1.91746E+01-1.27329E-11-5.72885E+03
 -1        28-1.75078E-11-1.91746E+01-5.72885E+03
 -1        31 1.91746E+01-4.84306E-11-5.72885E+03
 -1        34 3.18653E+02-3.18653E+02-1.07127E+03
 -1        36 2.69192E+02-2.69192E+02-2.13240E+03
 -1        38 2.43791E+02-2.43791E+02-3.12722E+03
 -1        40 2.07422E+02-2.07422E+02-3.99767E+03
 -1        42 1.62464E+02-1.62464E+02-4.71392E+03
 -1        44 1.14828E+02-1.14828E+02-5.24413E+03
 -1        46 5.36328E+01-5.36328E+01-5.57607E+03
 -1        49-5.36328E+01-5.36328E+01-5.57607E+03
 -1        51-1.14828E+02-1.14828E+02-5.24413E+03
 -1        53-1.62464E+02-1.62464E+02-4.71392E+03
 -1        55-2.07422E+02-2.07422E+02-3.99767E+03
 -1        57-2.43791E+02-2.43791E+02-3.12722E+03
 -1        59-2.69192E+02-2.69192E+02-2.13240E+03
 -1        61-3.18653E+02-3.18653E+02-1.07127E+03
 -1        64 3.18653E+02 3.18653E+02-1.07127E+03
 -1        66 2.69192E+02 2.69192E+02-2.13240E+03
 -1        68 2.43791E+02 2.43791E+02-3.12722E+03
 -1        70 2.07422E+02 2.07422E+02-3.99767E+03
 -1        72 1.62464E+02 1.62464E+02-4.71392E+03
 -1        74 1.14828E+02 1.14828E+02-5.24413E+03
 -1        76 5.36328E+01 5.36328E+01-5.57607E+03
 -1        79-3.18653E+02 3.18653E+02-1.07127E+03
 -1        81-2.69192E+02 2.69192E+02-2.13240E+03
 -1        83-2.43791E+02 2.43791E+02-3.12722E+03
 -1        85-2.07422E+02 2.07422E+02-3.99767E+03
 -1        87-1.62464E+02 1.62464E+02-4.71392E+03
 -1        89-1.14828E+02 1.14828E+02-5.24413E+03