# vtk DataFile Version 3.0

ASCII
DATASET UNSTRUCTURED_GRID

POINTS 261 double
	 0.00000000E+00	 0.00000000E+00	 0.00000000E+00
	 1.00000000E+00	 0.00000000E+00	 0.00000000E+00
	 1.00000000E+00	 1.50000000E+00	 0.00000000E+00
	 0.00000000E+00	 1.50000000E+00	 0.00000000E+00
	 0.00000000E+00	 0.00000000E+00	 8.00000000E+00
	 1.00000000E+00	 0.00000000E+00	 8.00000000E+00
	 1.00000000E+00	 1.50000000E+00	 8.00000000E+00
	 0.00000000E+00	 1.50000000E+00	 8.00000000E+00
	 2.50000000E-01	 0.00000000E+00	 0.00000000E+00
	 5.00000000E-01	 0.00000000E+00	 0.00000000E+00
	 7.50000000E-01	 0.00000000E+00	 0.00000000E+00
	 1.00000000E+00	 3.75000000E-01	 0.00000000E+00
	 1.00000000E+00	 7.50000000E-01	 0.00000000E+00
	 1.00000000E+00	 1.12500000E+00	 0.00000000E+00
	 7.50000000E-01	 1.50000000E+00	 0.00000000E+00
	 5.00000000E-01	 1.50000000E+00	 0.00000000E+00
	 2.50000000E-01	 1.50000000E+00	 0.00000000E+00
	 0.00000000E+00	 1.12500000E+00	 0.00000000E+00
	 0.00000000E+00	 7.50000000E-01	 0.00000000E+00
	 0.00000000E+00	 3.75000000E-01	 0.00000000E+00
	 2.50000000E-01	 0.00000000E+00	 8.00000000E+00
	 5.00000000E-01	 0.00000000E+00	 8.00000000E+00
	 7.50000000E-01	 0.00000000E+00	 8.00000000E+00
	 1.00000000E+00	 3.75000000E-01	 8.00000000E+00
	 1.00000000E+00	 7.50000000E-01	 8.00000000E+00
	 1.00000000E+00	 1.12500000E+00	 8.00000000E+00
	 7.50000000E-01	 1.50000000E+00	 8.00000000E+00
	 5.00000000E-01	 1.50000000E+00	 8.00000000E+00
	 2.50000000E-01	 1.50000000E+00	 8.00000000E+00
	 0.00000000E+00	 1.12500000E+00	 8.00000000E+00
	 0.00000000E+00	 7.50000000E-01	 8.00000000E+00
	 0.00000000E+00	 3.75000000E-01	 8.00000000E+00
	 1.00000000E+00	 0.00000000E+00	 5.00000000E-01
	 1.00000000E+00	 0.00000000E+00	 1.00000000E+00
	 1.00000000E+00	 0.00000000E+00	 1.50000000E+00
	 1.00000000E+00	 0.00000000E+00	 2.00000000E+00
	 1.00000000E+00	 0.00000000E+00	 2.50000000E+00
	 1.00000000E+00	 0.00000000E+00	 3.00000000E+00
	 1.00000000E+00	 0.00000000E+00	 3.50000000E+00
	 1.00000000E+00	 0.00000000E+00	 4.00000000E+00
	 1.00000000E+00	 0.00000000E+00	 4.50000000E+00
	 1.00000000E+00	 0.00000000E+00	 5.00000000E+00
	 1.00000000E+00	 0.00000000E+00	 5.50000000E+00
	 1.00000000E+00	 0.00000000E+00	 6.00000000E+00
	 1.00000000E+00	 0.00000000E+00	 6.50000000E+00
	 1.00000000E+00	 0.00000000E+00	 7.00000000E+00
	 1.00000000E+00	 0.00000000E+00	 7.50000000E+00
	 0.00000000E+00	 0.00000000E+00	 7.50000000E+00
	 0.00000000E+00	 0.00000000E+00	 7.00000000E+00
	 0.00000000E+00	 0.00000000E+00	 6.50000000E+00
	 0.00000000E+00	 0.00000000E+00	 6.00000000E+00
	 0.00000000E+00	 0.00000000E+00	 5.50000000E+00
	 0.00000000E+00	 0.00000000E+00	 5.00000000E+00
	 0.00000000E+00	 0.00000000E+00	 4.50000000E+00
	 0.00000000E+00	 0.00000000E+00	 4.00000000E+00
	 0.00000000E+00	 0.00000000E+00	 3.50000000E+00
	 0.00000000E+00	 0.00000000E+00	 3.00000000E+00
	 0.00000000E+00	 0.00000000E+00	 2.50000000E+00
	 0.00000000E+00	 0.00000000E+00	 2.00000000E+00
	 0.00000000E+00	 0.00000000E+00	 1.50000000E+00
	 0.00000000E+00	 0.00000000E+00	 1.00000000E+00
	 0.00000000E+00	 0.00000000E+00	 5.00000000E-01
	 1.00000000E+00	 1.50000000E+00	 5.00000000E-01
	 1.00000000E+00	 1.50000000E+00	 1.00000000E+00
	 1.00000000E+00	 1.50000000E+00	 1.50000000E+00
	 1.00000000E+00	 1.50000000E+00	 2.00000000E+00
	 1.00000000E+00	 1.50000000E+00	 2.50000000E+00
	 1.00000000E+00	 1.50000000E+00	 3.00000000E+00
	 1.00000000E+00	 1.50000000E+00	 3.50000000E+00
	 1.00000000E+00	 1.50000000E+00	 4.00000000E+00
	 1.00000000E+00	 1.50000000E+00	 4.50000000E+00
	 1.00000000E+00	 1.50000000E+00	 5.00000000E+00
	 1.00000000E+00	 1.50000000E+00	 5.50000000E+00
	 1.00000000E+00	 1.50000000E+00	 6.00000000E+00
	 1.00000000E+00	 1.50000000E+00	 6.50000000E+00
	 1.00000000E+00	 1.50000000E+00	 7.00000000E+00
	 1.00000000E+00	 1.50000000E+00	 7.50000000E+00
	 0.00000000E+00	 1.50000000E+00	 5.00000000E-01
	 0.00000000E+00	 1.50000000E+00	 1.00000000E+00
	 0.00000000E+00	 1.50000000E+00	 1.50000000E+00
	 0.00000000E+00	 1.50000000E+00	 2.00000000E+00
	 0.00000000E+00	 1.50000000E+00	 2.50000000E+00
	 0.00000000E+00	 1.50000000E+00	 3.00000000E+00
	 0.00000000E+00	 1.50000000E+00	 3.50000000E+00
	 0.00000000E+00	 1.50000000E+00	 4.00000000E+00
	 0.00000000E+00	 1.50000000E+00	 4.50000000E+00
	 0.00000000E+00	 1.50000000E+00	 5.00000000E+00
	 0.00000000E+00	 1.50000000E+00	 5.50000000E+00
	 0.00000000E+00	 1.50000000E+00	 6.00000000E+00
	 0.00000000E+00	 1.50000000E+00	 6.50000000E+00
	 0.00000000E+00	 1.50000000E+00	 7.00000000E+00
	 0.00000000E+00	 1.50000000E+00	 7.50000000E+00
	 5.00000000E-01	 3.75000000E-01	 0.00000000E+00
	 2.50000000E-01	 7.50000000E-01	 0.00000000E+00
	 5.00000000E-01	 7.50000000E-01	 0.00000000E+00
	 7.50000000E-01	 7.50000000E-01	 0.00000000E+00
	 5.00000000E-01	 1.12500000E+00	 0.00000000E+00
	 5.00000000E-01	 3.75000000E-01	 8.00000000E+00
	 2.50000000E-01	 7.50000000E-01	 8.00000000E+00
	 5.00000000E-01	 7.50000000E-01	 8.00000000E+00
	 7.50000000E-01	 7.50000000E-01	 8.00000000E+00
	 5.00000000E-01	 1.12500000E+00	 8.00000000E+00
	 5.00000000E-01	 0.00000000E+00	 5.00000000E-01
	 2.50000000E-01	 0.00000000E+00	 1.00000000E+00
	 5.00000000E-01	 0.00000000E+00	 1.00000000E+00
	 7.50000000E-01	 0.00000000E+00	 1.00000000E+00
	 5.00000000E-01	 0.00000000E+00	 1.50000000E+00
	 2.50000000E-01	 0.00000000E+00	 2.00000000E+00
	 5.00000000E-01	 0.00000000E+00	 2.00000000E+00
	 7.50000000E-01	 0.00000000E+00	 2.00000000E+00
	 5.00000000E-01	 0.00000000E+00	 2.50000000E+00
	 2.50000000E-01	 0.00000000E+00	 3.00000000E+00
	 5.00000000E-01	 0.00000000E+00	 3.00000000E+00
	 7.50000000E-01	 0.00000000E+00	 3.00000000E+00
	 5.00000000E-01	 0.00000000E+00	 3.50000000E+00
	 2.50000000E-01	 0.00000000E+00	 4.00000000E+00
	 5.00000000E-01	 0.00000000E+00	 4.00000000E+00
	 7.50000000E-01	 0.00000000E+00	 4.00000000E+00
	 5.00000000E-01	 0.00000000E+00	 4.50000000E+00
	 2.50000000E-01	 0.00000000E+00	 5.00000000E+00
	 5.00000000E-01	 0.00000000E+00	 5.00000000E+00
	 7.50000000E-01	 0.00000000E+00	 5.00000000E+00
	 5.00000000E-01	 0.00000000E+00	 5.50000000E+00
	 2.50000000E-01	 0.00000000E+00	 6.00000000E+00
	 5.00000000E-01	 0.00000000E+00	 6.00000000E+00
	 7.50000000E-01	 0.00000000E+00	 6.00000000E+00
	 5.00000000E-01	 0.00000000E+00	 6.50000000E+00
	 2.50000000E-01	 0.00000000E+00	 7.00000000E+00
	 5.00000000E-01	 0.00000000E+00	 7.00000000E+00
	 7.50000000E-01	 0.00000000E+00	 7.00000000E+00
	 5.00000000E-01	 0.00000000E+00	 7.50000000E+00
	 1.00000000E+00	 7.50000000E-01	 5.00000000E-01
	 1.00000000E+00	 3.75000000E-01	 1.00000000E+00
	 1.00000000E+00	 7.50000000E-01	 1.00000000E+00
	 1.00000000E+00	 1.12500000E+00	 1.00000000E+00
	 1.00000000E+00	 7.50000000E-01	 1.50000000E+00
	 1.00000000E+00	 3.75000000E-01	 2.00000000E+00
	 1.00000000E+00	 7.50000000E-01	 2.00000000E+00
	 1.00000000E+00	 1.12500000E+00	 2.00000000E+00
	 1.00000000E+00	 7.50000000E-01	 2.50000000E+00
	 1.00000000E+00	 3.75000000E-01	 3.00000000E+00
	 1.00000000E+00	 7.50000000E-01	 3.00000000E+00
	 1.00000000E+00	 1.12500000E+00	 3.00000000E+00
	 1.00000000E+00	 7.50000000E-01	 3.50000000E+00
	 1.00000000E+00	 3.75000000E-01	 4.00000000E+00
	 1.00000000E+00	 7.50000000E-01	 4.00000000E+00
	 1.00000000E+00	 1.12500000E+00	 4.00000000E+00
	 1.00000000E+00	 7.50000000E-01	 4.50000000E+00
	 1.00000000E+00	 3.75000000E-01	 5.00000000E+00
	 1.00000000E+00	 7.50000000E-01	 5.00000000E+00
	 1.00000000E+00	 1.12500000E+00	 5.00000000E+00
	 1.00000000E+00	 7.50000000E-01	 5.50000000E+00
	 1.00000000E+00	 3.75000000E-01	 6.00000000E+00
	 1.00000000E+00	 7.50000000E-01	 6.00000000E+00
	 1.00000000E+00	 1.12500000E+00	 6.00000000E+00
	 1.00000000E+00	 7.50000000E-01	 6.50000000E+00
	 1.00000000E+00	 3.75000000E-01	 7.00000000E+00
	 1.00000000E+00	 7.50000000E-01	 7.00000000E+00
	 1.00000000E+00	 1.12500000E+00	 7.00000000E+00
	 1.00000000E+00	 7.50000000E-01	 7.50000000E+00
	 5.00000000E-01	 1.50000000E+00	 5.00000000E-01
	 7.50000000E-01	 1.50000000E+00	 1.00000000E+00
	 5.00000000E-01	 1.50000000E+00	 1.00000000E+00
	 2.50000000E-01	 1.50000000E+00	 1.00000000E+00
	 5.00000000E-01	 1.50000000E+00	 1.50000000E+00
	 7.50000000E-01	 1.50000000E+00	 2.00000000E+00
	 5.00000000E-01	 1.50000000E+00	 2.00000000E+00
	 2.50000000E-01	 1.50000000E+00	 2.00000000E+00
	 5.00000000E-01	 1.50000000E+00	 2.50000000E+00
	 7.50000000E-01	 1.50000000E+00	 3.00000000E+00
	 5.00000000E-01	 1.50000000E+00	 3.00000000E+00
	 2.50000000E-01	 1.50000000E+00	 3.00000000E+00
	 5.00000000E-01	 1.50000000E+00	 3.50000000E+00
	 7.50000000E-01	 1.50000000E+00	 4.00000000E+00
	 5.00000000E-01	 1.50000000E+00	 4.00000000E+00
	 2.50000000E-01	 1.50000000E+00	 4.00000000E+00
	 5.00000000E-01	 1.50000000E+00	 4.50000000E+00
	 7.50000000E-01	 1.50000000E+00	 5.00000000E+00
	 5.00000000E-01	 1.50000000E+00	 5.00000000E+00
	 2.50000000E-01	 1.50000000E+00	 5.00000000E+00
	 5.00000000E-01	 1.50000000E+00	 5.50000000E+00
	 7.50000000E-01	 1.50000000E+00	 6.00000000E+00
	 5.00000000E-01	 1.50000000E+00	 6.00000000E+00
	 2.50000000E-01	 1.50000000E+00	 6.00000000E+00
	 5.00000000E-01	 1.50000000E+00	 6.50000000E+00
	 7.50000000E-01	 1.50000000E+00	 7.00000000E+00
	 5.00000000E-01	 1.50000000E+00	 7.00000000E+00
	 2.50000000E-01	 1.50000000E+00	 7.00000000E+00
	 5.00000000E-01	 1.50000000E+00	 7.50000000E+00
	 0.00000000E+00	 7.50000000E-01	 5.00000000E-01
	 0.00000000E+00	 1.12500000E+00	 1.00000000E+00
	 0.00000000E+00	 7.50000000E-01	 1.00000000E+00
	 0.00000000E+00	 3.75000000E-01	 1.00000000E+00
	 0.00000000E+00	 7.50000000E-01	 1.50000000E+00
	 0.00000000E+00	 1.12500000E+00	 2.00000000E+00
	 0.00000000E+00	 7.50000000E-01	 2.00000000E+00
	 0.00000000E+00	 3.75000000E-01	 2.00000000E+00
	 0.00000000E+00	 7.50000000E-01	 2.50000000E+00
	 0.00000000E+00	 1.12500000E+00	 3.00000000E+00
	 0.00000000E+00	 7.50000000E-01	 3.00000000E+00
	 0.00000000E+00	 3.75000000E-01	 3.00000000E+00
	 0.00000000E+00	 7.50000000E-01	 3.50000000E+00
	 0.00000000E+00	 1.12500000E+00	 4.00000000E+00
	 0.00000000E+00	 7.50000000E-01	 4.00000000E+00
	 0.00000000E+00	 3.75000000E-01	 4.00000000E+00
	 0.00000000E+00	 7.50000000E-01	 4.50000000E+00
	 0.00000000E+00	 1.12500000E+00	 5.00000000E+00
	 0.00000000E+00	 7.50000000E-01	 5.00000000E+00
	 0.00000000E+00	 3.75000000E-01	 5.00000000E+00
	 0.00000000E+00	 7.50000000E-01	 5.50000000E+00
	 0.00000000E+00	 1.12500000E+00	 6.00000000E+00
	 0.00000000E+00	 7.50000000E-01	 6.00000000E+00
	 0.00000000E+00	 3.75000000E-01	 6.00000000E+00
	 0.00000000E+00	 7.50000000E-01	 6.50000000E+00
	 0.00000000E+00	 1.12500000E+00	 7.00000000E+00
	 0.00000000E+00	 7.50000000E-01	 7.00000000E+00
	 0.00000000E+00	 3.75000000E-01	 7.00000000E+00
	 0.00000000E+00	 7.50000000E-01	 7.50000000E+00
	 5.00000000E-01	 7.50000000E-01	 5.00000000E-01
	 5.00000000E-01	 3.75000000E-01	 1.00000000E+00
	 2.50000000E-01	 7.50000000E-01	 1.00000000E+00
	 5.00000000E-01	 7.50000000E-01	 1.00000000E+00
	 7.50000000E-01	 7.50000000E-01	 1.00000000E+00
	 5.00000000E-01	 1.12500000E+00	 1.00000000E+00
	 5.00000000E-01	 7.50000000E-01	 1.50000000E+00
	 5.00000000E-01	 3.75000000E-01	 2.00000000E+00
	 2.50000000E-01	 7.50000000E-01	 2.00000000E+00
	 5.00000000E-01	 7.50000000E-01	 2.00000000E+00
	 7.50000000E-01	 7.50000000E-01	 2.00000000E+00
	 5.00000000E-01	 1.12500000E+00	 2.00000000E+00
	 5.00000000E-01	 7.50000000E-01	 2.50000000E+00
	 5.00000000E-01	 3.75000000E-01	 3.00000000E+00
	 2.50000000E-01	 7.50000000E-01	 3.00000000E+00
	 5.00000000E-01	 7.50000000E-01	 3.00000000E+00
	 7.50000000E-01	 7.50000000E-01	 3.00000000E+00
	 5.00000000E-01	 1.12500000E+00	 3.00000000E+00
	 5.00000000E-01	 7.50000000E-01	 3.50000000E+00
	 5.00000000E-01	 3.75000000E-01	 4.00000000E+00
	 2.50000000E-01	 7.50000000E-01	 4.00000000E+00
	 5.00000000E-01	 7.50000000E-01	 4.00000000E+00
	 7.50000000E-01	 7.50000000E-01	 4.00000000E+00
	 5.00000000E-01	 1.12500000E+00	 4.00000000E+00
	 5.00000000E-01	 7.50000000E-01	 4.50000000E+00
	 5.00000000E-01	 3.75000000E-01	 5.00000000E+00
	 2.50000000E-01	 7.50000000E-01	 5.00000000E+00
	 5.00000000E-01	 7.50000000E-01	 5.00000000E+00
	 7.50000000E-01	 7.50000000E-01	 5.00000000E+00
	 5.00000000E-01	 1.12500000E+00	 5.00000000E+00
	 5.00000000E-01	 7.50000000E-01	 5.50000000E+00
	 5.00000000E-01	 3.75000000E-01	 6.00000000E+00
	 2.50000000E-01	 7.50000000E-01	 6.00000000E+00
	 5.00000000E-01	 7.50000000E-01	 6.00000000E+00
	 7.50000000E-01	 7.50000000E-01	 6.00000000E+00
	 5.00000000E-01	 1.12500000E+00	 6.00000000E+00
	 5.00000000E-01	 7.50000000E-01	 6.50000000E+00
	 5.00000000E-01	 3.75000000E-01	 7.00000000E+00
	 2.50000000E-01	 7.50000000E-01	 7.00000000E+00
	 5.00000000E-01	 7.50000000E-01	 7.00000000E+00
	 7.50000000E-01	 7.50000000E-01	 7.00000000E+00
	 5.00000000E-01	 1.12500000E+00	 7.00000000E+00
	 5.00000000E-01	 7.50000000E-01	 7.50000000E+00

CELLS 32 672
	20 0 9 94 18 60 104 221 191 8 92 93 19 103 219 220 192 61 102 218 189 
	20 9 1 12 94 104 33 133 221 10 11 95 92 105 132 222 219 102 32 131 218 
	20 18 94 15 3 191 221 162 78 93 96 16 17 220 223 163 190 189 218 160 77 
	20 94 12 2 15 221 133 63 162 95 13 14 96 222 134 161 223 218 131 62 160 
	20 60 104 221 191 58 108 227 195 103 219 220 192 107 225 226 196 59 106 224 193 
	20 104 33 133 221 108 35 137 227 105 132 222 219 109 136 228 225 106 34 135 224 
	20 191 221 162 78 195 227 166 80 220 223 163 190 226 229 167 194 193 224 164 79 
	20 221 133 63 162 227 137 65 166 222 134 161 223 228 138 165 229 224 135 64 164 
	20 58 108 227 195 56 112 233 199 107 225 226 196 111 231 232 200 57 110 230 197 
	20 108 35 137 227 112 37 141 233 109 136 228 225 113 140 234 231 110 36 139 230 
	20 195 227 166 80 199 233 170 82 226 229 167 194 232 235 171 198 197 230 168 81 
	20 227 137 65 166 233 141 67 170 228 138 165 229 234 142 169 235 230 139 66 168 
	20 56 112 233 199 54 116 239 203 111 231 232 200 115 237 238 204 55 114 236 201 
	20 112 37 141 233 116 39 145 239 113 140 234 231 117 144 240 237 114 38 143 236 
	20 199 233 170 82 203 239 174 84 232 235 171 198 238 241 175 202 201 236 172 83 
	20 233 141 67 170 239 145 69 174 234 142 169 235 240 146 173 241 236 143 68 172 
	20 54 116 239 203 52 120 245 207 115 237 238 204 119 243 244 208 53 118 242 205 
	20 116 39 145 239 120 41 149 245 117 144 240 237 121 148 246 243 118 40 147 242 
	20 203 239 174 84 207 245 178 86 238 241 175 202 244 247 179 206 205 242 176 85 
	20 239 145 69 174 245 149 71 178 240 146 173 241 246 150 177 247 242 147 70 176 
	20 52 120 245 207 50 124 251 211 119 243 244 208 123 249 250 212 51 122 248 209 
	20 120 41 149 245 124 43 153 251 121 148 246 243 125 152 252 249 122 42 151 248 
	20 207 245 178 86 211 251 182 88 244 247 179 206 250 253 183 210 209 248 180 87 
	20 245 149 71 178 251 153 73 182 246 150 177 247 252 154 181 253 248 151 72 180 
	20 50 124 251 211 48 128 257 215 123 249 250 212 127 255 256 216 49 126 254 213 
	20 124 43 153 251 128 45 157 257 125 152 252 249 129 156 258 255 126 44 155 254 
	20 211 251 182 88 215 257 186 90 250 253 183 210 256 259 187 214 213 254 184 89 
	20 251 153 73 182 257 157 75 186 252 154 181 253 258 158 185 259 254 155 74 184 
	20 48 128 257 215 4 21 99 30 127 255 256 216 20 97 98 31 47 130 260 217 
	20 128 45 157 257 21 5 24 99 129 156 258 255 22 23 100 97 130 46 159 260 
	20 215 257 186 90 30 99 27 7 256 259 187 214 98 101 28 29 217 260 188 91 
	20 257 157 75 186 99 24 6 27 258 158 185 259 100 25 26 101 260 159 76 188 

CELL_TYPES 32
	25
	25
	25
	25
	25
	25
	25
	25
	25
	25
	25
	25
	25
	25
	25
	25
	25
	25
	25
	25
	25
	25
	25
	25
	25
	25
	25
	25
	25
	25
	25
	25

POINT_DATA 261
FIELD U 1
	U 3 261 double
		 0.00000000E+00	 0.00000000E+00	 0.00000000E+00
		 0.00000000E+00	 0.00000000E+00	 0.00000000E+00
		 0.00000000E+00	 0.00000000E+00	 0.00000000E+00
		 0.00000000E+00	 0.00000000E+00	 0.00000000E+00
		-5.88969000E+03	-2.01296000E+01	-2.69097000E+03
		-5.88969000E+03	 2.01296000E+01	 2.69097000E+03
		-5.88969000E+03	-2.01296000E+01	 2.69097000E+03
		-5.88969000E+03	 2.01296000E+01	-2.69097000E+03
		 0.00000000E+00	 0.00000000E+00	 0.00000000E+00
		 0.00000000E+00	 0.00000000E+00	 0.00000000E+00
		 0.00000000E+00	 0.00000000E+00	 0.00000000E+00
		 0.00000000E+00	 0.00000000E+00	 0.00000000E+00
		 0.00000000E+00	 0.00000000E+00	 0.00000000E+00
		 0.00000000E+00	 0.00000000E+00	 0.00000000E+00
		 0.00000000E+00	 0.00000000E+00	 0.00000000E+00
		 0.00000000E+00	 0.00000000E+00	 0.00000000E+00
		 0.00000000E+00	 0.00000000E+00	 0.00000000E+00
		 0.00000000E+00	 0.00000000E+00	 0.00000000E+00
		 0.00000000E+00	 0.00000000E+00	 0.00000000E+00
		 0.00000000E+00	 0.00000000E+00	 0.00000000E+00
		-5.88583000E+03	-6.62760000E+00	-1.33401000E+03
		-5.87551000E+03	 0.00000000E+00	 0.00000000E+00
		-5.88583000E+03	 6.62760000E+00	 1.33401000E+03
		-5.91374000E+03	 1.73105000E+01	 2.71081000E+03
		-5.93309000E+03	 0.00000000E+00	 2.71526000E+03
		-5.91374000E+03	-1.73105000E+01	 2.71081000E+03
		-5.88583000E+03	-6.62760000E+00	 1.33401000E+03
		-5.87551000E+03	 0.00000000E+00	 0.00000000E+00
		-5.88583000E+03	 6.62760000E+00	-1.33401000E+03
		-5.91374000E+03	 1.73105000E+01	-2.71081000E+03
		-5.93309000E+03	 0.00000000E+00	-2.71526000E+03
		-5.91374000E+03	-1.73105000E+01	-2.71081000E+03
		-9.56597000E+02	 2.13873000E+02	 7.84281000E+02
		-2.38828000E+03	-2.15468000E+01	 1.11314000E+03
		-3.93531000E+03	-1.76952000E+02	 8.91747000E+02
		-4.82177000E+03	-3.06399000E+02	 3.09393000E+02
		-4.84140000E+03	-3.29971000E+02	-4.54296000E+02
		-3.87554000E+03	-2.71492000E+02	-1.17437000E+03
		-2.12804000E+03	-1.36434000E+02	-1.65809000E+03
		 3.27217000E+01	 3.68975000E+01	-1.78926000E+03
		 2.10537000E+03	 2.11058000E+02	-1.49559000E+03
		 3.62054000E+03	 3.45135000E+02	-8.50494000E+02
		 4.18663000E+03	 4.10740000E+02	 3.46518000E+01
		 3.65564000E+03	 3.97327000E+02	 9.77971000E+02
		 2.06427000E+03	 3.14827000E+02	 1.79208000E+03
		-3.12614000E+02	 1.93598000E+02	 2.37066000E+03
		-3.08541000E+03	 8.43893000E+01	 2.63640000E+03
		-3.08541000E+03	-8.43893000E+01	-2.63640000E+03
		-3.12614000E+02	-1.93598000E+02	-2.37066000E+03
		 2.06427000E+03	-3.14827000E+02	-1.79208000E+03
		 3.65564000E+03	-3.97327000E+02	-9.77971000E+02
		 4.18663000E+03	-4.10740000E+02	-3.46518000E+01
		 3.62054000E+03	-3.45135000E+02	 8.50494000E+02
		 2.10537000E+03	-2.11058000E+02	 1.49559000E+03
		 3.27217000E+01	-3.68975000E+01	 1.78926000E+03
		-2.12804000E+03	 1.36434000E+02	 1.65809000E+03
		-3.87554000E+03	 2.71492000E+02	 1.17437000E+03
		-4.84140000E+03	 3.29971000E+02	 4.54296000E+02
		-4.82177000E+03	 3.06399000E+02	-3.09393000E+02
		-3.93531000E+03	 1.76952000E+02	-8.91747000E+02
		-2.38828000E+03	 2.15468000E+01	-1.11314000E+03
		-9.56597000E+02	-2.13873000E+02	-7.84281000E+02
		-9.56597000E+02	-2.13873000E+02	 7.84281000E+02
		-2.38828000E+03	 2.15468000E+01	 1.11314000E+03
		-3.93531000E+03	 1.76952000E+02	 8.91747000E+02
		-4.82177000E+03	 3.06399000E+02	 3.09393000E+02
		-4.84140000E+03	 3.29971000E+02	-4.54296000E+02
		-3.87554000E+03	 2.71492000E+02	-1.17437000E+03
		-2.12804000E+03	 1.36434000E+02	-1.65809000E+03
		 3.27217000E+01	-3.68975000E+01	-1.78926000E+03
		 2.10537000E+03	-2.11058000E+02	-1.49559000E+03
		 3.62054000E+03	-3.45135000E+02	-8.50494000E+02
		 4.18663000E+03	-4.10740000E+02	 3.46518000E+01
		 3.65564000E+03	-3.97327000E+02	 9.77971000E+02
		 2.06427000E+03	-3.14827000E+02	 1.79208000E+03
		-3.12614000E+02	-1.93598000E+02	 2.37066000E+03
		-3.08541000E+03	-8.43893000E+01	 2.63640000E+03
		-9.56597000E+02	 2.13873000E+02	-7.84281000E+02
		-2.38828000E+03	-2.15468000E+01	-1.11314000E+03
		-3.93531000E+03	-1.76952000E+02	-8.91747000E+02
		-4.82177000E+03	-3.06399000E+02	-3.09393000E+02
		-4.84140000E+03	-3.29971000E+02	 4.54296000E+02
		-3.87554000E+03	-2.71492000E+02	 1.17437000E+03
		-2.12804000E+03	-1.36434000E+02	 1.65809000E+03
		 3.27217000E+01	 3.68975000E+01	 1.78926000E+03
		 2.10537000E+03	 2.11058000E+02	 1.49559000E+03
		 3.62054000E+03	 3.45135000E+02	 8.50494000E+02
		 4.18663000E+03	 4.10740000E+02	-3.46518000E+01
		 3.65564000E+03	 3.97327000E+02	-9.77971000E+02
		 2.06427000E+03	 3.14827000E+02	-1.79208000E+03
		-3.12614000E+02	 1.93598000E+02	-2.37066000E+03
		-3.08541000E+03	 8.43893000E+01	-2.63640000E+03
		 0.00000000E+00	 0.00000000E+00	 0.00000000E+00
		 0.00000000E+00	 0.00000000E+00	 0.00000000E+00
		 0.00000000E+00	 0.00000000E+00	 0.00000000E+00
		 0.00000000E+00	 0.00000000E+00	 0.00000000E+00
		 0.00000000E+00	 0.00000000E+00	 0.00000000E+00
		-5.89908000E+03	 0.00000000E+00	 0.00000000E+00
		-5.93520000E+03	 0.00000000E+00	-1.35136000E+03
		-5.92828000E+03	 0.00000000E+00	 0.00000000E+00
		-5.93520000E+03	 0.00000000E+00	 1.35136000E+03
		-5.89908000E+03	 0.00000000E+00	 0.00000000E+00
		-8.33997000E+02	 0.00000000E+00	 0.00000000E+00
		-2.41150000E+03	 8.00902000E+00	-4.50995000E+02
		-2.45961000E+03	 0.00000000E+00	 0.00000000E+00
		-2.41150000E+03	-8.00902000E+00	 4.50995000E+02
		-3.95791000E+03	 0.00000000E+00	 0.00000000E+00
		-4.92121000E+03	 1.54911000E+02	-1.25964000E+02
		-4.95315000E+03	 0.00000000E+00	 0.00000000E+00
		-4.92121000E+03	-1.54911000E+02	 1.25964000E+02
		-4.93446000E+03	 0.00000000E+00	 0.00000000E+00
		-3.95168000E+03	 1.36568000E+02	 5.46329000E+02
		-3.97681000E+03	 0.00000000E+00	 0.00000000E+00
		-3.95168000E+03	-1.36568000E+02	-5.46329000E+02
		-2.16628000E+03	 0.00000000E+00	 0.00000000E+00
		 3.96628000E+01	-1.83945000E+01	 8.20768000E+02
		 4.09977000E+01	 0.00000000E+00	 0.00000000E+00
		 3.96628000E+01	 1.83945000E+01	-8.20768000E+02
		 2.17198000E+03	 0.00000000E+00	 0.00000000E+00
		 3.70977000E+03	-1.73376000E+02	 3.83211000E+02
		 3.73399000E+03	 0.00000000E+00	 0.00000000E+00
		 3.70977000E+03	 1.73376000E+02	-3.83211000E+02
		 4.31398000E+03	 0.00000000E+00	 0.00000000E+00
		 3.75886000E+03	-1.99302000E+02	-4.67066000E+02
		 3.78845000E+03	 0.00000000E+00	 0.00000000E+00
		 3.75886000E+03	 1.99302000E+02	 4.67066000E+02
		 2.16325000E+03	 0.00000000E+00	 0.00000000E+00
		-2.62748000E+02	-9.69531000E+01	-1.13428000E+03
		-2.43565000E+02	 0.00000000E+00	 0.00000000E+00
		-2.62748000E+02	 9.69531000E+01	 1.13428000E+03
		-3.06090000E+03	 0.00000000E+00	 0.00000000E+00
		-1.05868000E+03	 0.00000000E+00	 7.91187000E+02
		-2.40783000E+03	-1.83706000E+01	 1.17115000E+03
		-2.39498000E+03	 0.00000000E+00	 1.14914000E+03
		-2.40783000E+03	 1.83706000E+01	 1.17115000E+03
		-3.80410000E+03	 0.00000000E+00	 9.06753000E+02
		-4.64957000E+03	-1.47331000E+02	 3.29086000E+02
		-4.60942000E+03	 0.00000000E+00	 3.17336000E+02
		-4.64957000E+03	 1.47331000E+02	 3.29086000E+02
		-4.60189000E+03	 0.00000000E+00	-4.55730000E+02
		-3.72583000E+03	-1.33201000E+02	-1.20005000E+03
		-3.68292000E+03	 0.00000000E+00	-1.18359000E+03
		-3.72583000E+03	 1.33201000E+02	-1.20005000E+03
		-2.02955000E+03	 0.00000000E+00	-1.67627000E+03
		 1.17439000E+01	 1.86516000E+01	-1.83489000E+03
		 4.14305000E+00	 0.00000000E+00	-1.80722000E+03
		 1.17439000E+01	-1.86516000E+01	-1.83489000E+03
		 1.95094000E+03	 0.00000000E+00	-1.51352000E+03
		 3.42621000E+03	 1.69790000E+02	-8.76618000E+02
		 3.36916000E+03	 0.00000000E+00	-8.60980000E+02
		 3.42621000E+03	-1.69790000E+02	-8.76618000E+02
		 3.88594000E+03	 0.00000000E+00	 3.15935000E+01
		 3.43180000E+03	 1.96028000E+02	 9.91280000E+02
		 3.36499000E+03	 0.00000000E+00	 9.81959000E+02
		 3.43180000E+03	-1.96028000E+02	 9.91280000E+02
		 1.83082000E+03	 0.00000000E+00	 1.80451000E+03
		-4.22837000E+02	 9.76511000E+01	 2.40231000E+03
		-4.61516000E+02	 0.00000000E+00	 2.38200000E+03
		-4.22837000E+02	-9.76511000E+01	 2.40231000E+03
		-3.15640000E+03	 0.00000000E+00	 2.65065000E+03
		-8.33997000E+02	 0.00000000E+00	 0.00000000E+00
		-2.41150000E+03	 8.00902000E+00	 4.50995000E+02
		-2.45961000E+03	 0.00000000E+00	 0.00000000E+00
		-2.41150000E+03	-8.00902000E+00	-4.50995000E+02
		-3.95791000E+03	 0.00000000E+00	 0.00000000E+00
		-4.92121000E+03	 1.54911000E+02	 1.25964000E+02
		-4.95315000E+03	 0.00000000E+00	 0.00000000E+00
		-4.92121000E+03	-1.54911000E+02	-1.25964000E+02
		-4.93446000E+03	 0.00000000E+00	 0.00000000E+00
		-3.95168000E+03	 1.36568000E+02	-5.46329000E+02
		-3.97681000E+03	 0.00000000E+00	 0.00000000E+00
		-3.95168000E+03	-1.36568000E+02	 5.46329000E+02
		-2.16628000E+03	 0.00000000E+00	 0.00000000E+00
		 3.96628000E+01	-1.83945000E+01	-8.20768000E+02
		 4.09977000E+01	 0.00000000E+00	 0.00000000E+00
		 3.96628000E+01	 1.83945000E+01	 8.20768000E+02
		 2.17198000E+03	 0.00000000E+00	 0.00000000E+00
		 3.70977000E+03	-1.73376000E+02	-3.83211000E+02
		 3.73399000E+03	 0.00000000E+00	 0.00000000E+00
		 3.70977000E+03	 1.73376000E+02	 3.83211000E+02
		 4.31398000E+03	 0.00000000E+00	 0.00000000E+00
		 3.75886000E+03	-1.99302000E+02	 4.67066000E+02
		 3.78845000E+03	 0.00000000E+00	 0.00000000E+00
		 3.75886000E+03	 1.99302000E+02	-4.67066000E+02
		 2.16325000E+03	 0.00000000E+00	 0.00000000E+00
		-2.62748000E+02	-9.69531000E+01	 1.13428000E+03
		-2.43565000E+02	 0.00000000E+00	 0.00000000E+00
		-2.62748000E+02	 9.69531000E+01	-1.13428000E+03
		-3.06090000E+03	 0.00000000E+00	 0.00000000E+00
		-1.05868000E+03	 0.00000000E+00	-7.91187000E+02
		-2.40783000E+03	-1.83706000E+01	-1.17115000E+03
		-2.39498000E+03	 0.00000000E+00	-1.14914000E+03
		-2.40783000E+03	 1.83706000E+01	-1.17115000E+03
		-3.80410000E+03	 0.00000000E+00	-9.06753000E+02
		-4.64957000E+03	-1.47331000E+02	-3.29086000E+02
		-4.60942000E+03	 0.00000000E+00	-3.17336000E+02
		-4.64957000E+03	 1.47331000E+02	-3.29086000E+02
		-4.60189000E+03	 0.00000000E+00	 4.55730000E+02
		-3.72583000E+03	-1.33201000E+02	 1.20005000E+03
		-3.68292000E+03	 0.00000000E+00	 1.18359000E+03
		-3.72583000E+03	 1.33201000E+02	 1.20005000E+03
		-2.02955000E+03	 0.00000000E+00	 1.67627000E+03
		 1.17439000E+01	 1.86516000E+01	 1.83489000E+03
		 4.14305000E+00	 0.00000000E+00	 1.80722000E+03
		 1.17439000E+01	-1.86516000E+01	 1.83489000E+03
		 1.95094000E+03	 0.00000000E+00	 1.51352000E+03
		 3.42621000E+03	 1.69790000E+02	 8.76618000E+02
		 3.36916000E+03	 0.00000000E+00	 8.60980000E+02
		 3.42621000E+03	-1.69790000E+02	 8.76618000E+02
		 3.88594000E+03	 0.00000000E+00	-3.15935000E+01
		 3.43180000E+03	 1.96028000E+02	-9.91280000E+02
		 3.36499000E+03	 0.00000000E+00	-9.81959000E+02
		 3.43180000E+03	-1.96028000E+02	-9.91280000E+02
		 1.83082000E+03	 0.00000000E+00	-1.80451000E+03
		-4.22837000E+02	 9.76511000E+01	-2.40231000E+03
		-4.61516000E+02	 0.00000000E+00	-2.38200000E+03
		-4.22837000E+02	-9.76511000E+01	-2.40231000E+03
		-3.15640000E+03	 0.00000000E+00	-2.65065000E+03
		-9.20938000E+02	 0.00000000E+00	 0.00000000E+00
		-2.47973000E+03	 0.00000000E+00	 0.00000000E+00
		-2.41200000E+03	 0.00000000E+00	-4.94665000E+02
		-2.45916000E+03	 0.00000000E+00	 0.00000000E+00
		-2.41200000E+03	 0.00000000E+00	 4.94665000E+02
		-2.47973000E+03	 0.00000000E+00	 0.00000000E+00
		-3.83419000E+03	 0.00000000E+00	 0.00000000E+00
		-4.78081000E+03	 0.00000000E+00	 0.00000000E+00
		-4.71371000E+03	 0.00000000E+00	-1.42202000E+02
		-4.74566000E+03	 0.00000000E+00	 0.00000000E+00
		-4.71371000E+03	 0.00000000E+00	 1.42202000E+02
		-4.78081000E+03	 0.00000000E+00	 0.00000000E+00
		-4.70840000E+03	 0.00000000E+00	 0.00000000E+00
		-3.82814000E+03	 0.00000000E+00	 0.00000000E+00
		-3.76249000E+03	 0.00000000E+00	 5.66364000E+02
		-3.78872000E+03	 0.00000000E+00	 0.00000000E+00
		-3.76249000E+03	 0.00000000E+00	-5.66364000E+02
		-3.82814000E+03	 0.00000000E+00	 0.00000000E+00
		-2.07322000E+03	 0.00000000E+00	 0.00000000E+00
		 2.03868000E+01	 0.00000000E+00	 0.00000000E+00
		 1.13132000E+01	 0.00000000E+00	 8.56958000E+02
		 1.29902000E+01	 0.00000000E+00	 0.00000000E+00
		 1.13132000E+01	 0.00000000E+00	-8.56958000E+02
		 2.03868000E+01	 0.00000000E+00	 0.00000000E+00
		 2.02214000E+03	 0.00000000E+00	 0.00000000E+00
		 3.54151000E+03	 0.00000000E+00	 0.00000000E+00
		 3.46266000E+03	 0.00000000E+00	 4.04011000E+02
		 3.48872000E+03	 0.00000000E+00	 0.00000000E+00
		 3.46266000E+03	 0.00000000E+00	-4.04011000E+02
		 3.54151000E+03	 0.00000000E+00	 0.00000000E+00
		 4.02311000E+03	 0.00000000E+00	 0.00000000E+00
		 3.56628000E+03	 0.00000000E+00	 0.00000000E+00
		 3.47207000E+03	 0.00000000E+00	-4.77082000E+02
		 3.50304000E+03	 0.00000000E+00	 0.00000000E+00
		 3.47207000E+03	 0.00000000E+00	 4.77082000E+02
		 3.56628000E+03	 0.00000000E+00	 0.00000000E+00
		 1.93453000E+03	 0.00000000E+00	 0.00000000E+00
		-3.55933000E+02	 0.00000000E+00	 0.00000000E+00
		-4.13939000E+02	 0.00000000E+00	-1.15848000E+03
		-3.96295000E+02	 0.00000000E+00	 0.00000000E+00
		-4.13939000E+02	 0.00000000E+00	 1.15848000E+03
		-3.55933000E+02	 0.00000000E+00	 0.00000000E+00
		-3.13564000E+03	 0.00000000E+00	 0.00000000E+00
