# vtk DataFile Version 3.0

ASCII
DATASET UNSTRUCTURED_GRID

POINTS 261 double
	 0.00000000E+00	 0.00000000E+00	 0.00000000E+00
	 1.00000000E+00	 0.00000000E+00	 0.00000000E+00
	 1.00000000E+00	 1.00000000E+00	 0.00000000E+00
	 0.00000000E+00	 1.00000000E+00	 0.00000000E+00
	 0.00000000E+00	 0.00000000E+00	 8.00000000E+00
	 1.00000000E+00	 0.00000000E+00	 8.00000000E+00
	 1.00000000E+00	 1.00000000E+00	 8.00000000E+00
	 0.00000000E+00	 1.00000000E+00	 8.00000000E+00
	 2.50000000E-01	 0.00000000E+00	 0.00000000E+00
	 5.00000000E-01	 0.00000000E+00	 0.00000000E+00
	 7.50000000E-01	 0.00000000E+00	 0.00000000E+00
	 1.00000000E+00	 2.50000000E-01	 0.00000000E+00
	 1.00000000E+00	 5.00000000E-01	 0.00000000E+00
	 1.00000000E+00	 7.50000000E-01	 0.00000000E+00
	 7.50000000E-01	 1.00000000E+00	 0.00000000E+00
	 5.00000000E-01	 1.00000000E+00	 0.00000000E+00
	 2.50000000E-01	 1.00000000E+00	 0.00000000E+00
	 0.00000000E+00	 7.50000000E-01	 0.00000000E+00
	 0.00000000E+00	 5.00000000E-01	 0.00000000E+00
	 0.00000000E+00	 2.50000000E-01	 0.00000000E+00
	 2.50000000E-01	 0.00000000E+00	 8.00000000E+00
	 5.00000000E-01	 0.00000000E+00	 8.00000000E+00
	 7.50000000E-01	 0.00000000E+00	 8.00000000E+00
	 1.00000000E+00	 2.50000000E-01	 8.00000000E+00
	 1.00000000E+00	 5.00000000E-01	 8.00000000E+00
	 1.00000000E+00	 7.50000000E-01	 8.00000000E+00
	 7.50000000E-01	 1.00000000E+00	 8.00000000E+00
	 5.00000000E-01	 1.00000000E+00	 8.00000000E+00
	 2.50000000E-01	 1.00000000E+00	 8.00000000E+00
	 0.00000000E+00	 7.50000000E-01	 8.00000000E+00
	 0.00000000E+00	 5.00000000E-01	 8.00000000E+00
	 0.00000000E+00	 2.50000000E-01	 8.00000000E+00
	 1.00000000E+00	 0.00000000E+00	 5.00000000E-01
	 1.00000000E+00	 0.00000000E+00	 1.00000000E+00
	 1.00000000E+00	 0.00000000E+00	 1.50000000E+00
	 1.00000000E+00	 0.00000000E+00	 2.00000000E+00
	 1.00000000E+00	 0.00000000E+00	 2.50000000E+00
	 1.00000000E+00	 0.00000000E+00	 3.00000000E+00
	 1.00000000E+00	 0.00000000E+00	 3.50000000E+00
	 1.00000000E+00	 0.00000000E+00	 4.00000000E+00
	 1.00000000E+00	 0.00000000E+00	 4.50000000E+00
	 1.00000000E+00	 0.00000000E+00	 5.00000000E+00
	 1.00000000E+00	 0.00000000E+00	 5.50000000E+00
	 1.00000000E+00	 0.00000000E+00	 6.00000000E+00
	 1.00000000E+00	 0.00000000E+00	 6.50000000E+00
	 1.00000000E+00	 0.00000000E+00	 7.00000000E+00
	 1.00000000E+00	 0.00000000E+00	 7.50000000E+00
	 0.00000000E+00	 0.00000000E+00	 7.50000000E+00
	 0.00000000E+00	 0.00000000E+00	 7.00000000E+00
	 0.00000000E+00	 0.00000000E+00	 6.50000000E+00
	 0.00000000E+00	 0.00000000E+00	 6.00000000E+00
	 0.00000000E+00	 0.00000000E+00	 5.50000000E+00
	 0.00000000E+00	 0.00000000E+00	 5.00000000E+00
	 0.00000000E+00	 0.00000000E+00	 4.50000000E+00
	 0.00000000E+00	 0.00000000E+00	 4.00000000E+00
	 0.00000000E+00	 0.00000000E+00	 3.50000000E+00
	 0.00000000E+00	 0.00000000E+00	 3.00000000E+00
	 0.00000000E+00	 0.00000000E+00	 2.50000000E+00
	 0.00000000E+00	 0.00000000E+00	 2.00000000E+00
	 0.00000000E+00	 0.00000000E+00	 1.50000000E+00
	 0.00000000E+00	 0.00000000E+00	 1.00000000E+00
	 0.00000000E+00	 0.00000000E+00	 5.00000000E-01
	 1.00000000E+00	 1.00000000E+00	 5.00000000E-01
	 1.00000000E+00	 1.00000000E+00	 1.00000000E+00
	 1.00000000E+00	 1.00000000E+00	 1.50000000E+00
	 1.00000000E+00	 1.00000000E+00	 2.00000000E+00
	 1.00000000E+00	 1.00000000E+00	 2.50000000E+00
	 1.00000000E+00	 1.00000000E+00	 3.00000000E+00
	 1.00000000E+00	 1.00000000E+00	 3.50000000E+00
	 1.00000000E+00	 1.00000000E+00	 4.00000000E+00
	 1.00000000E+00	 1.00000000E+00	 4.50000000E+00
	 1.00000000E+00	 1.00000000E+00	 5.00000000E+00
	 1.00000000E+00	 1.00000000E+00	 5.50000000E+00
	 1.00000000E+00	 1.00000000E+00	 6.00000000E+00
	 1.00000000E+00	 1.00000000E+00	 6.50000000E+00
	 1.00000000E+00	 1.00000000E+00	 7.00000000E+00
	 1.00000000E+00	 1.00000000E+00	 7.50000000E+00
	 0.00000000E+00	 1.00000000E+00	 5.00000000E-01
	 0.00000000E+00	 1.00000000E+00	 1.00000000E+00
	 0.00000000E+00	 1.00000000E+00	 1.50000000E+00
	 0.00000000E+00	 1.00000000E+00	 2.00000000E+00
	 0.00000000E+00	 1.00000000E+00	 2.50000000E+00
	 0.00000000E+00	 1.00000000E+00	 3.00000000E+00
	 0.00000000E+00	 1.00000000E+00	 3.50000000E+00
	 0.00000000E+00	 1.00000000E+00	 4.00000000E+00
	 0.00000000E+00	 1.00000000E+00	 4.50000000E+00
	 0.00000000E+00	 1.00000000E+00	 5.00000000E+00
	 0.00000000E+00	 1.00000000E+00	 5.50000000E+00
	 0.00000000E+00	 1.00000000E+00	 6.00000000E+00
	 0.00000000E+00	 1.00000000E+00	 6.50000000E+00
	 0.00000000E+00	 1.00000000E+00	 7.00000000E+00
	 0.00000000E+00	 1.00000000E+00	 7.50000000E+00
	 5.00000000E-01	 2.50000000E-01	 0.00000000E+00
	 2.50000000E-01	 5.00000000E-01	 0.00000000E+00
	 5.00000000E-01	 5.00000000E-01	 0.00000000E+00
	 7.50000000E-01	 5.00000000E-01	 0.00000000E+00
	 5.00000000E-01	 7.50000000E-01	 0.00000000E+00
	 5.00000000E-01	 2.50000000E-01	 8.00000000E+00
	 2.50000000E-01	 5.00000000E-01	 8.00000000E+00
	 5.00000000E-01	 5.00000000E-01	 8.00000000E+00
	 7.50000000E-01	 5.00000000E-01	 8.00000000E+00
	 5.00000000E-01	 7.50000000E-01	 8.00000000E+00
	 5.00000000E-01	 0.00000000E+00	 5.00000000E-01
	 2.50000000E-01	 0.00000000E+00	 1.00000000E+00
	 5.00000000E-01	 0.00000000E+00	 1.00000000E+00
	 7.50000000E-01	 0.00000000E+00	 1.00000000E+00
	 5.00000000E-01	 0.00000000E+00	 1.50000000E+00
	 2.50000000E-01	 0.00000000E+00	 2.00000000E+00
	 5.00000000E-01	 0.00000000E+00	 2.00000000E+00
	 7.50000000E-01	 0.00000000E+00	 2.00000000E+00
	 5.00000000E-01	 0.00000000E+00	 2.50000000E+00
	 2.50000000E-01	 0.00000000E+00	 3.00000000E+00
	 5.00000000E-01	 0.00000000E+00	 3.00000000E+00
	 7.50000000E-01	 0.00000000E+00	 3.00000000E+00
	 5.00000000E-01	 0.00000000E+00	 3.50000000E+00
	 2.50000000E-01	 0.00000000E+00	 4.00000000E+00
	 5.00000000E-01	 0.00000000E+00	 4.00000000E+00
	 7.50000000E-01	 0.00000000E+00	 4.00000000E+00
	 5.00000000E-01	 0.00000000E+00	 4.50000000E+00
	 2.50000000E-01	 0.00000000E+00	 5.00000000E+00
	 5.00000000E-01	 0.00000000E+00	 5.00000000E+00
	 7.50000000E-01	 0.00000000E+00	 5.00000000E+00
	 5.00000000E-01	 0.00000000E+00	 5.50000000E+00
	 2.50000000E-01	 0.00000000E+00	 6.00000000E+00
	 5.00000000E-01	 0.00000000E+00	 6.00000000E+00
	 7.50000000E-01	 0.00000000E+00	 6.00000000E+00
	 5.00000000E-01	 0.00000000E+00	 6.50000000E+00
	 2.50000000E-01	 0.00000000E+00	 7.00000000E+00
	 5.00000000E-01	 0.00000000E+00	 7.00000000E+00
	 7.50000000E-01	 0.00000000E+00	 7.00000000E+00
	 5.00000000E-01	 0.00000000E+00	 7.50000000E+00
	 1.00000000E+00	 5.00000000E-01	 5.00000000E-01
	 1.00000000E+00	 2.50000000E-01	 1.00000000E+00
	 1.00000000E+00	 5.00000000E-01	 1.00000000E+00
	 1.00000000E+00	 7.50000000E-01	 1.00000000E+00
	 1.00000000E+00	 5.00000000E-01	 1.50000000E+00
	 1.00000000E+00	 2.50000000E-01	 2.00000000E+00
	 1.00000000E+00	 5.00000000E-01	 2.00000000E+00
	 1.00000000E+00	 7.50000000E-01	 2.00000000E+00
	 1.00000000E+00	 5.00000000E-01	 2.50000000E+00
	 1.00000000E+00	 2.50000000E-01	 3.00000000E+00
	 1.00000000E+00	 5.00000000E-01	 3.00000000E+00
	 1.00000000E+00	 7.50000000E-01	 3.00000000E+00
	 1.00000000E+00	 5.00000000E-01	 3.50000000E+00
	 1.00000000E+00	 2.50000000E-01	 4.00000000E+00
	 1.00000000E+00	 5.00000000E-01	 4.00000000E+00
	 1.00000000E+00	 7.50000000E-01	 4.00000000E+00
	 1.00000000E+00	 5.00000000E-01	 4.50000000E+00
	 1.00000000E+00	 2.50000000E-01	 5.00000000E+00
	 1.00000000E+00	 5.00000000E-01	 5.00000000E+00
	 1.00000000E+00	 7.50000000E-01	 5.00000000E+00
	 1.00000000E+00	 5.00000000E-01	 5.50000000E+00
	 1.00000000E+00	 2.50000000E-01	 6.00000000E+00
	 1.00000000E+00	 5.00000000E-01	 6.00000000E+00
	 1.00000000E+00	 7.50000000E-01	 6.00000000E+00
	 1.00000000E+00	 5.00000000E-01	 6.50000000E+00
	 1.00000000E+00	 2.50000000E-01	 7.00000000E+00
	 1.00000000E+00	 5.00000000E-01	 7.00000000E+00
	 1.00000000E+00	 7.50000000E-01	 7.00000000E+00
	 1.00000000E+00	 5.00000000E-01	 7.50000000E+00
	 5.00000000E-01	 1.00000000E+00	 5.00000000E-01
	 7.50000000E-01	 1.00000000E+00	 1.00000000E+00
	 5.00000000E-01	 1.00000000E+00	 1.00000000E+00
	 2.50000000E-01	 1.00000000E+00	 1.00000000E+00
	 5.00000000E-01	 1.00000000E+00	 1.50000000E+00
	 7.50000000E-01	 1.00000000E+00	 2.00000000E+00
	 5.00000000E-01	 1.00000000E+00	 2.00000000E+00
	 2.50000000E-01	 1.00000000E+00	 2.00000000E+00
	 5.00000000E-01	 1.00000000E+00	 2.50000000E+00
	 7.50000000E-01	 1.00000000E+00	 3.00000000E+00
	 5.00000000E-01	 1.00000000E+00	 3.00000000E+00
	 2.50000000E-01	 1.00000000E+00	 3.00000000E+00
	 5.00000000E-01	 1.00000000E+00	 3.50000000E+00
	 7.50000000E-01	 1.00000000E+00	 4.00000000E+00
	 5.00000000E-01	 1.00000000E+00	 4.00000000E+00
	 2.50000000E-01	 1.00000000E+00	 4.00000000E+00
	 5.00000000E-01	 1.00000000E+00	 4.50000000E+00
	 7.50000000E-01	 1.00000000E+00	 5.00000000E+00
	 5.00000000E-01	 1.00000000E+00	 5.00000000E+00
	 2.50000000E-01	 1.00000000E+00	 5.00000000E+00
	 5.00000000E-01	 1.00000000E+00	 5.50000000E+00
	 7.50000000E-01	 1.00000000E+00	 6.00000000E+00
	 5.00000000E-01	 1.00000000E+00	 6.00000000E+00
	 2.50000000E-01	 1.00000000E+00	 6.00000000E+00
	 5.00000000E-01	 1.00000000E+00	 6.50000000E+00
	 7.50000000E-01	 1.00000000E+00	 7.00000000E+00
	 5.00000000E-01	 1.00000000E+00	 7.00000000E+00
	 2.50000000E-01	 1.00000000E+00	 7.00000000E+00
	 5.00000000E-01	 1.00000000E+00	 7.50000000E+00
	 0.00000000E+00	 5.00000000E-01	 5.00000000E-01
	 0.00000000E+00	 7.50000000E-01	 1.00000000E+00
	 0.00000000E+00	 5.00000000E-01	 1.00000000E+00
	 0.00000000E+00	 2.50000000E-01	 1.00000000E+00
	 0.00000000E+00	 5.00000000E-01	 1.50000000E+00
	 0.00000000E+00	 7.50000000E-01	 2.00000000E+00
	 0.00000000E+00	 5.00000000E-01	 2.00000000E+00
	 0.00000000E+00	 2.50000000E-01	 2.00000000E+00
	 0.00000000E+00	 5.00000000E-01	 2.50000000E+00
	 0.00000000E+00	 7.50000000E-01	 3.00000000E+00
	 0.00000000E+00	 5.00000000E-01	 3.00000000E+00
	 0.00000000E+00	 2.50000000E-01	 3.00000000E+00
	 0.00000000E+00	 5.00000000E-01	 3.50000000E+00
	 0.00000000E+00	 7.50000000E-01	 4.00000000E+00
	 0.00000000E+00	 5.00000000E-01	 4.00000000E+00
	 0.00000000E+00	 2.50000000E-01	 4.00000000E+00
	 0.00000000E+00	 5.00000000E-01	 4.50000000E+00
	 0.00000000E+00	 7.50000000E-01	 5.00000000E+00
	 0.00000000E+00	 5.00000000E-01	 5.00000000E+00
	 0.00000000E+00	 2.50000000E-01	 5.00000000E+00
	 0.00000000E+00	 5.00000000E-01	 5.50000000E+00
	 0.00000000E+00	 7.50000000E-01	 6.00000000E+00
	 0.00000000E+00	 5.00000000E-01	 6.00000000E+00
	 0.00000000E+00	 2.50000000E-01	 6.00000000E+00
	 0.00000000E+00	 5.00000000E-01	 6.50000000E+00
	 0.00000000E+00	 7.50000000E-01	 7.00000000E+00
	 0.00000000E+00	 5.00000000E-01	 7.00000000E+00
	 0.00000000E+00	 2.50000000E-01	 7.00000000E+00
	 0.00000000E+00	 5.00000000E-01	 7.50000000E+00
	 5.00000000E-01	 5.00000000E-01	 5.00000000E-01
	 5.00000000E-01	 2.50000000E-01	 1.00000000E+00
	 2.50000000E-01	 5.00000000E-01	 1.00000000E+00
	 5.00000000E-01	 5.00000000E-01	 1.00000000E+00
	 7.50000000E-01	 5.00000000E-01	 1.00000000E+00
	 5.00000000E-01	 7.50000000E-01	 1.00000000E+00
	 5.00000000E-01	 5.00000000E-01	 1.50000000E+00
	 5.00000000E-01	 2.50000000E-01	 2.00000000E+00
	 2.50000000E-01	 5.00000000E-01	 2.00000000E+00
	 5.00000000E-01	 5.00000000E-01	 2.00000000E+00
	 7.50000000E-01	 5.00000000E-01	 2.00000000E+00
	 5.00000000E-01	 7.50000000E-01	 2.00000000E+00
	 5.00000000E-01	 5.00000000E-01	 2.50000000E+00
	 5.00000000E-01	 2.50000000E-01	 3.00000000E+00
	 2.50000000E-01	 5.00000000E-01	 3.00000000E+00
	 5.00000000E-01	 5.00000000E-01	 3.00000000E+00
	 7.50000000E-01	 5.00000000E-01	 3.00000000E+00
	 5.00000000E-01	 7.50000000E-01	 3.00000000E+00
	 5.00000000E-01	 5.00000000E-01	 3.50000000E+00
	 5.00000000E-01	 2.50000000E-01	 4.00000000E+00
	 2.50000000E-01	 5.00000000E-01	 4.00000000E+00
	 5.00000000E-01	 5.00000000E-01	 4.00000000E+00
	 7.50000000E-01	 5.00000000E-01	 4.00000000E+00
	 5.00000000E-01	 7.50000000E-01	 4.00000000E+00
	 5.00000000E-01	 5.00000000E-01	 4.50000000E+00
	 5.00000000E-01	 2.50000000E-01	 5.00000000E+00
	 2.50000000E-01	 5.00000000E-01	 5.00000000E+00
	 5.00000000E-01	 5.00000000E-01	 5.00000000E+00
	 7.50000000E-01	 5.00000000E-01	 5.00000000E+00
	 5.00000000E-01	 7.50000000E-01	 5.00000000E+00
	 5.00000000E-01	 5.00000000E-01	 5.50000000E+00
	 5.00000000E-01	 2.50000000E-01	 6.00000000E+00
	 2.50000000E-01	 5.00000000E-01	 6.00000000E+00
	 5.00000000E-01	 5.00000000E-01	 6.00000000E+00
	 7.50000000E-01	 5.00000000E-01	 6.00000000E+00
	 5.00000000E-01	 7.50000000E-01	 6.00000000E+00
	 5.00000000E-01	 5.00000000E-01	 6.50000000E+00
	 5.00000000E-01	 2.50000000E-01	 7.00000000E+00
	 2.50000000E-01	 5.00000000E-01	 7.00000000E+00
	 5.00000000E-01	 5.00000000E-01	 7.00000000E+00
	 7.50000000E-01	 5.00000000E-01	 7.00000000E+00
	 5.00000000E-01	 7.50000000E-01	 7.00000000E+00
	 5.00000000E-01	 5.00000000E-01	 7.50000000E+00

CELLS 32 672
	20 0 9 94 18 60 104 221 191 8 92 93 19 103 219 220 192 61 102 218 189 
	20 9 1 12 94 104 33 133 221 10 11 95 92 105 132 222 219 102 32 131 218 
	20 18 94 15 3 191 221 162 78 93 96 16 17 220 223 163 190 189 218 160 77 
	20 94 12 2 15 221 133 63 162 95 13 14 96 222 134 161 223 218 131 62 160 
	20 60 104 221 191 58 108 227 195 103 219 220 192 107 225 226 196 59 106 224 193 
	20 104 33 133 221 108 35 137 227 105 132 222 219 109 136 228 225 106 34 135 224 
	20 191 221 162 78 195 227 166 80 220 223 163 190 226 229 167 194 193 224 164 79 
	20 221 133 63 162 227 137 65 166 222 134 161 223 228 138 165 229 224 135 64 164 
	20 58 108 227 195 56 112 233 199 107 225 226 196 111 231 232 200 57 110 230 197 
	20 108 35 137 227 112 37 141 233 109 136 228 225 113 140 234 231 110 36 139 230 
	20 195 227 166 80 199 233 170 82 226 229 167 194 232 235 171 198 197 230 168 81 
	20 227 137 65 166 233 141 67 170 228 138 165 229 234 142 169 235 230 139 66 168 
	20 56 112 233 199 54 116 239 203 111 231 232 200 115 237 238 204 55 114 236 201 
	20 112 37 141 233 116 39 145 239 113 140 234 231 117 144 240 237 114 38 143 236 
	20 199 233 170 82 203 239 174 84 232 235 171 198 238 241 175 202 201 236 172 83 
	20 233 141 67 170 239 145 69 174 234 142 169 235 240 146 173 241 236 143 68 172 
	20 54 116 239 203 52 120 245 207 115 237 238 204 119 243 244 208 53 118 242 205 
	20 116 39 145 239 120 41 149 245 117 144 240 237 121 148 246 243 118 40 147 242 
	20 203 239 174 84 207 245 178 86 238 241 175 202 244 247 179 206 205 242 176 85 
	20 239 145 69 174 245 149 71 178 240 146 173 241 246 150 177 247 242 147 70 176 
	20 52 120 245 207 50 124 251 211 119 243 244 208 123 249 250 212 51 122 248 209 
	20 120 41 149 245 124 43 153 251 121 148 246 243 125 152 252 249 122 42 151 248 
	20 207 245 178 86 211 251 182 88 244 247 179 206 250 253 183 210 209 248 180 87 
	20 245 149 71 178 251 153 73 182 246 150 177 247 252 154 181 253 248 151 72 180 
	20 50 124 251 211 48 128 257 215 123 249 250 212 127 255 256 216 49 126 254 213 
	20 124 43 153 251 128 45 157 257 125 152 252 249 129 156 258 255 126 44 155 254 
	20 211 251 182 88 215 257 186 90 250 253 183 210 256 259 187 214 213 254 184 89 
	20 251 153 73 182 257 157 75 186 252 154 181 253 258 158 185 259 254 155 74 184 
	20 48 128 257 215 4 21 99 30 127 255 256 216 20 97 98 31 47 130 260 217 
	20 128 45 157 257 21 5 24 99 129 156 258 255 22 23 100 97 130 46 159 260 
	20 215 257 186 90 30 99 27 7 256 259 187 214 98 101 28 29 217 260 188 91 
	20 257 157 75 186 99 24 6 27 258 158 185 259 100 25 26 101 260 159 76 188 

CELL_TYPES 32
	25
	25
	25
	25
	25
	25
	25
	25
	25
	25
	25
	25
	25
	25
	25
	25
	25
	25
	25
	25
	25
	25
	25
	25
	25
	25
	25
	25
	25
	25
	25
	25

POINT_DATA 261
FIELD U 1
	U 3 261 double
		 0.00000000E+00	 0.00000000E+00	 0.00000000E+00
		 0.00000000E+00	 0.00000000E+00	 0.00000000E+00
		 0.00000000E+00	 0.00000000E+00	 0.00000000E+00
		 0.00000000E+00	 0.00000000E+00	 0.00000000E+00
		 3.46136000E-05	 7.19261000E-03	 1.43680000E-03
		-3.56456000E-05	 7.19181000E-03	 1.43654000E-03
		 3.51196000E-05	 7.19007000E-03	-1.45297000E-03
		-3.43890000E-05	 7.18880000E-03	-1.45256000E-03
		 0.00000000E+00	 0.00000000E+00	 0.00000000E+00
		 0.00000000E+00	 0.00000000E+00	 0.00000000E+00
		 0.00000000E+00	 0.00000000E+00	 0.00000000E+00
		 0.00000000E+00	 0.00000000E+00	 0.00000000E+00
		 0.00000000E+00	 0.00000000E+00	 0.00000000E+00
		 0.00000000E+00	 0.00000000E+00	 0.00000000E+00
		 0.00000000E+00	 0.00000000E+00	 0.00000000E+00
		 0.00000000E+00	 0.00000000E+00	 0.00000000E+00
		 0.00000000E+00	 0.00000000E+00	 0.00000000E+00
		 0.00000000E+00	 0.00000000E+00	 0.00000000E+00
		 0.00000000E+00	 0.00000000E+00	 0.00000000E+00
		 0.00000000E+00	 0.00000000E+00	 0.00000000E+00
		 2.93038000E-05	 7.22123000E-03	 1.43464000E-03
		-3.84402000E-07	 7.14263000E-03	 1.43182000E-03
		-3.01503000E-05	 7.22095000E-03	 1.43430000E-03
		-1.68809000E-06	 7.16933000E-03	 6.98406000E-04
		 3.42685000E-07	 7.12411000E-03	-7.81184000E-06
		 1.40774000E-06	 7.16866000E-03	-7.13592000E-04
		 3.00242000E-05	 7.21776000E-03	-1.45084000E-03
		 3.89183000E-07	 7.13725000E-03	-1.44730000E-03
		-2.92948000E-05	 7.21663000E-03	-1.45035000E-03
		-1.38775000E-06	 7.16910000E-03	-7.14177000E-04
		-2.70394000E-07	 7.12644000E-03	-7.89723000E-06
		 1.30253000E-06	 7.17091000E-03	 6.98623000E-04
		 1.38284000E-05	-3.01855000E-05	-4.34469000E-05
		 7.85020000E-06	-9.88561000E-05	-8.17243000E-05
		 6.31164000E-06	-2.11557000E-04	-1.09951000E-04
		-3.16990000E-07	-3.45947000E-04	-1.21074000E-04
		-8.80013000E-06	-4.93016000E-04	-1.07465000E-04
		-2.12027000E-05	-6.14183000E-04	-5.84137000E-05
		-3.53765000E-05	-6.75845000E-04	 3.59460000E-05
		-5.06938000E-05	-6.13278000E-04	 1.80472000E-04
		-6.33467000E-05	-3.81994000E-04	 3.72834000E-04
		-7.04019000E-05	 9.03092000E-05	 6.00925000E-04
		-6.90562000E-05	 8.00721000E-04	 8.35192000E-04
		-5.68870000E-05	 1.79388000E-03	 1.05775000E-03
		-4.55434000E-05	 2.96577000E-03	 1.21836000E-03
		-2.20606000E-05	 4.34250000E-03	 1.34991000E-03
		-3.32688000E-05	 5.70476000E-03	 1.41502000E-03
		 3.30070000E-05	 5.70528000E-03	 1.41524000E-03
		 2.17634000E-05	 4.34347000E-03	 1.35028000E-03
		 4.56950000E-05	 2.96585000E-03	 1.21854000E-03
		 5.73088000E-05	 1.79322000E-03	 1.05767000E-03
		 6.98060000E-05	 8.00080000E-04	 8.35240000E-04
		 7.10537000E-05	 8.95017000E-05	 6.00867000E-04
		 6.39204000E-05	-3.82508000E-04	 3.72842000E-04
		 5.10982000E-05	-6.13752000E-04	 1.80450000E-04
		 3.56967000E-05	-6.76131000E-04	 3.59492000E-05
		 2.14015000E-05	-6.14405000E-04	-5.84200000E-05
		 8.92886000E-06	-4.93127000E-04	-1.07460000E-04
		 3.78308000E-07	-3.46018000E-04	-1.21074000E-04
		-6.27999000E-06	-2.11583000E-04	-1.09948000E-04
		-7.84118000E-06	-9.88698000E-05	-8.17247000E-05
		-1.38253000E-05	-3.01878000E-05	-4.34461000E-05
		-1.39028000E-05	-3.02662000E-05	 4.36600000E-05
		-7.90771000E-06	-9.89273000E-05	 8.21418000E-05
		-6.38072000E-06	-2.11652000E-04	 1.10572000E-04
		 2.53483000E-07	-3.46043000E-04	 1.21890000E-04
		 8.73508000E-06	-4.93110000E-04	 1.08469000E-04
		 2.11483000E-05	-6.14257000E-04	 5.96243000E-05
		 3.53205000E-05	-6.75937000E-04	-3.45225000E-05
		 5.06555000E-05	-6.13392000E-04	-1.78848000E-04
		 6.32705000E-05	-3.82398000E-04	-3.71211000E-04
		 7.03438000E-05	 8.96689000E-05	-5.99695000E-04
		 6.90395000E-05	 7.99061000E-04	-8.34745000E-04
		 5.67674000E-05	 1.79211000E-03	-1.05904000E-03
		 4.54010000E-05	 2.96242000E-03	-1.22234000E-03
		 2.09155000E-05	 4.34193000E-03	-1.35909000E-03
		 3.40658000E-05	 5.69858000E-03	-1.42742000E-03
		 1.38993000E-05	-3.02688000E-05	 4.36598000E-05
		 7.89722000E-06	-9.89414000E-05	 8.21435000E-05
		 6.35238000E-06	-2.11679000E-04	 1.10573000E-04
		-3.10725000E-07	-3.46115000E-04	 1.21894000E-04
		-8.84694000E-06	-4.93221000E-04	 1.08472000E-04
		-2.13323000E-05	-6.14480000E-04	 5.96325000E-05
		-3.56088000E-05	-6.76218000E-04	-3.45306000E-05
		-5.10614000E-05	-6.13883000E-04	-1.78855000E-04
		-6.38447000E-05	-3.82909000E-04	-3.71199000E-04
		-7.10433000E-05	 8.87512000E-05	-5.99587000E-04
		-6.97216000E-05	 7.98515000E-04	-8.34815000E-04
		-5.72717000E-05	 1.79103000E-03	-1.05917000E-03
		-4.55540000E-05	 2.96280000E-03	-1.22239000E-03
		-2.08099000E-05	 4.34021000E-03	-1.35780000E-03
		-3.29995000E-05	 5.70091000E-03	-1.42671000E-03
		 0.00000000E+00	 0.00000000E+00	 0.00000000E+00
		 0.00000000E+00	 0.00000000E+00	 0.00000000E+00
		 0.00000000E+00	 0.00000000E+00	 0.00000000E+00
		 0.00000000E+00	 0.00000000E+00	 0.00000000E+00
		 0.00000000E+00	 0.00000000E+00	 0.00000000E+00
		-1.92859000E-07	 7.34481000E-03	 7.37969000E-04
		 0.00000000E+00	 7.26959000E-03	-7.89164000E-06
		 6.28354000E-08	 7.58363000E-03	-8.12136000E-06
		 4.23628000E-08	 7.26818000E-03	-7.74208000E-06
		 2.62673000E-07	 7.34192000E-03	-7.54348000E-04
		 1.28355000E-09	-3.59586000E-05	-4.24537000E-05
		-3.86036000E-06	-1.03300000E-04	-8.29065000E-05
		 6.38991000E-09	-1.04254000E-04	-8.35867000E-05
		 3.87121000E-06	-1.03293000E-04	-8.29048000E-05
		 1.49934000E-08	-2.14063000E-04	-1.10762000E-04
		 2.15116000E-07	-3.46776000E-04	-1.23015000E-04
		 3.63085000E-08	-3.47497000E-04	-1.23130000E-04
		-1.48337000E-07	-3.46740000E-04	-1.23009000E-04
		 6.13976000E-08	-4.87637000E-04	-1.09514000E-04
		 1.07366000E-05	-6.08260000E-04	-6.18867000E-05
		 1.09369000E-07	-6.06988000E-04	-6.18790000E-05
		-1.05276000E-05	-6.08151000E-04	-6.18685000E-05
		 1.55508000E-07	-6.55965000E-04	 3.30726000E-05
		 2.57077000E-05	-5.98054000E-04	 1.76169000E-04
		 2.32531000E-07	-5.95549000E-04	 1.75879000E-04
		-2.52734000E-05	-5.97808000E-04	 1.76196000E-04
		 2.64211000E-07	-3.45463000E-04	 3.72018000E-04
		 3.55021000E-05	 1.07085000E-04	 5.98148000E-04
		 3.51825000E-07	 1.07317000E-04	 5.96359000E-04
		-3.48236000E-05	 1.07459000E-04	 5.98213000E-04
		 3.51775000E-07	 8.48210000E-04	 8.37986000E-04
		 2.95407000E-05	 1.79876000E-03	 1.05433000E-03
		 3.98784000E-07	 1.78417000E-03	 1.04704000E-03
		-2.89290000E-05	 1.79918000E-03	 1.05427000E-03
		-1.05421000E-07	 3.01193000E-03	 1.23638000E-03
		 8.74765000E-06	 4.29975000E-03	 1.34417000E-03
		-2.23201000E-07	 4.27017000E-03	 1.33571000E-03
		-9.15003000E-06	 4.29900000E-03	 1.34398000E-03
		-2.64163000E-07	 5.79486000E-03	 1.42263000E-03
		-3.70465000E-08	-2.18373000E-05	 1.01808000E-07
		 3.94206000E-06	-9.65145000E-05	-3.90273000E-05
		-2.92092000E-08	-9.78502000E-05	 2.11429000E-07
		-3.99973000E-06	-9.65500000E-05	 3.94470000E-05
		-3.37250000E-08	-2.07600000E-04	 3.11619000E-07
		-2.12589000E-07	-3.47358000E-04	-5.63969000E-05
		-3.26555000E-08	-3.48841000E-04	 4.05836000E-07
		 1.48042000E-07	-3.47404000E-04	 5.72113000E-05
		-3.10871000E-08	-4.97231000E-04	 5.01391000E-07
		-1.06452000E-05	-6.23585000E-04	-2.17230000E-05
		-2.80749000E-08	-6.28025000E-04	 5.97116000E-07
		 1.05908000E-05	-6.23619000E-04	 2.29216000E-05
		-2.03634000E-08	-6.92018000E-04	 7.03861000E-07
		-2.53411000E-05	-6.35066000E-04	 9.84425000E-05
		-1.16195000E-08	-6.43994000E-04	 7.89166000E-07
		 2.53082000E-05	-6.35131000E-04	-9.68414000E-05
		-5.62502000E-09	-4.09008000E-04	 8.45502000E-07
		-3.51858000E-05	 5.61092000E-05	 3.02610000E-04
		-2.23591000E-09	 4.09412000E-05	 7.25367000E-07
		 3.51781000E-05	 5.57730000E-05	-3.01262000E-04
		-8.55399000E-09	 7.78423000E-04	 2.70461000E-07
		-2.79965000E-05	 1.75821000E-03	 5.20728000E-04
		 9.35649000E-08	 1.73649000E-03	-6.89746000E-07
		 2.79468000E-05	 1.75739000E-03	-5.22065000E-04
		 1.97509000E-08	 2.95709000E-03	-1.66076000E-06
		-1.30986000E-05	 4.28066000E-03	 6.67567000E-04
		 3.08912000E-07	 4.23122000E-03	-2.50343000E-06
		 1.30046000E-05	 4.28038000E-03	-6.75369000E-04
		-3.07831000E-07	 5.78493000E-03	-5.31075000E-06
		-1.85869000E-09	-3.60392000E-05	 4.26552000E-05
		-3.89979000E-06	-1.03367000E-04	 8.33219000E-05
		-6.10985000E-09	-1.04330000E-04	 8.40063000E-05
		 3.88850000E-06	-1.03374000E-04	 8.33245000E-05
		-1.42750000E-08	-2.14157000E-04	 1.11383000E-04
		 1.19508000E-07	-3.46841000E-04	 1.23824000E-04
		-3.04857000E-08	-3.47602000E-04	 1.23946000E-04
		-1.78778000E-07	-3.46878000E-04	 1.23833000E-04
		-5.56469000E-08	-4.87728000E-04	 1.10527000E-04
		 1.05086000E-05	-6.08239000E-04	 6.30863000E-05
		-9.37764000E-08	-6.07089000E-04	 6.30949000E-05
		-1.06935000E-05	-6.08349000E-04	 6.31037000E-05
		-1.45027000E-07	-6.56040000E-04	-3.16435000E-05
		 2.52705000E-05	-5.97968000E-04	-1.74593000E-04
		-2.06669000E-07	-5.95746000E-04	-1.74275000E-04
		-2.56818000E-05	-5.98219000E-04	-1.74572000E-04
		-2.83286000E-07	-3.45822000E-04	-3.70422000E-04
		 3.48095000E-05	 1.06634000E-04	-5.96933000E-04
		-3.27407000E-07	 1.06345000E-04	-5.95071000E-04
		-3.54828000E-05	 1.06200000E-04	-5.96873000E-04
		-3.75370000E-07	 8.46778000E-04	-8.37731000E-04
		 2.89497000E-05	 1.79696000E-03	-1.05573000E-03
		-2.67170000E-07	 1.78142000E-03	-1.04819000E-03
		-2.94733000E-05	 1.79631000E-03	-1.05571000E-03
		-9.22653000E-08	 3.00917000E-03	-1.24089000E-03
		 8.44537000E-06	 4.29582000E-03	-1.35168000E-03
		 2.59234000E-07	 4.26498000E-03	-1.34275000E-03
		-8.14843000E-06	 4.29529000E-03	-1.35137000E-03
		 2.76203000E-07	 5.79147000E-03	-1.43406000E-03
		 3.65968000E-08	-2.18410000E-05	 1.01883000E-07
		 3.99494000E-06	-9.65615000E-05	 3.94468000E-05
		 3.00946000E-08	-9.78590000E-05	 2.12531000E-07
		-3.93710000E-06	-9.65257000E-05	-3.90252000E-05
		 3.43217000E-08	-2.07632000E-04	 3.13364000E-07
		-1.73825000E-07	-3.47468000E-04	 5.72089000E-05
		 3.90996000E-08	-3.48897000E-04	 4.09409000E-07
		 2.47082000E-07	-3.47422000E-04	-5.63892000E-05
		 3.67016000E-08	-4.97356000E-04	 5.03290000E-07
		-1.06733000E-05	-6.23819000E-04	 2.29125000E-05
		 4.51638000E-08	-6.28201000E-04	 6.00040000E-07
		 1.07517000E-05	-6.23784000E-04	-2.17085000E-05
		 2.74870000E-08	-6.92337000E-04	 7.01344000E-07
		-2.55054000E-05	-6.35562000E-04	-9.68577000E-05
		 3.46839000E-08	-6.44366000E-04	 7.95836000E-07
		 2.55599000E-05	-6.35490000E-04	 9.84486000E-05
		-2.06040000E-09	-4.09605000E-04	 8.25861000E-07
		-3.54976000E-05	 5.50626000E-05	-3.01259000E-04
		 2.77337000E-08	 4.04353000E-05	 7.17532000E-07
		 3.55110000E-05	 5.54566000E-05	 3.02638000E-04
		-2.30522000E-08	 7.77601000E-04	 2.53067000E-07
		-2.82194000E-05	 1.75674000E-03	-5.21912000E-04
		 4.31227000E-09	 1.73633000E-03	-5.60670000E-07
		 2.82878000E-05	 1.75779000E-03	 5.20621000E-04
		 2.85180000E-08	 2.95651000E-03	-2.03597000E-06
		-1.29116000E-05	 4.28068000E-03	-6.75561000E-04
		-2.14788000E-07	 4.23338000E-03	-3.58497000E-06
		 1.29226000E-05	 4.28228000E-03	 6.68113000E-04
		 1.27158000E-07	 5.78445000E-03	-5.78866000E-06
		 0.00000000E+00	-2.76104000E-05	 9.52836000E-08
		 2.99385000E-09	-1.01124000E-04	-4.01123000E-05
		 1.47422000E-08	-1.01613000E-04	 2.12715000E-07
		 0.00000000E+00	-1.01842000E-04	 2.14253000E-07
		-1.48638000E-08	-1.01609000E-04	 2.12133000E-07
		-3.28379000E-09	-1.01162000E-04	 4.05361000E-05
		 0.00000000E+00	-2.10787000E-04	 3.10547000E-07
		 1.82848000E-08	-3.47372000E-04	-5.82062000E-05
		 1.98643000E-08	-3.48130000E-04	 4.09490000E-07
		 0.00000000E+00	-3.47341000E-04	 4.09596000E-07
		-1.60370000E-08	-3.48102000E-04	 4.07798000E-07
		-1.49745000E-08	-3.47423000E-04	 5.90242000E-05
		 4.70230000E-09	-4.93448000E-04	 5.02568000E-07
		 5.64644000E-08	-6.13124000E-04	-2.49197000E-05
		 2.33504000E-08	-6.18750000E-04	 6.03030000E-07
		 1.86266000E-09	-6.14457000E-04	 6.05173000E-07
		-1.30813000E-08	-6.18661000E-04	 6.01476000E-07
		-4.59974000E-08	-6.13172000E-04	 2.61296000E-05
		 8.76074000E-09	-6.76358000E-04	 7.00610000E-07
		 1.09357000E-07	-6.10215000E-04	 9.46502000E-05
		 1.49947000E-08	-6.21858000E-04	 7.96417000E-07
		-5.08206000E-09	-6.11652000E-04	 7.91110000E-07
		-7.82199000E-09	-6.21674000E-04	 7.94640000E-07
		-1.05268000E-07	-6.10323000E-04	-9.30538000E-05
		 5.74619000E-09	-3.83215000E-04	 8.12001000E-07
		 1.79929000E-07	 9.11230000E-05	 2.99463000E-04
		-6.02205000E-09	 7.70761000E-05	 6.75863000E-07
		-3.24063000E-08	 9.30245000E-05	 6.65096000E-07
		-1.40179000E-08	 7.73340000E-05	 6.66531000E-07
		-1.82810000E-07	 9.06172000E-05	-2.98152000E-04
		 2.11111000E-08	 7.99934000E-04	 1.59796000E-07
		 1.10250000E-07	 1.79025000E-03	 5.19391000E-04
		-1.31818000E-08	 1.77824000E-03	-7.29313000E-07
		-2.79388000E-08	 1.81436000E-03	-9.05757000E-07
		 3.03049000E-08	 1.77829000E-03	-7.41969000E-07
		-1.29019000E-07	 1.78889000E-03	-5.20696000E-04
		 4.39628000E-08	 2.94448000E-03	-2.11713000E-06
		 9.80018000E-08	 4.32395000E-03	 6.48785000E-04
		-2.12658000E-07	 4.32755000E-03	-3.95378000E-06
		-1.37558000E-07	 4.37526000E-03	-4.25946000E-06
		 1.81155000E-07	 4.32647000E-03	-3.59038000E-06
		 4.93513000E-08	 4.32125000E-03	-6.56295000E-04
		-1.85951000E-07	 5.71395000E-03	-5.69565000E-06
