<?xml version="1.0"?>
<VTKFile type="UnstructuredGrid" version="0.1" byte_order="LittleEndian">
	<UnstructuredGrid>
		<Piece NumberOfPoints="261" NumberOfCells="32">
			<Points>
				<DataArray type="Float64" NumberOfComponents="3" format="ascii">
					 0.00000000E+00	 0.00000000E+00	 0.00000000E+00
					 1.00000000E+00	 0.00000000E+00	 0.00000000E+00
					 1.00000000E+00	 1.00000000E+00	 0.00000000E+00
					 0.00000000E+00	 1.00000000E+00	 0.00000000E+00
					 0.00000000E+00	 0.00000000E+00	 8.00000000E+00
					 1.00000000E+00	 0.00000000E+00	 8.00000000E+00
					 1.00000000E+00	 1.00000000E+00	 8.00000000E+00
					 0.00000000E+00	 1.00000000E+00	 8.00000000E+00
					 2.50000000E-01	 0.00000000E+00	 0.00000000E+00
					 5.00000000E-01	 0.00000000E+00	 0.00000000E+00
					 7.50000000E-01	 0.00000000E+00	 0.00000000E+00
					 1.00000000E+00	 2.50000000E-01	 0.00000000E+00
					 1.00000000E+00	 5.00000000E-01	 0.00000000E+00
					 1.00000000E+00	 7.50000000E-01	 0.00000000E+00
					 7.50000000E-01	 1.00000000E+00	 0.00000000E+00
					 5.00000000E-01	 1.00000000E+00	 0.00000000E+00
					 2.50000000E-01	 1.00000000E+00	 0.00000000E+00
					 0.00000000E+00	 7.50000000E-01	 0.00000000E+00
					 0.00000000E+00	 5.00000000E-01	 0.00000000E+00
					 0.00000000E+00	 2.50000000E-01	 0.00000000E+00
					 2.50000000E-01	 0.00000000E+00	 8.00000000E+00
					 5.00000000E-01	 0.00000000E+00	 8.00000000E+00
					 7.50000000E-01	 0.00000000E+00	 8.00000000E+00
					 1.00000000E+00	 2.50000000E-01	 8.00000000E+00
					 1.00000000E+00	 5.00000000E-01	 8.00000000E+00
					 1.00000000E+00	 7.50000000E-01	 8.00000000E+00
					 7.50000000E-01	 1.00000000E+00	 8.00000000E+00
					 5.00000000E-01	 1.00000000E+00	 8.00000000E+00
					 2.50000000E-01	 1.00000000E+00	 8.00000000E+00
					 0.00000000E+00	 7.50000000E-01	 8.00000000E+00
					 0.00000000E+00	 5.00000000E-01	 8.00000000E+00
					 0.00000000E+00	 2.50000000E-01	 8.00000000E+00
					 1.00000000E+00	 0.00000000E+00	 5.00000000E-01
					 1.00000000E+00	 0.00000000E+00	 1.00000000E+00
					 1.00000000E+00	 0.00000000E+00	 1.50000000E+00
					 1.00000000E+00	 0.00000000E+00	 2.00000000E+00
					 1.00000000E+00	 0.00000000E+00	 2.50000000E+00
					 1.00000000E+00	 0.00000000E+00	 3.00000000E+00
					 1.00000000E+00	 0.00000000E+00	 3.50000000E+00
					 1.00000000E+00	 0.00000000E+00	 4.00000000E+00
					 1.00000000E+00	 0.00000000E+00	 4.50000000E+00
					 1.00000000E+00	 0.00000000E+00	 5.00000000E+00
					 1.00000000E+00	 0.00000000E+00	 5.50000000E+00
					 1.00000000E+00	 0.00000000E+00	 6.00000000E+00
					 1.00000000E+00	 0.00000000E+00	 6.50000000E+00
					 1.00000000E+00	 0.00000000E+00	 7.00000000E+00
					 1.00000000E+00	 0.00000000E+00	 7.50000000E+00
					 0.00000000E+00	 0.00000000E+00	 7.50000000E+00
					 0.00000000E+00	 0.00000000E+00	 7.00000000E+00
					 0.00000000E+00	 0.00000000E+00	 6.50000000E+00
					 0.00000000E+00	 0.00000000E+00	 6.00000000E+00
					 0.00000000E+00	 0.00000000E+00	 5.50000000E+00
					 0.00000000E+00	 0.00000000E+00	 5.00000000E+00
					 0.00000000E+00	 0.00000000E+00	 4.50000000E+00
					 0.00000000E+00	 0.00000000E+00	 4.00000000E+00
					 0.00000000E+00	 0.00000000E+00	 3.50000000E+00
					 0.00000000E+00	 0.00000000E+00	 3.00000000E+00
					 0.00000000E+00	 0.00000000E+00	 2.50000000E+00
					 0.00000000E+00	 0.00000000E+00	 2.00000000E+00
					 0.00000000E+00	 0.00000000E+00	 1.50000000E+00
					 0.00000000E+00	 0.00000000E+00	 1.00000000E+00
					 0.00000000E+00	 0.00000000E+00	 5.00000000E-01
					 1.00000000E+00	 1.00000000E+00	 5.00000000E-01
					 1.00000000E+00	 1.00000000E+00	 1.00000000E+00
					 1.00000000E+00	 1.00000000E+00	 1.50000000E+00
					 1.00000000E+00	 1.00000000E+00	 2.00000000E+00
					 1.00000000E+00	 1.00000000E+00	 2.50000000E+00
					 1.00000000E+00	 1.00000000E+00	 3.00000000E+00
					 1.00000000E+00	 1.00000000E+00	 3.50000000E+00
					 1.00000000E+00	 1.00000000E+00	 4.00000000E+00
					 1.00000000E+00	 1.00000000E+00	 4.50000000E+00
					 1.00000000E+00	 1.00000000E+00	 5.00000000E+00
					 1.00000000E+00	 1.00000000E+00	 5.50000000E+00
					 1.00000000E+00	 1.00000000E+00	 6.00000000E+00
					 1.00000000E+00	 1.00000000E+00	 6.50000000E+00
					 1.00000000E+00	 1.00000000E+00	 7.00000000E+00
					 1.00000000E+00	 1.00000000E+00	 7.50000000E+00
					 0.00000000E+00	 1.00000000E+00	 5.00000000E-01
					 0.00000000E+00	 1.00000000E+00	 1.00000000E+00
					 0.00000000E+00	 1.00000000E+00	 1.50000000E+00
					 0.00000000E+00	 1.00000000E+00	 2.00000000E+00
					 0.00000000E+00	 1.00000000E+00	 2.50000000E+00
					 0.00000000E+00	 1.00000000E+00	 3.00000000E+00
					 0.00000000E+00	 1.00000000E+00	 3.50000000E+00
					 0.00000000E+00	 1.00000000E+00	 4.00000000E+00
					 0.00000000E+00	 1.00000000E+00	 4.50000000E+00
					 0.00000000E+00	 1.00000000E+00	 5.00000000E+00
					 0.00000000E+00	 1.00000000E+00	 5.50000000E+00
					 0.00000000E+00	 1.00000000E+00	 6.00000000E+00
					 0.00000000E+00	 1.00000000E+00	 6.50000000E+00
					 0.00000000E+00	 1.00000000E+00	 7.00000000E+00
					 0.00000000E+00	 1.00000000E+00	 7.50000000E+00
					 5.00000000E-01	 2.50000000E-01	 0.00000000E+00
					 2.50000000E-01	 5.00000000E-01	 0.00000000E+00
					 5.00000000E-01	 5.00000000E-01	 0.00000000E+00
					 7.50000000E-01	 5.00000000E-01	 0.00000000E+00
					 5.00000000E-01	 7.50000000E-01	 0.00000000E+00
					 5.00000000E-01	 2.50000000E-01	 8.00000000E+00
					 2.50000000E-01	 5.00000000E-01	 8.00000000E+00
					 5.00000000E-01	 5.00000000E-01	 8.00000000E+00
					 7.50000000E-01	 5.00000000E-01	 8.00000000E+00
					 5.00000000E-01	 7.50000000E-01	 8.00000000E+00
					 5.00000000E-01	 0.00000000E+00	 5.00000000E-01
					 2.50000000E-01	 0.00000000E+00	 1.00000000E+00
					 5.00000000E-01	 0.00000000E+00	 1.00000000E+00
					 7.50000000E-01	 0.00000000E+00	 1.00000000E+00
					 5.00000000E-01	 0.00000000E+00	 1.50000000E+00
					 2.50000000E-01	 0.00000000E+00	 2.00000000E+00
					 5.00000000E-01	 0.00000000E+00	 2.00000000E+00
					 7.50000000E-01	 0.00000000E+00	 2.00000000E+00
					 5.00000000E-01	 0.00000000E+00	 2.50000000E+00
					 2.50000000E-01	 0.00000000E+00	 3.00000000E+00
					 5.00000000E-01	 0.00000000E+00	 3.00000000E+00
					 7.50000000E-01	 0.00000000E+00	 3.00000000E+00
					 5.00000000E-01	 0.00000000E+00	 3.50000000E+00
					 2.50000000E-01	 0.00000000E+00	 4.00000000E+00
					 5.00000000E-01	 0.00000000E+00	 4.00000000E+00
					 7.50000000E-01	 0.00000000E+00	 4.00000000E+00
					 5.00000000E-01	 0.00000000E+00	 4.50000000E+00
					 2.50000000E-01	 0.00000000E+00	 5.00000000E+00
					 5.00000000E-01	 0.00000000E+00	 5.00000000E+00
					 7.50000000E-01	 0.00000000E+00	 5.00000000E+00
					 5.00000000E-01	 0.00000000E+00	 5.50000000E+00
					 2.50000000E-01	 0.00000000E+00	 6.00000000E+00
					 5.00000000E-01	 0.00000000E+00	 6.00000000E+00
					 7.50000000E-01	 0.00000000E+00	 6.00000000E+00
					 5.00000000E-01	 0.00000000E+00	 6.50000000E+00
					 2.50000000E-01	 0.00000000E+00	 7.00000000E+00
					 5.00000000E-01	 0.00000000E+00	 7.00000000E+00
					 7.50000000E-01	 0.00000000E+00	 7.00000000E+00
					 5.00000000E-01	 0.00000000E+00	 7.50000000E+00
					 1.00000000E+00	 5.00000000E-01	 5.00000000E-01
					 1.00000000E+00	 2.50000000E-01	 1.00000000E+00
					 1.00000000E+00	 5.00000000E-01	 1.00000000E+00
					 1.00000000E+00	 7.50000000E-01	 1.00000000E+00
					 1.00000000E+00	 5.00000000E-01	 1.50000000E+00
					 1.00000000E+00	 2.50000000E-01	 2.00000000E+00
					 1.00000000E+00	 5.00000000E-01	 2.00000000E+00
					 1.00000000E+00	 7.50000000E-01	 2.00000000E+00
					 1.00000000E+00	 5.00000000E-01	 2.50000000E+00
					 1.00000000E+00	 2.50000000E-01	 3.00000000E+00
					 1.00000000E+00	 5.00000000E-01	 3.00000000E+00
					 1.00000000E+00	 7.50000000E-01	 3.00000000E+00
					 1.00000000E+00	 5.00000000E-01	 3.50000000E+00
					 1.00000000E+00	 2.50000000E-01	 4.00000000E+00
					 1.00000000E+00	 5.00000000E-01	 4.00000000E+00
					 1.00000000E+00	 7.50000000E-01	 4.00000000E+00
					 1.00000000E+00	 5.00000000E-01	 4.50000000E+00
					 1.00000000E+00	 2.50000000E-01	 5.00000000E+00
					 1.00000000E+00	 5.00000000E-01	 5.00000000E+00
					 1.00000000E+00	 7.50000000E-01	 5.00000000E+00
					 1.00000000E+00	 5.00000000E-01	 5.50000000E+00
					 1.00000000E+00	 2.50000000E-01	 6.00000000E+00
					 1.00000000E+00	 5.00000000E-01	 6.00000000E+00
					 1.00000000E+00	 7.50000000E-01	 6.00000000E+00
					 1.00000000E+00	 5.00000000E-01	 6.50000000E+00
					 1.00000000E+00	 2.50000000E-01	 7.00000000E+00
					 1.00000000E+00	 5.00000000E-01	 7.00000000E+00
					 1.00000000E+00	 7.50000000E-01	 7.00000000E+00
					 1.00000000E+00	 5.00000000E-01	 7.50000000E+00
					 5.00000000E-01	 1.00000000E+00	 5.00000000E-01
					 7.50000000E-01	 1.00000000E+00	 1.00000000E+00
					 5.00000000E-01	 1.00000000E+00	 1.00000000E+00
					 2.50000000E-01	 1.00000000E+00	 1.00000000E+00
					 5.00000000E-01	 1.00000000E+00	 1.50000000E+00
					 7.50000000E-01	 1.00000000E+00	 2.00000000E+00
					 5.00000000E-01	 1.00000000E+00	 2.00000000E+00
					 2.50000000E-01	 1.00000000E+00	 2.00000000E+00
					 5.00000000E-01	 1.00000000E+00	 2.50000000E+00
					 7.50000000E-01	 1.00000000E+00	 3.00000000E+00
					 5.00000000E-01	 1.00000000E+00	 3.00000000E+00
					 2.50000000E-01	 1.00000000E+00	 3.00000000E+00
					 5.00000000E-01	 1.00000000E+00	 3.50000000E+00
					 7.50000000E-01	 1.00000000E+00	 4.00000000E+00
					 5.00000000E-01	 1.00000000E+00	 4.00000000E+00
					 2.50000000E-01	 1.00000000E+00	 4.00000000E+00
					 5.00000000E-01	 1.00000000E+00	 4.50000000E+00
					 7.50000000E-01	 1.00000000E+00	 5.00000000E+00
					 5.00000000E-01	 1.00000000E+00	 5.00000000E+00
					 2.50000000E-01	 1.00000000E+00	 5.00000000E+00
					 5.00000000E-01	 1.00000000E+00	 5.50000000E+00
					 7.50000000E-01	 1.00000000E+00	 6.00000000E+00
					 5.00000000E-01	 1.00000000E+00	 6.00000000E+00
					 2.50000000E-01	 1.00000000E+00	 6.00000000E+00
					 5.00000000E-01	 1.00000000E+00	 6.50000000E+00
					 7.50000000E-01	 1.00000000E+00	 7.00000000E+00
					 5.00000000E-01	 1.00000000E+00	 7.00000000E+00
					 2.50000000E-01	 1.00000000E+00	 7.00000000E+00
					 5.00000000E-01	 1.00000000E+00	 7.50000000E+00
					 0.00000000E+00	 5.00000000E-01	 5.00000000E-01
					 0.00000000E+00	 7.50000000E-01	 1.00000000E+00
					 0.00000000E+00	 5.00000000E-01	 1.00000000E+00
					 0.00000000E+00	 2.50000000E-01	 1.00000000E+00
					 0.00000000E+00	 5.00000000E-01	 1.50000000E+00
					 0.00000000E+00	 7.50000000E-01	 2.00000000E+00
					 0.00000000E+00	 5.00000000E-01	 2.00000000E+00
					 0.00000000E+00	 2.50000000E-01	 2.00000000E+00
					 0.00000000E+00	 5.00000000E-01	 2.50000000E+00
					 0.00000000E+00	 7.50000000E-01	 3.00000000E+00
					 0.00000000E+00	 5.00000000E-01	 3.00000000E+00
					 0.00000000E+00	 2.50000000E-01	 3.00000000E+00
					 0.00000000E+00	 5.00000000E-01	 3.50000000E+00
					 0.00000000E+00	 7.50000000E-01	 4.00000000E+00
					 0.00000000E+00	 5.00000000E-01	 4.00000000E+00
					 0.00000000E+00	 2.50000000E-01	 4.00000000E+00
					 0.00000000E+00	 5.00000000E-01	 4.50000000E+00
					 0.00000000E+00	 7.50000000E-01	 5.00000000E+00
					 0.00000000E+00	 5.00000000E-01	 5.00000000E+00
					 0.00000000E+00	 2.50000000E-01	 5.00000000E+00
					 0.00000000E+00	 5.00000000E-01	 5.50000000E+00
					 0.00000000E+00	 7.50000000E-01	 6.00000000E+00
					 0.00000000E+00	 5.00000000E-01	 6.00000000E+00
					 0.00000000E+00	 2.50000000E-01	 6.00000000E+00
					 0.00000000E+00	 5.00000000E-01	 6.50000000E+00
					 0.00000000E+00	 7.50000000E-01	 7.00000000E+00
					 0.00000000E+00	 5.00000000E-01	 7.00000000E+00
					 0.00000000E+00	 2.50000000E-01	 7.00000000E+00
					 0.00000000E+00	 5.00000000E-01	 7.50000000E+00
					 5.00000000E-01	 5.00000000E-01	 5.00000000E-01
					 5.00000000E-01	 2.50000000E-01	 1.00000000E+00
					 2.50000000E-01	 5.00000000E-01	 1.00000000E+00
					 5.00000000E-01	 5.00000000E-01	 1.00000000E+00
					 7.50000000E-01	 5.00000000E-01	 1.00000000E+00
					 5.00000000E-01	 7.50000000E-01	 1.00000000E+00
					 5.00000000E-01	 5.00000000E-01	 1.50000000E+00
					 5.00000000E-01	 2.50000000E-01	 2.00000000E+00
					 2.50000000E-01	 5.00000000E-01	 2.00000000E+00
					 5.00000000E-01	 5.00000000E-01	 2.00000000E+00
					 7.50000000E-01	 5.00000000E-01	 2.00000000E+00
					 5.00000000E-01	 7.50000000E-01	 2.00000000E+00
					 5.00000000E-01	 5.00000000E-01	 2.50000000E+00
					 5.00000000E-01	 2.50000000E-01	 3.00000000E+00
					 2.50000000E-01	 5.00000000E-01	 3.00000000E+00
					 5.00000000E-01	 5.00000000E-01	 3.00000000E+00
					 7.50000000E-01	 5.00000000E-01	 3.00000000E+00
					 5.00000000E-01	 7.50000000E-01	 3.00000000E+00
					 5.00000000E-01	 5.00000000E-01	 3.50000000E+00
					 5.00000000E-01	 2.50000000E-01	 4.00000000E+00
					 2.50000000E-01	 5.00000000E-01	 4.00000000E+00
					 5.00000000E-01	 5.00000000E-01	 4.00000000E+00
					 7.50000000E-01	 5.00000000E-01	 4.00000000E+00
					 5.00000000E-01	 7.50000000E-01	 4.00000000E+00
					 5.00000000E-01	 5.00000000E-01	 4.50000000E+00
					 5.00000000E-01	 2.50000000E-01	 5.00000000E+00
					 2.50000000E-01	 5.00000000E-01	 5.00000000E+00
					 5.00000000E-01	 5.00000000E-01	 5.00000000E+00
					 7.50000000E-01	 5.00000000E-01	 5.00000000E+00
					 5.00000000E-01	 7.50000000E-01	 5.00000000E+00
					 5.00000000E-01	 5.00000000E-01	 5.50000000E+00
					 5.00000000E-01	 2.50000000E-01	 6.00000000E+00
					 2.50000000E-01	 5.00000000E-01	 6.00000000E+00
					 5.00000000E-01	 5.00000000E-01	 6.00000000E+00
					 7.50000000E-01	 5.00000000E-01	 6.00000000E+00
					 5.00000000E-01	 7.50000000E-01	 6.00000000E+00
					 5.00000000E-01	 5.00000000E-01	 6.50000000E+00
					 5.00000000E-01	 2.50000000E-01	 7.00000000E+00
					 2.50000000E-01	 5.00000000E-01	 7.00000000E+00
					 5.00000000E-01	 5.00000000E-01	 7.00000000E+00
					 7.50000000E-01	 5.00000000E-01	 7.00000000E+00
					 5.00000000E-01	 7.50000000E-01	 7.00000000E+00
					 5.00000000E-01	 5.00000000E-01	 7.50000000E+00

				</DataArray>
			</Points>
			<Cells>
				<DataArray type="Int32" Name="connectivity" format="ascii">
					0 9 94 18 60 104 221 191 8 92 93 19 103 219 220 192 61 102 218 189 9 1 12 94 104 33 133 221 10 11 95 92 105 132 222 219 102 32 131 218 18 94 15 3 191 221 162 78 93 96 16 17 220 223 163 190 189 218 160 77 94 12 2 15 221 133 63 162 95 13 14 96 222 134 161 223 218 131 62 160 60 104 221 191 58 108 227 195 103 219 220 192 107 225 226 196 59 106 224 193 104 33 133 221 108 35 137 227 105 132 222 219 109 136 228 225 106 34 135 224 191 221 162 78 195 227 166 80 220 223 163 190 226 229 167 194 193 224 164 79 221 133 63 162 227 137 65 166 222 134 161 223 228 138 165 229 224 135 64 164 58 108 227 195 56 112 233 199 107 225 226 196 111 231 232 200 57 110 230 197 108 35 137 227 112 37 141 233 109 136 228 225 113 140 234 231 110 36 139 230 195 227 166 80 199 233 170 82 226 229 167 194 232 235 171 198 197 230 168 81 227 137 65 166 233 141 67 170 228 138 165 229 234 142 169 235 230 139 66 168 56 112 233 199 54 116 239 203 111 231 232 200 115 237 238 204 55 114 236 201 112 37 141 233 116 39 145 239 113 140 234 231 117 144 240 237 114 38 143 236 199 233 170 82 203 239 174 84 232 235 171 198 238 241 175 202 201 236 172 83 233 141 67 170 239 145 69 174 234 142 169 235 240 146 173 241 236 143 68 172 54 116 239 203 52 120 245 207 115 237 238 204 119 243 244 208 53 118 242 205 116 39 145 239 120 41 149 245 117 144 240 237 121 148 246 243 118 40 147 242 203 239 174 84 207 245 178 86 238 241 175 202 244 247 179 206 205 242 176 85 239 145 69 174 245 149 71 178 240 146 173 241 246 150 177 247 242 147 70 176 52 120 245 207 50 124 251 211 119 243 244 208 123 249 250 212 51 122 248 209 120 41 149 245 124 43 153 251 121 148 246 243 125 152 252 249 122 42 151 248 207 245 178 86 211 251 182 88 244 247 179 206 250 253 183 210 209 248 180 87 245 149 71 178 251 153 73 182 246 150 177 247 252 154 181 253 248 151 72 180 50 124 251 211 48 128 257 215 123 249 250 212 127 255 256 216 49 126 254 213 124 43 153 251 128 45 157 257 125 152 252 249 129 156 258 255 126 44 155 254 211 251 182 88 215 257 186 90 250 253 183 210 256 259 187 214 213 254 184 89 251 153 73 182 257 157 75 186 252 154 181 253 258 158 185 259 254 155 74 184 48 128 257 215 4 21 99 30 127 255 256 216 20 97 98 31 47 130 260 217 128 45 157 257 21 5 24 99 129 156 258 255 22 23 100 97 130 46 159 260 215 257 186 90 30 99 27 7 256 259 187 214 98 101 28 29 217 260 188 91 257 157 75 186 99 24 6 27 258 158 185 259 100 25 26 101 260 159 76 188 
				</DataArray>
				<DataArray type="Int32" Name="offsets" format="ascii">
					20 40 60 80 100 120 140 160 180 200 220 240 260 280 300 320 340 360 380 400 420 440 460 480 500 520 540 560 580 600 620 640 
				</DataArray>
				<DataArray type="UInt8" Name="types" format="ascii">
					25 25 25 25 25 25 25 25 25 25 25 25 25 25 25 25 25 25 25 25 25 25 25 25 25 25 25 25 25 25 25 25 
				</DataArray>
			</Cells>
			<PointData>
				<DataArray type="Float32" Name="U" NumberOfComponents="3" ComponentName0="D1" ComponentName1="D2" ComponentName2="D3" format="ascii">
					 0.00000000E+00	 0.00000000E+00	 0.00000000E+00
					 0.00000000E+00	 0.00000000E+00	 0.00000000E+00
					 0.00000000E+00	 0.00000000E+00	 0.00000000E+00
					 0.00000000E+00	 0.00000000E+00	 0.00000000E+00
					-4.22102000E-05	 9.21350000E-02	 7.95260000E-03
					 4.22102000E-05	 9.21350000E-02	 7.95260000E-03
					-4.36125000E-05	 9.19860000E-02	-9.22386000E-03
					 4.36125000E-05	 9.19860000E-02	-9.22386000E-03
					 0.00000000E+00	 0.00000000E+00	 0.00000000E+00
					 0.00000000E+00	 0.00000000E+00	 0.00000000E+00
					 0.00000000E+00	 0.00000000E+00	 0.00000000E+00
					 0.00000000E+00	 0.00000000E+00	 0.00000000E+00
					 0.00000000E+00	 0.00000000E+00	 0.00000000E+00
					 0.00000000E+00	 0.00000000E+00	 0.00000000E+00
					 0.00000000E+00	 0.00000000E+00	 0.00000000E+00
					 0.00000000E+00	 0.00000000E+00	 0.00000000E+00
					 0.00000000E+00	 0.00000000E+00	 0.00000000E+00
					 0.00000000E+00	 0.00000000E+00	 0.00000000E+00
					 0.00000000E+00	 0.00000000E+00	 0.00000000E+00
					 0.00000000E+00	 0.00000000E+00	 0.00000000E+00
					-1.93140000E-05	 9.20442000E-02	 7.94467000E-03
					 0.00000000E+00	 9.20357000E-02	 7.92666000E-03
					 1.93140000E-05	 9.20442000E-02	 7.94467000E-03
					-3.63462000E-07	 9.20268000E-02	 3.63030000E-03
					-1.80470000E-07	 9.19429000E-02	-6.35096000E-04
					-5.85660000E-07	 9.19534000E-02	-4.90177000E-03
					-1.98975000E-05	 9.18959000E-02	-9.21543000E-03
					 0.00000000E+00	 9.18887000E-02	-9.19750000E-03
					 1.98975000E-05	 9.18959000E-02	-9.21543000E-03
					 5.85660000E-07	 9.19534000E-02	-4.90177000E-03
					 1.80470000E-07	 9.19429000E-02	-6.35096000E-04
					 3.63462000E-07	 9.20268000E-02	 3.63030000E-03
					-3.23839000E-04	 5.66177000E-04	 9.70976000E-04
					-2.36340000E-04	 2.01995000E-03	 1.94295000E-03
					-2.66816000E-04	 4.54420000E-03	 2.85140000E-03
					-2.35530000E-04	 7.87085000E-03	 3.68606000E-03
					-2.23901000E-04	 1.20617000E-02	 4.43950000E-03
					-2.00488000E-04	 1.69596000E-02	 5.12506000E-03
					-1.82600000E-04	 2.25524000E-02	 5.73425000E-03
					-1.61496000E-04	 2.87415000E-02	 6.27082000E-03
					-1.42042000E-04	 3.54749000E-02	 6.73062000E-03
					-1.22337000E-04	 4.26793000E-02	 7.11809000E-03
					-1.00181000E-04	 5.02865000E-02	 7.43147000E-03
					-8.03718000E-05	 5.82407000E-02	 7.67420000E-03
					-6.26616000E-05	 6.64372000E-02	 7.84014000E-03
					-5.15529000E-05	 7.48645000E-02	 7.93829000E-03
					-3.91580000E-06	 8.34132000E-02	 7.97018000E-03
					 3.91580000E-06	 8.34132000E-02	 7.97018000E-03
					 5.15529000E-05	 7.48645000E-02	 7.93829000E-03
					 6.26616000E-05	 6.64372000E-02	 7.84014000E-03
					 8.03718000E-05	 5.82407000E-02	 7.67420000E-03
					 1.00181000E-04	 5.02865000E-02	 7.43147000E-03
					 1.22337000E-04	 4.26793000E-02	 7.11809000E-03
					 1.42042000E-04	 3.54749000E-02	 6.73062000E-03
					 1.61496000E-04	 2.87415000E-02	 6.27082000E-03
					 1.82600000E-04	 2.25524000E-02	 5.73425000E-03
					 2.00488000E-04	 1.69596000E-02	 5.12506000E-03
					 2.23901000E-04	 1.20617000E-02	 4.43950000E-03
					 2.35530000E-04	 7.87085000E-03	 3.68606000E-03
					 2.66816000E-04	 4.54420000E-03	 2.85140000E-03
					 2.36340000E-04	 2.01995000E-03	 1.94295000E-03
					 3.23839000E-04	 5.66177000E-04	 9.70976000E-04
					 3.24391000E-04	 5.63494000E-04	-9.73252000E-04
					 2.36199000E-04	 2.01136000E-03	-1.95128000E-03
					 2.66913000E-04	 4.52723000E-03	-2.87362000E-03
					 2.35548000E-04	 7.84242000E-03	-3.73145000E-03
					 2.23900000E-04	 1.20210000E-02	-4.52046000E-03
					 2.00408000E-04	 1.69051000E-02	-5.25432000E-03
					 1.82532000E-04	 2.24840000E-02	-5.92611000E-03
					 1.61368000E-04	 2.86590000E-02	-6.53918000E-03
					 1.41903000E-04	 3.53791000E-02	-7.08932000E-03
					 1.22148000E-04	 4.25710000E-02	-7.58015000E-03
					 1.00018000E-04	 5.01670000E-02	-8.00858000E-03
					 8.00909000E-05	 5.81115000E-02	-8.37712000E-03
					 6.24694000E-05	 6.63005000E-02	-8.67687000E-03
					 5.10419000E-05	 7.47219000E-02	-8.91652000E-03
					 4.06717000E-06	 8.32677000E-02	-9.09278000E-03
					-3.24391000E-04	 5.63494000E-04	-9.73252000E-04
					-2.36199000E-04	 2.01136000E-03	-1.95128000E-03
					-2.66913000E-04	 4.52723000E-03	-2.87362000E-03
					-2.35548000E-04	 7.84242000E-03	-3.73145000E-03
					-2.23900000E-04	 1.20210000E-02	-4.52046000E-03
					-2.00408000E-04	 1.69051000E-02	-5.25432000E-03
					-1.82532000E-04	 2.24840000E-02	-5.92611000E-03
					-1.61368000E-04	 2.86590000E-02	-6.53918000E-03
					-1.41903000E-04	 3.53791000E-02	-7.08932000E-03
					-1.22148000E-04	 4.25710000E-02	-7.58015000E-03
					-1.00018000E-04	 5.01670000E-02	-8.00858000E-03
					-8.00909000E-05	 5.81115000E-02	-8.37712000E-03
					-6.24694000E-05	 6.63005000E-02	-8.67687000E-03
					-5.10419000E-05	 7.47219000E-02	-8.91652000E-03
					-4.06717000E-06	 8.32677000E-02	-9.09278000E-03
					 0.00000000E+00	 0.00000000E+00	 0.00000000E+00
					 0.00000000E+00	 0.00000000E+00	 0.00000000E+00
					 0.00000000E+00	 0.00000000E+00	 0.00000000E+00
					 0.00000000E+00	 0.00000000E+00	 0.00000000E+00
					 0.00000000E+00	 0.00000000E+00	 0.00000000E+00
					 0.00000000E+00	 9.19771000E-02	 3.63571000E-03
					 1.05648000E-07	 9.19377000E-02	-6.35280000E-04
					 0.00000000E+00	 9.19218000E-02	-6.35220000E-04
					-1.05648000E-07	 9.19377000E-02	-6.35280000E-04
					 0.00000000E+00	 9.19039000E-02	-4.90636000E-03
					 0.00000000E+00	 7.05132000E-04	 9.42780000E-04
					 1.16930000E-04	 2.13432000E-03	 1.95499000E-03
					 0.00000000E+00	 2.16000000E-03	 1.96899000E-03
					-1.16930000E-04	 2.13432000E-03	 1.95499000E-03
					 0.00000000E+00	 4.67117000E-03	 2.85138000E-03
					 1.17752000E-04	 7.96230000E-03	 3.69222000E-03
					 0.00000000E+00	 7.99796000E-03	 3.69304000E-03
					-1.17752000E-04	 7.96230000E-03	 3.69222000E-03
					 0.00000000E+00	 1.21710000E-02	 4.44218000E-03
					 1.00155000E-04	 1.70376000E-02	 5.12911000E-03
					 0.00000000E+00	 1.70635000E-02	 5.12898000E-03
					-1.00155000E-04	 1.70376000E-02	 5.12911000E-03
					 0.00000000E+00	 2.26430000E-02	 5.73750000E-03
					 8.07508000E-05	 2.88021000E-02	 6.27467000E-03
					 0.00000000E+00	 2.88228000E-02	 6.27401000E-03
					-8.07508000E-05	 2.88021000E-02	 6.27467000E-03
					 0.00000000E+00	 3.55463000E-02	 6.73401000E-03
					 6.11109000E-05	 4.27251000E-02	 7.12217000E-03
					 0.00000000E+00	 4.27388000E-02	 7.12150000E-03
					-6.11109000E-05	 4.27251000E-02	 7.12217000E-03
					 0.00000000E+00	 5.03379000E-02	 7.43500000E-03
					 4.03673000E-05	 5.82645000E-02	 7.67782000E-03
					 0.00000000E+00	 5.82736000E-02	 7.67713000E-03
					-4.03673000E-05	 5.82645000E-02	 7.67782000E-03
					 0.00000000E+00	 6.64742000E-02	 7.84418000E-03
					 2.49914000E-05	 7.48851000E-02	 7.94392000E-03
					 0.00000000E+00	 7.48743000E-02	 7.94409000E-03
					-2.49914000E-05	 7.48851000E-02	 7.94392000E-03
					 0.00000000E+00	 8.34237000E-02	 7.97187000E-03
					 4.74657000E-07	 3.65496000E-04	-9.57663000E-07
					-1.19001000E-04	 1.93756000E-03	 9.61065000E-04
					 4.13160000E-07	 1.94756000E-03	-3.72309000E-06
					 1.19442000E-04	 1.93319000E-03	-9.68771000E-04
					 3.97366000E-07	 4.38049000E-03	-1.01190000E-05
					-1.17331000E-04	 7.79214000E-03	 1.82041000E-03
					 2.89991000E-07	 7.76855000E-03	-2.18912000E-05
					 1.17677000E-04	 7.77806000E-03	-1.86445000E-03
					 2.15157000E-07	 1.19209000E-02	-3.93171000E-05
					-1.00203000E-04	 1.68754000E-02	 2.52056000E-03
					 1.69717000E-07	 1.68434000E-02	-6.36389000E-05
					 1.00368000E-04	 1.68483000E-02	-2.64830000E-03
					 1.18142000E-07	 2.24239000E-02	-9.47679000E-05
					-8.07600000E-05	 2.86618000E-02	 3.05810000E-03
					 6.96894000E-08	 2.86225000E-02	-1.33122000E-04
					 8.07876000E-05	 2.86208000E-02	-3.32485000E-03
					 1.98476000E-08	 3.53561000E-02	-1.78319000E-04
					-6.08467000E-05	 4.26059000E-02	 3.43369000E-03
					-8.69359000E-09	 4.25628000E-02	-2.30057000E-04
					 6.07580000E-05	 4.25520000E-02	-3.89431000E-03
					-4.42788000E-08	 5.01778000E-02	-2.87777000E-04
					-4.15595000E-05	 5.81707000E-02	 3.65018000E-03
					-5.13625000E-08	 5.81227000E-02	-3.50580000E-04
					 4.13661000E-05	 5.81065000E-02	-4.35194000E-03
					-1.15540000E-07	 6.63490000E-02	-4.18010000E-04
					-2.06423000E-05	 7.48085000E-02	 3.71792000E-03
					-1.13266000E-07	 7.47573000E-02	-4.88391000E-04
					 2.02933000E-05	 7.47375000E-02	-4.69505000E-03
					-3.08195000E-08	 8.33368000E-02	-5.61454000E-04
					 0.00000000E+00	 7.02477000E-04	-9.45474000E-04
					 1.17006000E-04	 2.12541000E-03	-1.96431000E-03
					 0.00000000E+00	 2.15121000E-03	-1.97866000E-03
					-1.17006000E-04	 2.12541000E-03	-1.96431000E-03
					 0.00000000E+00	 4.65389000E-03	-2.87513000E-03
					 1.17819000E-04	 7.93370000E-03	-3.73910000E-03
					 0.00000000E+00	 7.96948000E-03	-3.74046000E-03
					-1.17819000E-04	 7.93370000E-03	-3.73910000E-03
					 0.00000000E+00	 1.21301000E-02	-4.52517000E-03
					 1.00168000E-04	 1.69829000E-02	-5.26003000E-03
					 0.00000000E+00	 1.70089000E-02	-5.26045000E-03
					-1.00168000E-04	 1.69829000E-02	-5.26003000E-03
					 0.00000000E+00	 2.25743000E-02	-5.93152000E-03
					 8.07180000E-05	 2.87194000E-02	-6.54464000E-03
					 0.00000000E+00	 2.87401000E-02	-6.54451000E-03
					-8.07180000E-05	 2.87194000E-02	-6.54464000E-03
					 0.00000000E+00	 3.54503000E-02	-7.09472000E-03
					 6.10337000E-05	 4.26165000E-02	-7.58558000E-03
					 0.00000000E+00	 4.26303000E-02	-7.58531000E-03
					-6.10337000E-05	 4.26165000E-02	-7.58558000E-03
					 0.00000000E+00	 5.02182000E-02	-8.01375000E-03
					 4.02368000E-05	 5.81352000E-02	-8.38162000E-03
					 0.00000000E+00	 5.81443000E-02	-8.38115000E-03
					-4.02368000E-05	 5.81352000E-02	-8.38162000E-03
					 0.00000000E+00	 6.63374000E-02	-8.68213000E-03
					 2.47312000E-05	 7.47424000E-02	-8.92245000E-03
					 0.00000000E+00	 7.47318000E-02	-8.92246000E-03
					-2.47312000E-05	 7.47424000E-02	-8.92245000E-03
					 0.00000000E+00	 8.32779000E-02	-9.09527000E-03
					-4.74657000E-07	 3.65496000E-04	-9.57663000E-07
					-1.19442000E-04	 1.93319000E-03	-9.68771000E-04
					-4.13160000E-07	 1.94756000E-03	-3.72309000E-06
					 1.19001000E-04	 1.93756000E-03	 9.61065000E-04
					-3.97366000E-07	 4.38049000E-03	-1.01190000E-05
					-1.17677000E-04	 7.77806000E-03	-1.86445000E-03
					-2.89991000E-07	 7.76855000E-03	-2.18912000E-05
					 1.17331000E-04	 7.79214000E-03	 1.82041000E-03
					-2.15157000E-07	 1.19209000E-02	-3.93171000E-05
					-1.00368000E-04	 1.68483000E-02	-2.64830000E-03
					-1.69717000E-07	 1.68434000E-02	-6.36389000E-05
					 1.00203000E-04	 1.68754000E-02	 2.52056000E-03
					-1.18142000E-07	 2.24239000E-02	-9.47679000E-05
					-8.07876000E-05	 2.86208000E-02	-3.32485000E-03
					-6.96894000E-08	 2.86225000E-02	-1.33122000E-04
					 8.07600000E-05	 2.86618000E-02	 3.05810000E-03
					-1.98476000E-08	 3.53561000E-02	-1.78319000E-04
					-6.07580000E-05	 4.25520000E-02	-3.89431000E-03
					 8.69359000E-09	 4.25628000E-02	-2.30057000E-04
					 6.08467000E-05	 4.26059000E-02	 3.43369000E-03
					 4.42788000E-08	 5.01778000E-02	-2.87777000E-04
					-4.13661000E-05	 5.81065000E-02	-4.35194000E-03
					 5.13625000E-08	 5.81227000E-02	-3.50580000E-04
					 4.15595000E-05	 5.81707000E-02	 3.65018000E-03
					 1.15540000E-07	 6.63490000E-02	-4.18010000E-04
					-2.02933000E-05	 7.47375000E-02	-4.69505000E-03
					 1.13266000E-07	 7.47573000E-02	-4.88391000E-04
					 2.06423000E-05	 7.48085000E-02	 3.71792000E-03
					 3.08195000E-08	 8.33368000E-02	-5.61454000E-04
					 0.00000000E+00	 5.03682000E-04	-1.22492000E-06
					 0.00000000E+00	 2.07077000E-03	 9.71827000E-04
					-2.25648000E-07	 2.05743000E-03	-4.15207000E-06
					 0.00000000E+00	 2.07667000E-03	-4.28872000E-06
					 2.25648000E-07	 2.05743000E-03	-4.15207000E-06
					 0.00000000E+00	 2.06625000E-03	-9.80781000E-04
					 0.00000000E+00	 4.51193000E-03	-1.09122000E-05
					 0.00000000E+00	 7.91500000E-03	 1.82617000E-03
					-1.56057000E-07	 7.85506000E-03	-2.25987000E-05
					 0.00000000E+00	 7.88644000E-03	-2.28114000E-05
					 1.56057000E-07	 7.85506000E-03	-2.25987000E-05
					 0.00000000E+00	 7.90082000E-03	-1.87213000E-03
					 0.00000000E+00	 1.20333000E-02	-4.03625000E-05
					 0.00000000E+00	 1.69770000E-02	 2.52403000E-03
					-9.32539000E-08	 1.69192000E-02	-6.44376000E-05
					 0.00000000E+00	 1.69430000E-02	-6.46903000E-05
					 9.32539000E-08	 1.69192000E-02	-6.44376000E-05
					 0.00000000E+00	 1.69498000E-02	-2.65393000E-03
					 0.00000000E+00	 2.25154000E-02	-9.58598000E-05
					 0.00000000E+00	 2.87429000E-02	 3.06139000E-03
					-3.98077000E-08	 2.86830000E-02	-1.33925000E-04
					 0.00000000E+00	 2.87033000E-02	-1.34183000E-04
					 3.98077000E-08	 2.86830000E-02	-1.33925000E-04
					 0.00000000E+00	 2.87018000E-02	-3.33027000E-03