    1C
    1UUSER                                                              
    1UDATE              01.august.2019                                  
    1UTIME              09:27:15                                        
    1UHOST                                                              
    1UPGM               CalculiX                                        
    1UVERSION           Version 2.15                             
    1UCOMPILETIME       Fri 15 Mar 11:57:46 CET 2019                    
    1UDIR                                                               
    1UDBN                                                               
    1UMAT    1EL                                                        
    2C                            32                                     1
 -1         6-1.49012E-08-2.50000E-02 4.00000E-02
 -1         7-1.49012E-08-2.50000E-02-4.00000E-02
 -1         8-1.49012E-08 2.50000E-02-4.00000E-02
 -1         9-1.49012E-08 2.50000E-02 4.00000E-02
 -1        10-1.49012E-08-2.50000E-02 0.00000E+00
 -1        11-1.49012E-08 0.00000E+00-4.00000E-02
 -1        12-1.49012E-08 2.50000E-02 0.00000E+00
 -1        13-1.49012E-08 0.00000E+00 4.00000E-02
 -1        14 1.00000E+00-2.50000E-02 4.00000E-02
 -1        15 1.00000E+00-2.50000E-02-4.00000E-02
 -1        16 1.00000E+00 2.50000E-02-4.00000E-02
 -1        17 1.00000E+00 2.50000E-02 4.00000E-02
 -1        18 1.00000E+00-2.50000E-02 0.00000E+00
 -1        19 1.00000E+00 0.00000E+00-4.00000E-02
 -1        20 1.00000E+00 2.50000E-02 0.00000E+00
 -1        21 1.00000E+00 0.00000E+00 4.00000E-02
 -1        22 5.00000E-01-2.50000E-02 4.00000E-02
 -1        23 5.00000E-01-2.50000E-02-4.00000E-02
 -1        24 5.00000E-01 2.50000E-02-4.00000E-02
 -1        25 5.00000E-01 2.50000E-02 4.00000E-02
 -1        30 2.00000E+00-2.50000E-02 4.00000E-02
 -1        31 2.00000E+00-2.50000E-02-4.00000E-02
 -1        32 2.00000E+00 2.50000E-02-4.00000E-02
 -1        33 2.00000E+00 2.50000E-02 4.00000E-02
 -1        34 2.00000E+00-2.50000E-02 0.00000E+00
 -1        35 2.00000E+00 0.00000E+00-4.00000E-02
 -1        36 2.00000E+00 2.50000E-02 0.00000E+00
 -1        37 2.00000E+00 0.00000E+00 4.00000E-02
 -1        38 1.50000E+00-2.50000E-02 4.00000E-02
 -1        39 1.50000E+00-2.50000E-02-4.00000E-02
 -1        40 1.50000E+00 2.50000E-02-4.00000E-02
 -1        41 1.50000E+00 2.50000E-02 4.00000E-02
 -3
    3C                             2                                     1
 -1         1    4    0    1
 -2         6        14        15         7         9        17        16         8        22        18
 -2        23        10        13        21        19        11        25        20        24        12
 -1         2    4    0    1
 -2        14        30        31        15        17        33        32        16        38        34
 -2        39        18        21        37        35        19        41        36        40        20
 -3
 9999
