<?xml version="1.0"?>
<VTKFile type="UnstructuredGrid" version="0.1" byte_order="LittleEndian">
	<UnstructuredGrid>
		<Piece NumberOfPoints="261" NumberOfCells="32">
			<Points>
				<DataArray type="Float64" NumberOfComponents="3" format="ascii">
					 0.00000000E+00	 0.00000000E+00	 0.00000000E+00
					 1.00000000E+00	 0.00000000E+00	 0.00000000E+00
					 1.00000000E+00	 1.00000000E+00	 0.00000000E+00
					 0.00000000E+00	 1.00000000E+00	 0.00000000E+00
					 0.00000000E+00	 0.00000000E+00	 8.00000000E+00
					 1.00000000E+00	 0.00000000E+00	 8.00000000E+00
					 1.00000000E+00	 1.00000000E+00	 8.00000000E+00
					 0.00000000E+00	 1.00000000E+00	 8.00000000E+00
					 2.50000000E-01	 0.00000000E+00	 0.00000000E+00
					 5.00000000E-01	 0.00000000E+00	 0.00000000E+00
					 7.50000000E-01	 0.00000000E+00	 0.00000000E+00
					 1.00000000E+00	 2.50000000E-01	 0.00000000E+00
					 1.00000000E+00	 5.00000000E-01	 0.00000000E+00
					 1.00000000E+00	 7.50000000E-01	 0.00000000E+00
					 7.50000000E-01	 1.00000000E+00	 0.00000000E+00
					 5.00000000E-01	 1.00000000E+00	 0.00000000E+00
					 2.50000000E-01	 1.00000000E+00	 0.00000000E+00
					 0.00000000E+00	 7.50000000E-01	 0.00000000E+00
					 0.00000000E+00	 5.00000000E-01	 0.00000000E+00
					 0.00000000E+00	 2.50000000E-01	 0.00000000E+00
					 2.50000000E-01	 0.00000000E+00	 8.00000000E+00
					 5.00000000E-01	 0.00000000E+00	 8.00000000E+00
					 7.50000000E-01	 0.00000000E+00	 8.00000000E+00
					 1.00000000E+00	 2.50000000E-01	 8.00000000E+00
					 1.00000000E+00	 5.00000000E-01	 8.00000000E+00
					 1.00000000E+00	 7.50000000E-01	 8.00000000E+00
					 7.50000000E-01	 1.00000000E+00	 8.00000000E+00
					 5.00000000E-01	 1.00000000E+00	 8.00000000E+00
					 2.50000000E-01	 1.00000000E+00	 8.00000000E+00
					 0.00000000E+00	 7.50000000E-01	 8.00000000E+00
					 0.00000000E+00	 5.00000000E-01	 8.00000000E+00
					 0.00000000E+00	 2.50000000E-01	 8.00000000E+00
					 1.00000000E+00	 0.00000000E+00	 5.00000000E-01
					 1.00000000E+00	 0.00000000E+00	 1.00000000E+00
					 1.00000000E+00	 0.00000000E+00	 1.50000000E+00
					 1.00000000E+00	 0.00000000E+00	 2.00000000E+00
					 1.00000000E+00	 0.00000000E+00	 2.50000000E+00
					 1.00000000E+00	 0.00000000E+00	 3.00000000E+00
					 1.00000000E+00	 0.00000000E+00	 3.50000000E+00
					 1.00000000E+00	 0.00000000E+00	 4.00000000E+00
					 1.00000000E+00	 0.00000000E+00	 4.50000000E+00
					 1.00000000E+00	 0.00000000E+00	 5.00000000E+00
					 1.00000000E+00	 0.00000000E+00	 5.50000000E+00
					 1.00000000E+00	 0.00000000E+00	 6.00000000E+00
					 1.00000000E+00	 0.00000000E+00	 6.50000000E+00
					 1.00000000E+00	 0.00000000E+00	 7.00000000E+00
					 1.00000000E+00	 0.00000000E+00	 7.50000000E+00
					 0.00000000E+00	 0.00000000E+00	 7.50000000E+00
					 0.00000000E+00	 0.00000000E+00	 7.00000000E+00
					 0.00000000E+00	 0.00000000E+00	 6.50000000E+00
					 0.00000000E+00	 0.00000000E+00	 6.00000000E+00
					 0.00000000E+00	 0.00000000E+00	 5.50000000E+00
					 0.00000000E+00	 0.00000000E+00	 5.00000000E+00
					 0.00000000E+00	 0.00000000E+00	 4.50000000E+00
					 0.00000000E+00	 0.00000000E+00	 4.00000000E+00
					 0.00000000E+00	 0.00000000E+00	 3.50000000E+00
					 0.00000000E+00	 0.00000000E+00	 3.00000000E+00
					 0.00000000E+00	 0.00000000E+00	 2.50000000E+00
					 0.00000000E+00	 0.00000000E+00	 2.00000000E+00
					 0.00000000E+00	 0.00000000E+00	 1.50000000E+00
					 0.00000000E+00	 0.00000000E+00	 1.00000000E+00
					 0.00000000E+00	 0.00000000E+00	 5.00000000E-01
					 1.00000000E+00	 1.00000000E+00	 5.00000000E-01
					 1.00000000E+00	 1.00000000E+00	 1.00000000E+00
					 1.00000000E+00	 1.00000000E+00	 1.50000000E+00
					 1.00000000E+00	 1.00000000E+00	 2.00000000E+00
					 1.00000000E+00	 1.00000000E+00	 2.50000000E+00
					 1.00000000E+00	 1.00000000E+00	 3.00000000E+00
					 1.00000000E+00	 1.00000000E+00	 3.50000000E+00
					 1.00000000E+00	 1.00000000E+00	 4.00000000E+00
					 1.00000000E+00	 1.00000000E+00	 4.50000000E+00
					 1.00000000E+00	 1.00000000E+00	 5.00000000E+00
					 1.00000000E+00	 1.00000000E+00	 5.50000000E+00
					 1.00000000E+00	 1.00000000E+00	 6.00000000E+00
					 1.00000000E+00	 1.00000000E+00	 6.50000000E+00
					 1.00000000E+00	 1.00000000E+00	 7.00000000E+00
					 1.00000000E+00	 1.00000000E+00	 7.50000000E+00
					 0.00000000E+00	 1.00000000E+00	 5.00000000E-01
					 0.00000000E+00	 1.00000000E+00	 1.00000000E+00
					 0.00000000E+00	 1.00000000E+00	 1.50000000E+00
					 0.00000000E+00	 1.00000000E+00	 2.00000000E+00
					 0.00000000E+00	 1.00000000E+00	 2.50000000E+00
					 0.00000000E+00	 1.00000000E+00	 3.00000000E+00
					 0.00000000E+00	 1.00000000E+00	 3.50000000E+00
					 0.00000000E+00	 1.00000000E+00	 4.00000000E+00
					 0.00000000E+00	 1.00000000E+00	 4.50000000E+00
					 0.00000000E+00	 1.00000000E+00	 5.00000000E+00
					 0.00000000E+00	 1.00000000E+00	 5.50000000E+00
					 0.00000000E+00	 1.00000000E+00	 6.00000000E+00
					 0.00000000E+00	 1.00000000E+00	 6.50000000E+00
					 0.00000000E+00	 1.00000000E+00	 7.00000000E+00
					 0.00000000E+00	 1.00000000E+00	 7.50000000E+00
					 5.00000000E-01	 2.50000000E-01	 0.00000000E+00
					 2.50000000E-01	 5.00000000E-01	 0.00000000E+00
					 5.00000000E-01	 5.00000000E-01	 0.00000000E+00
					 7.50000000E-01	 5.00000000E-01	 0.00000000E+00
					 5.00000000E-01	 7.50000000E-01	 0.00000000E+00
					 5.00000000E-01	 2.50000000E-01	 8.00000000E+00
					 2.50000000E-01	 5.00000000E-01	 8.00000000E+00
					 5.00000000E-01	 5.00000000E-01	 8.00000000E+00
					 7.50000000E-01	 5.00000000E-01	 8.00000000E+00
					 5.00000000E-01	 7.50000000E-01	 8.00000000E+00
					 5.00000000E-01	 0.00000000E+00	 5.00000000E-01
					 2.50000000E-01	 0.00000000E+00	 1.00000000E+00
					 5.00000000E-01	 0.00000000E+00	 1.00000000E+00
					 7.50000000E-01	 0.00000000E+00	 1.00000000E+00
					 5.00000000E-01	 0.00000000E+00	 1.50000000E+00
					 2.50000000E-01	 0.00000000E+00	 2.00000000E+00
					 5.00000000E-01	 0.00000000E+00	 2.00000000E+00
					 7.50000000E-01	 0.00000000E+00	 2.00000000E+00
					 5.00000000E-01	 0.00000000E+00	 2.50000000E+00
					 2.50000000E-01	 0.00000000E+00	 3.00000000E+00
					 5.00000000E-01	 0.00000000E+00	 3.00000000E+00
					 7.50000000E-01	 0.00000000E+00	 3.00000000E+00
					 5.00000000E-01	 0.00000000E+00	 3.50000000E+00
					 2.50000000E-01	 0.00000000E+00	 4.00000000E+00
					 5.00000000E-01	 0.00000000E+00	 4.00000000E+00
					 7.50000000E-01	 0.00000000E+00	 4.00000000E+00
					 5.00000000E-01	 0.00000000E+00	 4.50000000E+00
					 2.50000000E-01	 0.00000000E+00	 5.00000000E+00
					 5.00000000E-01	 0.00000000E+00	 5.00000000E+00
					 7.50000000E-01	 0.00000000E+00	 5.00000000E+00
					 5.00000000E-01	 0.00000000E+00	 5.50000000E+00
					 2.50000000E-01	 0.00000000E+00	 6.00000000E+00
					 5.00000000E-01	 0.00000000E+00	 6.00000000E+00
					 7.50000000E-01	 0.00000000E+00	 6.00000000E+00
					 5.00000000E-01	 0.00000000E+00	 6.50000000E+00
					 2.50000000E-01	 0.00000000E+00	 7.00000000E+00
					 5.00000000E-01	 0.00000000E+00	 7.00000000E+00
					 7.50000000E-01	 0.00000000E+00	 7.00000000E+00
					 5.00000000E-01	 0.00000000E+00	 7.50000000E+00
					 1.00000000E+00	 5.00000000E-01	 5.00000000E-01
					 1.00000000E+00	 2.50000000E-01	 1.00000000E+00
					 1.00000000E+00	 5.00000000E-01	 1.00000000E+00
					 1.00000000E+00	 7.50000000E-01	 1.00000000E+00
					 1.00000000E+00	 5.00000000E-01	 1.50000000E+00
					 1.00000000E+00	 2.50000000E-01	 2.00000000E+00
					 1.00000000E+00	 5.00000000E-01	 2.00000000E+00
					 1.00000000E+00	 7.50000000E-01	 2.00000000E+00
					 1.00000000E+00	 5.00000000E-01	 2.50000000E+00
					 1.00000000E+00	 2.50000000E-01	 3.00000000E+00
					 1.00000000E+00	 5.00000000E-01	 3.00000000E+00
					 1.00000000E+00	 7.50000000E-01	 3.00000000E+00
					 1.00000000E+00	 5.00000000E-01	 3.50000000E+00
					 1.00000000E+00	 2.50000000E-01	 4.00000000E+00
					 1.00000000E+00	 5.00000000E-01	 4.00000000E+00
					 1.00000000E+00	 7.50000000E-01	 4.00000000E+00
					 1.00000000E+00	 5.00000000E-01	 4.50000000E+00
					 1.00000000E+00	 2.50000000E-01	 5.00000000E+00
					 1.00000000E+00	 5.00000000E-01	 5.00000000E+00
					 1.00000000E+00	 7.50000000E-01	 5.00000000E+00
					 1.00000000E+00	 5.00000000E-01	 5.50000000E+00
					 1.00000000E+00	 2.50000000E-01	 6.00000000E+00
					 1.00000000E+00	 5.00000000E-01	 6.00000000E+00
					 1.00000000E+00	 7.50000000E-01	 6.00000000E+00
					 1.00000000E+00	 5.00000000E-01	 6.50000000E+00
					 1.00000000E+00	 2.50000000E-01	 7.00000000E+00
					 1.00000000E+00	 5.00000000E-01	 7.00000000E+00
					 1.00000000E+00	 7.50000000E-01	 7.00000000E+00
					 1.00000000E+00	 5.00000000E-01	 7.50000000E+00
					 5.00000000E-01	 1.00000000E+00	 5.00000000E-01
					 7.50000000E-01	 1.00000000E+00	 1.00000000E+00
					 5.00000000E-01	 1.00000000E+00	 1.00000000E+00
					 2.50000000E-01	 1.00000000E+00	 1.00000000E+00
					 5.00000000E-01	 1.00000000E+00	 1.50000000E+00
					 7.50000000E-01	 1.00000000E+00	 2.00000000E+00
					 5.00000000E-01	 1.00000000E+00	 2.00000000E+00
					 2.50000000E-01	 1.00000000E+00	 2.00000000E+00
					 5.00000000E-01	 1.00000000E+00	 2.50000000E+00
					 7.50000000E-01	 1.00000000E+00	 3.00000000E+00
					 5.00000000E-01	 1.00000000E+00	 3.00000000E+00
					 2.50000000E-01	 1.00000000E+00	 3.00000000E+00
					 5.00000000E-01	 1.00000000E+00	 3.50000000E+00
					 7.50000000E-01	 1.00000000E+00	 4.00000000E+00
					 5.00000000E-01	 1.00000000E+00	 4.00000000E+00
					 2.50000000E-01	 1.00000000E+00	 4.00000000E+00
					 5.00000000E-01	 1.00000000E+00	 4.50000000E+00
					 7.50000000E-01	 1.00000000E+00	 5.00000000E+00
					 5.00000000E-01	 1.00000000E+00	 5.00000000E+00
					 2.50000000E-01	 1.00000000E+00	 5.00000000E+00
					 5.00000000E-01	 1.00000000E+00	 5.50000000E+00
					 7.50000000E-01	 1.00000000E+00	 6.00000000E+00
					 5.00000000E-01	 1.00000000E+00	 6.00000000E+00
					 2.50000000E-01	 1.00000000E+00	 6.00000000E+00
					 5.00000000E-01	 1.00000000E+00	 6.50000000E+00
					 7.50000000E-01	 1.00000000E+00	 7.00000000E+00
					 5.00000000E-01	 1.00000000E+00	 7.00000000E+00
					 2.50000000E-01	 1.00000000E+00	 7.00000000E+00
					 5.00000000E-01	 1.00000000E+00	 7.50000000E+00
					 0.00000000E+00	 5.00000000E-01	 5.00000000E-01
					 0.00000000E+00	 7.50000000E-01	 1.00000000E+00
					 0.00000000E+00	 5.00000000E-01	 1.00000000E+00
					 0.00000000E+00	 2.50000000E-01	 1.00000000E+00
					 0.00000000E+00	 5.00000000E-01	 1.50000000E+00
					 0.00000000E+00	 7.50000000E-01	 2.00000000E+00
					 0.00000000E+00	 5.00000000E-01	 2.00000000E+00
					 0.00000000E+00	 2.50000000E-01	 2.00000000E+00
					 0.00000000E+00	 5.00000000E-01	 2.50000000E+00
					 0.00000000E+00	 7.50000000E-01	 3.00000000E+00
					 0.00000000E+00	 5.00000000E-01	 3.00000000E+00
					 0.00000000E+00	 2.50000000E-01	 3.00000000E+00
					 0.00000000E+00	 5.00000000E-01	 3.50000000E+00
					 0.00000000E+00	 7.50000000E-01	 4.00000000E+00
					 0.00000000E+00	 5.00000000E-01	 4.00000000E+00
					 0.00000000E+00	 2.50000000E-01	 4.00000000E+00
					 0.00000000E+00	 5.00000000E-01	 4.50000000E+00
					 0.00000000E+00	 7.50000000E-01	 5.00000000E+00
					 0.00000000E+00	 5.00000000E-01	 5.00000000E+00
					 0.00000000E+00	 2.50000000E-01	 5.00000000E+00
					 0.00000000E+00	 5.00000000E-01	 5.50000000E+00
					 0.00000000E+00	 7.50000000E-01	 6.00000000E+00
					 0.00000000E+00	 5.00000000E-01	 6.00000000E+00
					 0.00000000E+00	 2.50000000E-01	 6.00000000E+00
					 0.00000000E+00	 5.00000000E-01	 6.50000000E+00
					 0.00000000E+00	 7.50000000E-01	 7.00000000E+00
					 0.00000000E+00	 5.00000000E-01	 7.00000000E+00
					 0.00000000E+00	 2.50000000E-01	 7.00000000E+00
					 0.00000000E+00	 5.00000000E-01	 7.50000000E+00
					 5.00000000E-01	 5.00000000E-01	 5.00000000E-01
					 5.00000000E-01	 2.50000000E-01	 1.00000000E+00
					 2.50000000E-01	 5.00000000E-01	 1.00000000E+00
					 5.00000000E-01	 5.00000000E-01	 1.00000000E+00
					 7.50000000E-01	 5.00000000E-01	 1.00000000E+00
					 5.00000000E-01	 7.50000000E-01	 1.00000000E+00
					 5.00000000E-01	 5.00000000E-01	 1.50000000E+00
					 5.00000000E-01	 2.50000000E-01	 2.00000000E+00
					 2.50000000E-01	 5.00000000E-01	 2.00000000E+00
					 5.00000000E-01	 5.00000000E-01	 2.00000000E+00
					 7.50000000E-01	 5.00000000E-01	 2.00000000E+00
					 5.00000000E-01	 7.50000000E-01	 2.00000000E+00
					 5.00000000E-01	 5.00000000E-01	 2.50000000E+00
					 5.00000000E-01	 2.50000000E-01	 3.00000000E+00
					 2.50000000E-01	 5.00000000E-01	 3.00000000E+00
					 5.00000000E-01	 5.00000000E-01	 3.00000000E+00
					 7.50000000E-01	 5.00000000E-01	 3.00000000E+00
					 5.00000000E-01	 7.50000000E-01	 3.00000000E+00
					 5.00000000E-01	 5.00000000E-01	 3.50000000E+00
					 5.00000000E-01	 2.50000000E-01	 4.00000000E+00
					 2.50000000E-01	 5.00000000E-01	 4.00000000E+00
					 5.00000000E-01	 5.00000000E-01	 4.00000000E+00
					 7.50000000E-01	 5.00000000E-01	 4.00000000E+00
					 5.00000000E-01	 7.50000000E-01	 4.00000000E+00
					 5.00000000E-01	 5.00000000E-01	 4.50000000E+00
					 5.00000000E-01	 2.50000000E-01	 5.00000000E+00
					 2.50000000E-01	 5.00000000E-01	 5.00000000E+00
					 5.00000000E-01	 5.00000000E-01	 5.00000000E+00
					 7.50000000E-01	 5.00000000E-01	 5.00000000E+00
					 5.00000000E-01	 7.50000000E-01	 5.00000000E+00
					 5.00000000E-01	 5.00000000E-01	 5.50000000E+00
					 5.00000000E-01	 2.50000000E-01	 6.00000000E+00
					 2.50000000E-01	 5.00000000E-01	 6.00000000E+00
					 5.00000000E-01	 5.00000000E-01	 6.00000000E+00
					 7.50000000E-01	 5.00000000E-01	 6.00000000E+00
					 5.00000000E-01	 7.50000000E-01	 6.00000000E+00
					 5.00000000E-01	 5.00000000E-01	 6.50000000E+00
					 5.00000000E-01	 2.50000000E-01	 7.00000000E+00
					 2.50000000E-01	 5.00000000E-01	 7.00000000E+00
					 5.00000000E-01	 5.00000000E-01	 7.00000000E+00
					 7.50000000E-01	 5.00000000E-01	 7.00000000E+00
					 5.00000000E-01	 7.50000000E-01	 7.00000000E+00
					 5.00000000E-01	 5.00000000E-01	 7.50000000E+00

				</DataArray>
			</Points>
			<Cells>
				<DataArray type="Int32" Name="connectivity" format="ascii">
					0 9 94 18 60 104 221 191 8 92 93 19 103 219 220 192 61 102 218 189 9 1 12 94 104 33 133 221 10 11 95 92 105 132 222 219 102 32 131 218 18 94 15 3 191 221 162 78 93 96 16 17 220 223 163 190 189 218 160 77 94 12 2 15 221 133 63 162 95 13 14 96 222 134 161 223 218 131 62 160 60 104 221 191 58 108 227 195 103 219 220 192 107 225 226 196 59 106 224 193 104 33 133 221 108 35 137 227 105 132 222 219 109 136 228 225 106 34 135 224 191 221 162 78 195 227 166 80 220 223 163 190 226 229 167 194 193 224 164 79 221 133 63 162 227 137 65 166 222 134 161 223 228 138 165 229 224 135 64 164 58 108 227 195 56 112 233 199 107 225 226 196 111 231 232 200 57 110 230 197 108 35 137 227 112 37 141 233 109 136 228 225 113 140 234 231 110 36 139 230 195 227 166 80 199 233 170 82 226 229 167 194 232 235 171 198 197 230 168 81 227 137 65 166 233 141 67 170 228 138 165 229 234 142 169 235 230 139 66 168 56 112 233 199 54 116 239 203 111 231 232 200 115 237 238 204 55 114 236 201 112 37 141 233 116 39 145 239 113 140 234 231 117 144 240 237 114 38 143 236 199 233 170 82 203 239 174 84 232 235 171 198 238 241 175 202 201 236 172 83 233 141 67 170 239 145 69 174 234 142 169 235 240 146 173 241 236 143 68 172 54 116 239 203 52 120 245 207 115 237 238 204 119 243 244 208 53 118 242 205 116 39 145 239 120 41 149 245 117 144 240 237 121 148 246 243 118 40 147 242 203 239 174 84 207 245 178 86 238 241 175 202 244 247 179 206 205 242 176 85 239 145 69 174 245 149 71 178 240 146 173 241 246 150 177 247 242 147 70 176 52 120 245 207 50 124 251 211 119 243 244 208 123 249 250 212 51 122 248 209 120 41 149 245 124 43 153 251 121 148 246 243 125 152 252 249 122 42 151 248 207 245 178 86 211 251 182 88 244 247 179 206 250 253 183 210 209 248 180 87 245 149 71 178 251 153 73 182 246 150 177 247 252 154 181 253 248 151 72 180 50 124 251 211 48 128 257 215 123 249 250 212 127 255 256 216 49 126 254 213 124 43 153 251 128 45 157 257 125 152 252 249 129 156 258 255 126 44 155 254 211 251 182 88 215 257 186 90 250 253 183 210 256 259 187 214 213 254 184 89 251 153 73 182 257 157 75 186 252 154 181 253 258 158 185 259 254 155 74 184 48 128 257 215 4 21 99 30 127 255 256 216 20 97 98 31 47 130 260 217 128 45 157 257 21 5 24 99 129 156 258 255 22 23 100 97 130 46 159 260 215 257 186 90 30 99 27 7 256 259 187 214 98 101 28 29 217 260 188 91 257 157 75 186 99 24 6 27 258 158 185 259 100 25 26 101 260 159 76 188 
				</DataArray>
				<DataArray type="Int32" Name="offsets" format="ascii">
					20 40 60 80 100 120 140 160 180 200 220 240 260 280 300 320 340 360 380 400 420 440 460 480 500 520 540 560 580 600 620 640 
				</DataArray>
				<DataArray type="UInt8" Name="types" format="ascii">
					25 25 25 25 25 25 25 25 25 25 25 25 25 25 25 25 25 25 25 25 25 25 25 25 25 25 25 25 25 25 25 25 
				</DataArray>
			</Cells>
			<PointData>
				<DataArray type="Float32" Name="U" NumberOfComponents="3" ComponentName0="D1" ComponentName1="D2" ComponentName2="D3" format="ascii">
					 0.00000000E+00	 0.00000000E+00	 0.00000000E+00
					 0.00000000E+00	 0.00000000E+00	 0.00000000E+00
					 0.00000000E+00	 0.00000000E+00	 0.00000000E+00
					 0.00000000E+00	 0.00000000E+00	 0.00000000E+00
					 3.72107000E-05	 1.05386000E-01	 9.23721000E-03
					-3.71173000E-05	 1.05386000E-01	 9.23673000E-03
					 3.71165000E-05	 1.05183000E-01	-1.09321000E-02
					-3.72875000E-05	 1.05182000E-01	-1.09316000E-02
					 0.00000000E+00	 0.00000000E+00	 0.00000000E+00
					 0.00000000E+00	 0.00000000E+00	 0.00000000E+00
					 0.00000000E+00	 0.00000000E+00	 0.00000000E+00
					 0.00000000E+00	 0.00000000E+00	 0.00000000E+00
					 0.00000000E+00	 0.00000000E+00	 0.00000000E+00
					 0.00000000E+00	 0.00000000E+00	 0.00000000E+00
					 0.00000000E+00	 0.00000000E+00	 0.00000000E+00
					 0.00000000E+00	 0.00000000E+00	 0.00000000E+00
					 0.00000000E+00	 0.00000000E+00	 0.00000000E+00
					 0.00000000E+00	 0.00000000E+00	 0.00000000E+00
					 0.00000000E+00	 0.00000000E+00	 0.00000000E+00
					 0.00000000E+00	 0.00000000E+00	 0.00000000E+00
					 2.97765000E-05	 1.05417000E-01	 9.24137000E-03
					 9.63345000E-08	 1.05362000E-01	 9.24350000E-03
					-2.96413000E-05	 1.05417000E-01	 9.24098000E-03
					-1.48852000E-06	 1.05315000E-01	 4.17967000E-03
					 5.35460000E-07	 1.05228000E-01	-8.46350000E-04
					 1.79707000E-06	 1.05215000E-01	-5.87237000E-03
					 2.97557000E-05	 1.05214000E-01	-1.09365000E-02
					-4.87302000E-08	 1.05159000E-01	-1.09377000E-02
					-2.99062000E-05	 1.05214000E-01	-1.09361000E-02
					-2.17145000E-06	 1.05215000E-01	-5.87284000E-03
					-6.75502000E-07	 1.05229000E-01	-8.46618000E-04
					 1.47936000E-06	 1.05316000E-01	 4.17987000E-03
					-3.25623000E-04	 5.22842000E-04	 9.62663000E-04
					-2.53313000E-04	 1.94122000E-03	 1.96389000E-03
					-2.95450000E-04	 4.47756000E-03	 2.94673000E-03
					-2.77146000E-04	 7.91617000E-03	 3.89751000E-03
					-2.76163000E-04	 1.23601000E-02	 4.80644000E-03
					-2.60010000E-04	 1.76989000E-02	 5.67535000E-03
					-2.43217000E-04	 2.39445000E-02	 6.47874000E-03
					-2.16549000E-04	 3.10079000E-02	 7.19889000E-03
					-1.87582000E-04	 3.88037000E-02	 7.80971000E-03
					-1.57867000E-04	 4.72304000E-02	 8.31634000E-03
					-1.29974000E-04	 5.61626000E-02	 8.71359000E-03
					-9.96147000E-05	 6.55505000E-02	 9.01562000E-03
					-7.36163000E-05	 7.52455000E-02	 9.20182000E-03
					-3.81395000E-05	 8.52245000E-02	 9.30904000E-03
					-4.23547000E-05	 9.52498000E-02	 9.31077000E-03
					 4.26417000E-05	 9.52496000E-02	 9.31100000E-03
					 3.83377000E-05	 8.52248000E-02	 9.30932000E-03
					 7.38375000E-05	 7.52454000E-02	 9.20213000E-03
					 9.96935000E-05	 6.55503000E-02	 9.01562000E-03
					 1.29765000E-04	 5.61629000E-02	 8.71359000E-03
					 1.57372000E-04	 4.72308000E-02	 8.31629000E-03
					 1.87060000E-04	 3.88043000E-02	 7.80971000E-03
					 2.16142000E-04	 3.10082000E-02	 7.19888000E-03
					 2.42999000E-04	 2.39447000E-02	 6.47874000E-03
					 2.59875000E-04	 1.76990000E-02	 5.67534000E-03
					 2.76064000E-04	 1.23603000E-02	 4.80643000E-03
					 2.77022000E-04	 7.91629000E-03	 3.89751000E-03
					 2.95312000E-04	 4.47771000E-03	 2.94673000E-03
					 2.53189000E-04	 1.94135000E-03	 1.96389000E-03
					 3.25554000E-04	 5.22919000E-04	 9.62667000E-04
					 3.25544000E-04	 5.19594000E-04	-9.63029000E-04
					 2.52782000E-04	 1.93196000E-03	-1.96848000E-03
					 2.95096000E-04	 4.45883000E-03	-2.96382000E-03
					 2.76765000E-04	 7.88389000E-03	-3.93801000E-03
					 2.75763000E-04	 1.23119000E-02	-4.88572000E-03
					 2.59540000E-04	 1.76316000E-02	-5.81089000E-03
					 2.42748000E-04	 2.38565000E-02	-6.69121000E-03
					 2.16018000E-04	 3.08986000E-02	-7.50985000E-03
					 1.87043000E-04	 3.86739000E-02	-8.24054000E-03
					 1.57323000E-04	 4.70816000E-02	-8.88748000E-03
					 1.29528000E-04	 5.59971000E-02	-9.44262000E-03
					 9.90339000E-05	 6.53708000E-02	-9.91937000E-03
					 7.32094000E-05	 7.50551000E-02	-1.02919000E-02
					 3.70864000E-05	 8.50271000E-02	-1.05970000E-02
					 4.24421000E-05	 9.50460000E-02	-1.08004000E-02
					-3.25462000E-04	 5.19669000E-04	-9.63025000E-04
					-2.52633000E-04	 1.93209000E-03	-1.96847000E-03
					-2.94922000E-04	 4.45900000E-03	-2.96382000E-03
					-2.76617000E-04	 7.88402000E-03	-3.93802000E-03
					-2.75654000E-04	 1.23120000E-02	-4.88573000E-03
					-2.59412000E-04	 1.76317000E-02	-5.81089000E-03
					-2.42525000E-04	 2.38568000E-02	-6.69122000E-03
					-2.15597000E-04	 3.08989000E-02	-7.50985000E-03
					-1.86480000E-04	 3.86745000E-02	-8.24055000E-03
					-1.56797000E-04	 4.70820000E-02	-8.88746000E-03
					-1.29301000E-04	 5.59974000E-02	-9.44263000E-03
					-9.91734000E-05	 6.53704000E-02	-9.91939000E-03
					-7.35310000E-05	 7.50551000E-02	-1.02921000E-02
					-3.73663000E-05	 8.50263000E-02	-1.05968000E-02
					-4.22715000E-05	 9.50469000E-02	-1.08003000E-02
					 0.00000000E+00	 0.00000000E+00	 0.00000000E+00
					 0.00000000E+00	 0.00000000E+00	 0.00000000E+00
					 0.00000000E+00	 0.00000000E+00	 0.00000000E+00
					 0.00000000E+00	 0.00000000E+00	 0.00000000E+00
					 0.00000000E+00	 0.00000000E+00	 0.00000000E+00
					 2.36403000E-08	 1.05474000E-01	 4.21760000E-03
					-1.26602000E-07	 1.05355000E-01	-8.47056000E-04
					-5.16548000E-08	 1.05607000E-01	-8.47987000E-04
					 0.00000000E+00	 1.05354000E-01	-8.46881000E-04
					-2.36610000E-08	 1.05371000E-01	-5.91434000E-03
					-3.65527000E-08	 6.63112000E-04	 9.32596000E-04
					 1.25313000E-04	 2.06090000E-03	 1.97242000E-03
					-6.02275000E-08	 2.08867000E-03	 1.98679000E-03
					-1.25435000E-04	 2.06083000E-03	 1.97241000E-03
					-6.77298000E-08	 4.61923000E-03	 2.94415000E-03
					 1.38446000E-04	 8.02273000E-03	 3.90059000E-03
					-5.78316000E-08	 8.06268000E-03	 3.90142000E-03
					-1.38566000E-04	 8.02267000E-03	 3.90060000E-03
					-5.43056000E-08	 1.24963000E-02	 4.80697000E-03
					 1.29793000E-04	 1.77980000E-02	 5.67768000E-03
					-6.25732000E-08	 1.78296000E-02	 5.67740000E-03
					-1.29923000E-04	 1.77979000E-02	 5.67768000E-03
					-1.16852000E-07	 2.40673000E-02	 6.48222000E-03
					 1.08000000E-04	 3.10867000E-02	 7.20368000E-03
					-1.85936000E-07	 3.11106000E-02	 7.20173000E-03
					-1.08390000E-04	 3.10865000E-02	 7.20365000E-03
					-2.63535000E-07	 3.89019000E-02	 7.81579000E-03
					 7.83703000E-05	 4.72813000E-02	 8.32020000E-03
					-2.31614000E-07	 4.72934000E-02	 8.31775000E-03
					-7.88482000E-05	 4.72811000E-02	 8.32026000E-03
					-1.10948000E-07	 5.62397000E-02	 8.71964000E-03
					 5.04518000E-05	 6.55735000E-02	 9.01613000E-03
					 1.04819000E-07	 6.55667000E-02	 9.00963000E-03
					-5.03130000E-05	 6.55737000E-02	 9.01615000E-03
					 2.28146000E-08	 7.53033000E-02	 9.21942000E-03
					 1.77125000E-05	 8.51959000E-02	 9.30686000E-03
					 9.10700000E-08	 8.51742000E-02	 9.29965000E-03
					-1.75209000E-05	 8.51956000E-02	 9.30666000E-03
					 4.85719000E-08	 9.53327000E-02	 9.31894000E-03
					 1.82181000E-07	 3.19677000E-04	-8.70640000E-08
					-1.27630000E-04	 1.85215000E-03	 9.80681000E-04
					 2.45284000E-07	 1.85846000E-03	-1.83662000E-06
					 1.27717000E-04	 1.84738000E-03	-9.84650000E-04
					 2.41569000E-07	 4.30002000E-03	-7.52114000E-06
					-1.38130000E-04	 7.82038000E-03	 1.93371000E-03
					 1.89289000E-07	 7.79027000E-03	-1.92758000E-05
					 1.38194000E-04	 7.80426000E-03	-1.97260000E-03
					 1.37765000E-07	 1.21911000E-02	-3.81811000E-05
					-1.29968000E-04	 1.75882000E-02	 2.79692000E-03
					 9.95426000E-08	 1.75452000E-02	-6.63097000E-05
					 1.29890000E-04	 1.75547000E-02	-2.93024000E-03
					 2.92610000E-08	 2.37792000E-02	-1.04540000E-04
					-1.08220000E-04	 3.08994000E-02	 3.50756000E-03
					-4.12362000E-08	 3.08453000E-02	-1.53762000E-04
					 1.07953000E-04	 3.08451000E-02	-3.81593000E-03
					-1.04589000E-07	 3.86471000E-02	-2.13830000E-04
					-7.90897000E-05	 4.71279000E-02	 4.00147000E-03
					-1.18442000E-07	 4.70656000E-02	-2.83902000E-04
					 7.87224000E-05	 4.70540000E-02	-4.57026000E-03
					-1.74614000E-07	 5.60248000E-02	-3.63408000E-04
					-4.93467000E-05	 6.54561000E-02	 4.26704000E-03
					-3.49876000E-08	 6.53863000E-02	-4.50405000E-04
					 4.90205000E-05	 6.53669000E-02	-5.16871000E-03
					-1.91587000E-07	 7.51274000E-02	-5.44555000E-04
					-2.13646000E-05	 8.51147000E-02	 4.32103000E-03
					 4.03284000E-07	 8.50206000E-02	-6.42013000E-04
					 2.13791000E-05	 8.50164000E-02	-5.60730000E-03
					-5.63455000E-07	 9.52108000E-02	-7.44935000E-04
					 4.17859000E-08	 6.59872000E-04	-9.33421000E-04
					 1.25329000E-04	 2.05125000E-03	-1.97796000E-03
					 7.44426000E-08	 2.07920000E-03	-1.99269000E-03
					-1.25180000E-04	 2.05132000E-03	-1.97797000E-03
					 8.49285000E-08	 4.60023000E-03	-2.96295000E-03
					 1.38471000E-04	 7.99020000E-03	-3.94286000E-03
					 7.31383000E-08	 8.03034000E-03	-3.94430000E-03
					-1.38323000E-04	 7.99026000E-03	-3.94285000E-03
					 5.72612000E-08	 1.24479000E-02	-4.88895000E-03
					 1.29775000E-04	 1.77304000E-02	-5.81553000E-03
					 6.17067000E-08	 1.77621000E-02	-5.81598000E-03
					-1.29650000E-04	 1.77304000E-02	-5.81553000E-03
					 1.17144000E-07	 2.39791000E-02	-6.69800000E-03
					 1.08191000E-04	 3.09769000E-02	-7.51698000E-03
					 2.06507000E-07	 3.10011000E-02	-7.51575000E-03
					-1.07774000E-04	 3.09771000E-02	-7.51702000E-03
					 2.75981000E-07	 3.87719000E-02	-8.24984000E-03
					 7.86180000E-05	 4.71320000E-02	-8.89317000E-03
					 2.65677000E-07	 4.71444000E-02	-8.89106000E-03
					-7.80885000E-05	 4.71322000E-02	-8.89313000E-03
					 9.80052000E-08	 5.60739000E-02	-9.45142000E-03
					 5.00735000E-05	 6.53938000E-02	-9.92065000E-03
					-5.71040000E-08	 6.53870000E-02	-9.91379000E-03
					-5.01970000E-05	 6.53935000E-02	-9.92058000E-03
					-1.36498000E-07	 7.51120000E-02	-1.03120000E-02
					 1.69426000E-05	 8.49975000E-02	-1.05940000E-02
					-8.13884000E-09	 8.49760000E-02	-1.05862000E-02
					-1.70967000E-05	 8.49972000E-02	-1.05941000E-02
					-5.75201000E-08	 9.51293000E-02	-1.08099000E-02
					-1.76610000E-07	 3.19755000E-04	-8.43641000E-08
					-1.27636000E-04	 1.84752000E-03	-9.84636000E-04
					-2.31998000E-07	 1.85860000E-03	-1.83387000E-06
					 1.27574000E-04	 1.85229000E-03	 9.80674000E-04
					-2.25562000E-07	 4.30017000E-03	-7.52291000E-06
					-1.38113000E-04	 7.80439000E-03	-1.97261000E-03
					-1.74516000E-07	 7.79041000E-03	-1.92823000E-05
					 1.38075000E-04	 7.82051000E-03	 1.93371000E-03
					-1.34290000E-07	 1.21912000E-02	-3.81882000E-05
					-1.29824000E-04	 1.75548000E-02	-2.93023000E-03
					-9.73104000E-08	 1.75454000E-02	-6.63118000E-05
					 1.29900000E-04	 1.75883000E-02	 2.79691000E-03
					-2.99275000E-08	 2.37794000E-02	-1.04537000E-04
					-1.07734000E-04	 3.08455000E-02	-3.81589000E-03
					 5.96110000E-08	 3.08457000E-02	-1.53756000E-04
					 1.08029000E-04	 3.08998000E-02	 3.50752000E-03
					 1.21548000E-07	 3.86476000E-02	-2.13846000E-04
					-7.84478000E-05	 4.70545000E-02	-4.57030000E-03
					 1.44472000E-07	 4.70662000E-02	-2.83923000E-04
					 7.88509000E-05	 4.71284000E-02	 4.00149000E-03
					 1.60342000E-07	 5.60249000E-02	-3.63426000E-04
					-4.90943000E-05	 6.53666000E-02	-5.16875000E-03
					 4.47069000E-08	 6.53863000E-02	-4.50347000E-04
					 4.94058000E-05	 6.54560000E-02	 4.26709000E-03
					 2.25722000E-07	 7.51270000E-02	-5.44699000E-04
					-2.15214000E-05	 8.50164000E-02	-5.60734000E-03
					-3.90392000E-07	 8.50214000E-02	-6.42265000E-04
					 2.14720000E-05	 8.51152000E-02	 4.32128000E-03
					 4.41750000E-07	 9.52104000E-02	-7.45078000E-04
					 2.81860000E-09	 4.59850000E-04	-3.82387000E-07
					-2.69549000E-08	 1.99312000E-03	 9.88293000E-04
					-1.33600000E-07	 1.97406000E-03	-2.25469000E-06
					 6.28186000E-09	 1.99564000E-03	-2.38894000E-06
					 1.46566000E-07	 1.97399000E-03	-2.25546000E-06
					 4.02923000E-08	 1.98821000E-03	-9.93477000E-04
					 8.71208000E-09	 4.44548000E-03	-8.40151000E-06
					-2.59920000E-08	 7.96364000E-03	 1.93656000E-03
					-1.00892000E-07	 7.89284000E-03	-2.01291000E-05
					 6.02031000E-09	 7.92962000E-03	-2.03953000E-05
					 1.14523000E-07	 7.89277000E-03	-2.01265000E-05
					 3.94607000E-08	 7.94740000E-03	-1.97774000E-03
					 2.77690000E-09	 1.23284000E-02	-3.95460000E-05
					-3.24936000E-08	 1.77191000E-02	 2.79868000E-03
					-6.40932000E-08	 1.76447000E-02	-6.74691000E-05
					-2.98770000E-09	 1.76766000E-02	-6.78437000E-05
					 6.16752000E-08	 1.76446000E-02	-6.74683000E-05
					 2.97279000E-08	 1.76854000E-02	-2.93505000E-03
					 2.12665000E-09	 2.38986000E-02	-1.06143000E-04
					-9.36657000E-08	 3.10078000E-02	 3.51143000E-03
					 2.15480000E-08	 3.09294000E-02	-1.55035000E-04
					 1.61369000E-09	 3.09596000E-02	-1.55476000E-04
					-1.00233000E-08	 3.09291000E-02	-1.55036000E-04
					 1.04139000E-07	 3.09533000E-02	-3.82305000E-03