# vtk DataFile Version 3.0

ASCII
DATASET UNSTRUCTURED_GRID

POINTS 261 double
	 0.00000000E+00	 0.00000000E+00	 0.00000000E+00
	 1.00000000E+00	 0.00000000E+00	 0.00000000E+00
	 1.00000000E+00	 1.00000000E+00	 0.00000000E+00
	 0.00000000E+00	 1.00000000E+00	 0.00000000E+00
	 0.00000000E+00	 0.00000000E+00	 8.00000000E+00
	 1.00000000E+00	 0.00000000E+00	 8.00000000E+00
	 1.00000000E+00	 1.00000000E+00	 8.00000000E+00
	 0.00000000E+00	 1.00000000E+00	 8.00000000E+00
	 2.50000000E-01	 0.00000000E+00	 0.00000000E+00
	 5.00000000E-01	 0.00000000E+00	 0.00000000E+00
	 7.50000000E-01	 0.00000000E+00	 0.00000000E+00
	 1.00000000E+00	 2.50000000E-01	 0.00000000E+00
	 1.00000000E+00	 5.00000000E-01	 0.00000000E+00
	 1.00000000E+00	 7.50000000E-01	 0.00000000E+00
	 7.50000000E-01	 1.00000000E+00	 0.00000000E+00
	 5.00000000E-01	 1.00000000E+00	 0.00000000E+00
	 2.50000000E-01	 1.00000000E+00	 0.00000000E+00
	 0.00000000E+00	 7.50000000E-01	 0.00000000E+00
	 0.00000000E+00	 5.00000000E-01	 0.00000000E+00
	 0.00000000E+00	 2.50000000E-01	 0.00000000E+00
	 2.50000000E-01	 0.00000000E+00	 8.00000000E+00
	 5.00000000E-01	 0.00000000E+00	 8.00000000E+00
	 7.50000000E-01	 0.00000000E+00	 8.00000000E+00
	 1.00000000E+00	 2.50000000E-01	 8.00000000E+00
	 1.00000000E+00	 5.00000000E-01	 8.00000000E+00
	 1.00000000E+00	 7.50000000E-01	 8.00000000E+00
	 7.50000000E-01	 1.00000000E+00	 8.00000000E+00
	 5.00000000E-01	 1.00000000E+00	 8.00000000E+00
	 2.50000000E-01	 1.00000000E+00	 8.00000000E+00
	 0.00000000E+00	 7.50000000E-01	 8.00000000E+00
	 0.00000000E+00	 5.00000000E-01	 8.00000000E+00
	 0.00000000E+00	 2.50000000E-01	 8.00000000E+00
	 1.00000000E+00	 0.00000000E+00	 5.00000000E-01
	 1.00000000E+00	 0.00000000E+00	 1.00000000E+00
	 1.00000000E+00	 0.00000000E+00	 1.50000000E+00
	 1.00000000E+00	 0.00000000E+00	 2.00000000E+00
	 1.00000000E+00	 0.00000000E+00	 2.50000000E+00
	 1.00000000E+00	 0.00000000E+00	 3.00000000E+00
	 1.00000000E+00	 0.00000000E+00	 3.50000000E+00
	 1.00000000E+00	 0.00000000E+00	 4.00000000E+00
	 1.00000000E+00	 0.00000000E+00	 4.50000000E+00
	 1.00000000E+00	 0.00000000E+00	 5.00000000E+00
	 1.00000000E+00	 0.00000000E+00	 5.50000000E+00
	 1.00000000E+00	 0.00000000E+00	 6.00000000E+00
	 1.00000000E+00	 0.00000000E+00	 6.50000000E+00
	 1.00000000E+00	 0.00000000E+00	 7.00000000E+00
	 1.00000000E+00	 0.00000000E+00	 7.50000000E+00
	 0.00000000E+00	 0.00000000E+00	 7.50000000E+00
	 0.00000000E+00	 0.00000000E+00	 7.00000000E+00
	 0.00000000E+00	 0.00000000E+00	 6.50000000E+00
	 0.00000000E+00	 0.00000000E+00	 6.00000000E+00
	 0.00000000E+00	 0.00000000E+00	 5.50000000E+00
	 0.00000000E+00	 0.00000000E+00	 5.00000000E+00
	 0.00000000E+00	 0.00000000E+00	 4.50000000E+00
	 0.00000000E+00	 0.00000000E+00	 4.00000000E+00
	 0.00000000E+00	 0.00000000E+00	 3.50000000E+00
	 0.00000000E+00	 0.00000000E+00	 3.00000000E+00
	 0.00000000E+00	 0.00000000E+00	 2.50000000E+00
	 0.00000000E+00	 0.00000000E+00	 2.00000000E+00
	 0.00000000E+00	 0.00000000E+00	 1.50000000E+00
	 0.00000000E+00	 0.00000000E+00	 1.00000000E+00
	 0.00000000E+00	 0.00000000E+00	 5.00000000E-01
	 1.00000000E+00	 1.00000000E+00	 5.00000000E-01
	 1.00000000E+00	 1.00000000E+00	 1.00000000E+00
	 1.00000000E+00	 1.00000000E+00	 1.50000000E+00
	 1.00000000E+00	 1.00000000E+00	 2.00000000E+00
	 1.00000000E+00	 1.00000000E+00	 2.50000000E+00
	 1.00000000E+00	 1.00000000E+00	 3.00000000E+00
	 1.00000000E+00	 1.00000000E+00	 3.50000000E+00
	 1.00000000E+00	 1.00000000E+00	 4.00000000E+00
	 1.00000000E+00	 1.00000000E+00	 4.50000000E+00
	 1.00000000E+00	 1.00000000E+00	 5.00000000E+00
	 1.00000000E+00	 1.00000000E+00	 5.50000000E+00
	 1.00000000E+00	 1.00000000E+00	 6.00000000E+00
	 1.00000000E+00	 1.00000000E+00	 6.50000000E+00
	 1.00000000E+00	 1.00000000E+00	 7.00000000E+00
	 1.00000000E+00	 1.00000000E+00	 7.50000000E+00
	 0.00000000E+00	 1.00000000E+00	 5.00000000E-01
	 0.00000000E+00	 1.00000000E+00	 1.00000000E+00
	 0.00000000E+00	 1.00000000E+00	 1.50000000E+00
	 0.00000000E+00	 1.00000000E+00	 2.00000000E+00
	 0.00000000E+00	 1.00000000E+00	 2.50000000E+00
	 0.00000000E+00	 1.00000000E+00	 3.00000000E+00
	 0.00000000E+00	 1.00000000E+00	 3.50000000E+00
	 0.00000000E+00	 1.00000000E+00	 4.00000000E+00
	 0.00000000E+00	 1.00000000E+00	 4.50000000E+00
	 0.00000000E+00	 1.00000000E+00	 5.00000000E+00
	 0.00000000E+00	 1.00000000E+00	 5.50000000E+00
	 0.00000000E+00	 1.00000000E+00	 6.00000000E+00
	 0.00000000E+00	 1.00000000E+00	 6.50000000E+00
	 0.00000000E+00	 1.00000000E+00	 7.00000000E+00
	 0.00000000E+00	 1.00000000E+00	 7.50000000E+00
	 5.00000000E-01	 2.50000000E-01	 0.00000000E+00
	 2.50000000E-01	 5.00000000E-01	 0.00000000E+00
	 5.00000000E-01	 5.00000000E-01	 0.00000000E+00
	 7.50000000E-01	 5.00000000E-01	 0.00000000E+00
	 5.00000000E-01	 7.50000000E-01	 0.00000000E+00
	 5.00000000E-01	 2.50000000E-01	 8.00000000E+00
	 2.50000000E-01	 5.00000000E-01	 8.00000000E+00
	 5.00000000E-01	 5.00000000E-01	 8.00000000E+00
	 7.50000000E-01	 5.00000000E-01	 8.00000000E+00
	 5.00000000E-01	 7.50000000E-01	 8.00000000E+00
	 5.00000000E-01	 0.00000000E+00	 5.00000000E-01
	 2.50000000E-01	 0.00000000E+00	 1.00000000E+00
	 5.00000000E-01	 0.00000000E+00	 1.00000000E+00
	 7.50000000E-01	 0.00000000E+00	 1.00000000E+00
	 5.00000000E-01	 0.00000000E+00	 1.50000000E+00
	 2.50000000E-01	 0.00000000E+00	 2.00000000E+00
	 5.00000000E-01	 0.00000000E+00	 2.00000000E+00
	 7.50000000E-01	 0.00000000E+00	 2.00000000E+00
	 5.00000000E-01	 0.00000000E+00	 2.50000000E+00
	 2.50000000E-01	 0.00000000E+00	 3.00000000E+00
	 5.00000000E-01	 0.00000000E+00	 3.00000000E+00
	 7.50000000E-01	 0.00000000E+00	 3.00000000E+00
	 5.00000000E-01	 0.00000000E+00	 3.50000000E+00
	 2.50000000E-01	 0.00000000E+00	 4.00000000E+00
	 5.00000000E-01	 0.00000000E+00	 4.00000000E+00
	 7.50000000E-01	 0.00000000E+00	 4.00000000E+00
	 5.00000000E-01	 0.00000000E+00	 4.50000000E+00
	 2.50000000E-01	 0.00000000E+00	 5.00000000E+00
	 5.00000000E-01	 0.00000000E+00	 5.00000000E+00
	 7.50000000E-01	 0.00000000E+00	 5.00000000E+00
	 5.00000000E-01	 0.00000000E+00	 5.50000000E+00
	 2.50000000E-01	 0.00000000E+00	 6.00000000E+00
	 5.00000000E-01	 0.00000000E+00	 6.00000000E+00
	 7.50000000E-01	 0.00000000E+00	 6.00000000E+00
	 5.00000000E-01	 0.00000000E+00	 6.50000000E+00
	 2.50000000E-01	 0.00000000E+00	 7.00000000E+00
	 5.00000000E-01	 0.00000000E+00	 7.00000000E+00
	 7.50000000E-01	 0.00000000E+00	 7.00000000E+00
	 5.00000000E-01	 0.00000000E+00	 7.50000000E+00
	 1.00000000E+00	 5.00000000E-01	 5.00000000E-01
	 1.00000000E+00	 2.50000000E-01	 1.00000000E+00
	 1.00000000E+00	 5.00000000E-01	 1.00000000E+00
	 1.00000000E+00	 7.50000000E-01	 1.00000000E+00
	 1.00000000E+00	 5.00000000E-01	 1.50000000E+00
	 1.00000000E+00	 2.50000000E-01	 2.00000000E+00
	 1.00000000E+00	 5.00000000E-01	 2.00000000E+00
	 1.00000000E+00	 7.50000000E-01	 2.00000000E+00
	 1.00000000E+00	 5.00000000E-01	 2.50000000E+00
	 1.00000000E+00	 2.50000000E-01	 3.00000000E+00
	 1.00000000E+00	 5.00000000E-01	 3.00000000E+00
	 1.00000000E+00	 7.50000000E-01	 3.00000000E+00
	 1.00000000E+00	 5.00000000E-01	 3.50000000E+00
	 1.00000000E+00	 2.50000000E-01	 4.00000000E+00
	 1.00000000E+00	 5.00000000E-01	 4.00000000E+00
	 1.00000000E+00	 7.50000000E-01	 4.00000000E+00
	 1.00000000E+00	 5.00000000E-01	 4.50000000E+00
	 1.00000000E+00	 2.50000000E-01	 5.00000000E+00
	 1.00000000E+00	 5.00000000E-01	 5.00000000E+00
	 1.00000000E+00	 7.50000000E-01	 5.00000000E+00
	 1.00000000E+00	 5.00000000E-01	 5.50000000E+00
	 1.00000000E+00	 2.50000000E-01	 6.00000000E+00
	 1.00000000E+00	 5.00000000E-01	 6.00000000E+00
	 1.00000000E+00	 7.50000000E-01	 6.00000000E+00
	 1.00000000E+00	 5.00000000E-01	 6.50000000E+00
	 1.00000000E+00	 2.50000000E-01	 7.00000000E+00
	 1.00000000E+00	 5.00000000E-01	 7.00000000E+00
	 1.00000000E+00	 7.50000000E-01	 7.00000000E+00
	 1.00000000E+00	 5.00000000E-01	 7.50000000E+00
	 5.00000000E-01	 1.00000000E+00	 5.00000000E-01
	 7.50000000E-01	 1.00000000E+00	 1.00000000E+00
	 5.00000000E-01	 1.00000000E+00	 1.00000000E+00
	 2.50000000E-01	 1.00000000E+00	 1.00000000E+00
	 5.00000000E-01	 1.00000000E+00	 1.50000000E+00
	 7.50000000E-01	 1.00000000E+00	 2.00000000E+00
	 5.00000000E-01	 1.00000000E+00	 2.00000000E+00
	 2.50000000E-01	 1.00000000E+00	 2.00000000E+00
	 5.00000000E-01	 1.00000000E+00	 2.50000000E+00
	 7.50000000E-01	 1.00000000E+00	 3.00000000E+00
	 5.00000000E-01	 1.00000000E+00	 3.00000000E+00
	 2.50000000E-01	 1.00000000E+00	 3.00000000E+00
	 5.00000000E-01	 1.00000000E+00	 3.50000000E+00
	 7.50000000E-01	 1.00000000E+00	 4.00000000E+00
	 5.00000000E-01	 1.00000000E+00	 4.00000000E+00
	 2.50000000E-01	 1.00000000E+00	 4.00000000E+00
	 5.00000000E-01	 1.00000000E+00	 4.50000000E+00
	 7.50000000E-01	 1.00000000E+00	 5.00000000E+00
	 5.00000000E-01	 1.00000000E+00	 5.00000000E+00
	 2.50000000E-01	 1.00000000E+00	 5.00000000E+00
	 5.00000000E-01	 1.00000000E+00	 5.50000000E+00
	 7.50000000E-01	 1.00000000E+00	 6.00000000E+00
	 5.00000000E-01	 1.00000000E+00	 6.00000000E+00
	 2.50000000E-01	 1.00000000E+00	 6.00000000E+00
	 5.00000000E-01	 1.00000000E+00	 6.50000000E+00
	 7.50000000E-01	 1.00000000E+00	 7.00000000E+00
	 5.00000000E-01	 1.00000000E+00	 7.00000000E+00
	 2.50000000E-01	 1.00000000E+00	 7.00000000E+00
	 5.00000000E-01	 1.00000000E+00	 7.50000000E+00
	 0.00000000E+00	 5.00000000E-01	 5.00000000E-01
	 0.00000000E+00	 7.50000000E-01	 1.00000000E+00
	 0.00000000E+00	 5.00000000E-01	 1.00000000E+00
	 0.00000000E+00	 2.50000000E-01	 1.00000000E+00
	 0.00000000E+00	 5.00000000E-01	 1.50000000E+00
	 0.00000000E+00	 7.50000000E-01	 2.00000000E+00
	 0.00000000E+00	 5.00000000E-01	 2.00000000E+00
	 0.00000000E+00	 2.50000000E-01	 2.00000000E+00
	 0.00000000E+00	 5.00000000E-01	 2.50000000E+00
	 0.00000000E+00	 7.50000000E-01	 3.00000000E+00
	 0.00000000E+00	 5.00000000E-01	 3.00000000E+00
	 0.00000000E+00	 2.50000000E-01	 3.00000000E+00
	 0.00000000E+00	 5.00000000E-01	 3.50000000E+00
	 0.00000000E+00	 7.50000000E-01	 4.00000000E+00
	 0.00000000E+00	 5.00000000E-01	 4.00000000E+00
	 0.00000000E+00	 2.50000000E-01	 4.00000000E+00
	 0.00000000E+00	 5.00000000E-01	 4.50000000E+00
	 0.00000000E+00	 7.50000000E-01	 5.00000000E+00
	 0.00000000E+00	 5.00000000E-01	 5.00000000E+00
	 0.00000000E+00	 2.50000000E-01	 5.00000000E+00
	 0.00000000E+00	 5.00000000E-01	 5.50000000E+00
	 0.00000000E+00	 7.50000000E-01	 6.00000000E+00
	 0.00000000E+00	 5.00000000E-01	 6.00000000E+00
	 0.00000000E+00	 2.50000000E-01	 6.00000000E+00
	 0.00000000E+00	 5.00000000E-01	 6.50000000E+00
	 0.00000000E+00	 7.50000000E-01	 7.00000000E+00
	 0.00000000E+00	 5.00000000E-01	 7.00000000E+00
	 0.00000000E+00	 2.50000000E-01	 7.00000000E+00
	 0.00000000E+00	 5.00000000E-01	 7.50000000E+00
	 5.00000000E-01	 5.00000000E-01	 5.00000000E-01
	 5.00000000E-01	 2.50000000E-01	 1.00000000E+00
	 2.50000000E-01	 5.00000000E-01	 1.00000000E+00
	 5.00000000E-01	 5.00000000E-01	 1.00000000E+00
	 7.50000000E-01	 5.00000000E-01	 1.00000000E+00
	 5.00000000E-01	 7.50000000E-01	 1.00000000E+00
	 5.00000000E-01	 5.00000000E-01	 1.50000000E+00
	 5.00000000E-01	 2.50000000E-01	 2.00000000E+00
	 2.50000000E-01	 5.00000000E-01	 2.00000000E+00
	 5.00000000E-01	 5.00000000E-01	 2.00000000E+00
	 7.50000000E-01	 5.00000000E-01	 2.00000000E+00
	 5.00000000E-01	 7.50000000E-01	 2.00000000E+00
	 5.00000000E-01	 5.00000000E-01	 2.50000000E+00
	 5.00000000E-01	 2.50000000E-01	 3.00000000E+00
	 2.50000000E-01	 5.00000000E-01	 3.00000000E+00
	 5.00000000E-01	 5.00000000E-01	 3.00000000E+00
	 7.50000000E-01	 5.00000000E-01	 3.00000000E+00
	 5.00000000E-01	 7.50000000E-01	 3.00000000E+00
	 5.00000000E-01	 5.00000000E-01	 3.50000000E+00
	 5.00000000E-01	 2.50000000E-01	 4.00000000E+00
	 2.50000000E-01	 5.00000000E-01	 4.00000000E+00
	 5.00000000E-01	 5.00000000E-01	 4.00000000E+00
	 7.50000000E-01	 5.00000000E-01	 4.00000000E+00
	 5.00000000E-01	 7.50000000E-01	 4.00000000E+00
	 5.00000000E-01	 5.00000000E-01	 4.50000000E+00
	 5.00000000E-01	 2.50000000E-01	 5.00000000E+00
	 2.50000000E-01	 5.00000000E-01	 5.00000000E+00
	 5.00000000E-01	 5.00000000E-01	 5.00000000E+00
	 7.50000000E-01	 5.00000000E-01	 5.00000000E+00
	 5.00000000E-01	 7.50000000E-01	 5.00000000E+00
	 5.00000000E-01	 5.00000000E-01	 5.50000000E+00
	 5.00000000E-01	 2.50000000E-01	 6.00000000E+00
	 2.50000000E-01	 5.00000000E-01	 6.00000000E+00
	 5.00000000E-01	 5.00000000E-01	 6.00000000E+00
	 7.50000000E-01	 5.00000000E-01	 6.00000000E+00
	 5.00000000E-01	 7.50000000E-01	 6.00000000E+00
	 5.00000000E-01	 5.00000000E-01	 6.50000000E+00
	 5.00000000E-01	 2.50000000E-01	 7.00000000E+00
	 2.50000000E-01	 5.00000000E-01	 7.00000000E+00
	 5.00000000E-01	 5.00000000E-01	 7.00000000E+00
	 7.50000000E-01	 5.00000000E-01	 7.00000000E+00
	 5.00000000E-01	 7.50000000E-01	 7.00000000E+00
	 5.00000000E-01	 5.00000000E-01	 7.50000000E+00

CELLS 32 672
	20 0 9 94 18 60 104 221 191 8 92 93 19 103 219 220 192 61 102 218 189 
	20 9 1 12 94 104 33 133 221 10 11 95 92 105 132 222 219 102 32 131 218 
	20 18 94 15 3 191 221 162 78 93 96 16 17 220 223 163 190 189 218 160 77 
	20 94 12 2 15 221 133 63 162 95 13 14 96 222 134 161 223 218 131 62 160 
	20 60 104 221 191 58 108 227 195 103 219 220 192 107 225 226 196 59 106 224 193 
	20 104 33 133 221 108 35 137 227 105 132 222 219 109 136 228 225 106 34 135 224 
	20 191 221 162 78 195 227 166 80 220 223 163 190 226 229 167 194 193 224 164 79 
	20 221 133 63 162 227 137 65 166 222 134 161 223 228 138 165 229 224 135 64 164 
	20 58 108 227 195 56 112 233 199 107 225 226 196 111 231 232 200 57 110 230 197 
	20 108 35 137 227 112 37 141 233 109 136 228 225 113 140 234 231 110 36 139 230 
	20 195 227 166 80 199 233 170 82 226 229 167 194 232 235 171 198 197 230 168 81 
	20 227 137 65 166 233 141 67 170 228 138 165 229 234 142 169 235 230 139 66 168 
	20 56 112 233 199 54 116 239 203 111 231 232 200 115 237 238 204 55 114 236 201 
	20 112 37 141 233 116 39 145 239 113 140 234 231 117 144 240 237 114 38 143 236 
	20 199 233 170 82 203 239 174 84 232 235 171 198 238 241 175 202 201 236 172 83 
	20 233 141 67 170 239 145 69 174 234 142 169 235 240 146 173 241 236 143 68 172 
	20 54 116 239 203 52 120 245 207 115 237 238 204 119 243 244 208 53 118 242 205 
	20 116 39 145 239 120 41 149 245 117 144 240 237 121 148 246 243 118 40 147 242 
	20 203 239 174 84 207 245 178 86 238 241 175 202 244 247 179 206 205 242 176 85 
	20 239 145 69 174 245 149 71 178 240 146 173 241 246 150 177 247 242 147 70 176 
	20 52 120 245 207 50 124 251 211 119 243 244 208 123 249 250 212 51 122 248 209 
	20 120 41 149 245 124 43 153 251 121 148 246 243 125 152 252 249 122 42 151 248 
	20 207 245 178 86 211 251 182 88 244 247 179 206 250 253 183 210 209 248 180 87 
	20 245 149 71 178 251 153 73 182 246 150 177 247 252 154 181 253 248 151 72 180 
	20 50 124 251 211 48 128 257 215 123 249 250 212 127 255 256 216 49 126 254 213 
	20 124 43 153 251 128 45 157 257 125 152 252 249 129 156 258 255 126 44 155 254 
	20 211 251 182 88 215 257 186 90 250 253 183 210 256 259 187 214 213 254 184 89 
	20 251 153 73 182 257 157 75 186 252 154 181 253 258 158 185 259 254 155 74 184 
	20 48 128 257 215 4 21 99 30 127 255 256 216 20 97 98 31 47 130 260 217 
	20 128 45 157 257 21 5 24 99 129 156 258 255 22 23 100 97 130 46 159 260 
	20 215 257 186 90 30 99 27 7 256 259 187 214 98 101 28 29 217 260 188 91 
	20 257 157 75 186 99 24 6 27 258 158 185 259 100 25 26 101 260 159 76 188 

CELL_TYPES 32
	25
	25
	25
	25
	25
	25
	25
	25
	25
	25
	25
	25
	25
	25
	25
	25
	25
	25
	25
	25
	25
	25
	25
	25
	25
	25
	25
	25
	25
	25
	25
	25

POINT_DATA 261
FIELD U 1
	U 3 261 double
		 0.00000000E+00	 0.00000000E+00	 0.00000000E+00
		 0.00000000E+00	 0.00000000E+00	 0.00000000E+00
		 0.00000000E+00	 0.00000000E+00	 0.00000000E+00
		 0.00000000E+00	 0.00000000E+00	 0.00000000E+00
		 2.77016000E-05	 3.36554000E-02	 3.73146000E-03
		-2.69489000E-05	 3.36558000E-02	 3.73127000E-03
		 2.71365000E-05	 3.36258000E-02	-3.92194000E-03
		-2.77163000E-05	 3.36259000E-02	-3.92202000E-03
		 0.00000000E+00	 0.00000000E+00	 0.00000000E+00
		 0.00000000E+00	 0.00000000E+00	 0.00000000E+00
		 0.00000000E+00	 0.00000000E+00	 0.00000000E+00
		 0.00000000E+00	 0.00000000E+00	 0.00000000E+00
		 0.00000000E+00	 0.00000000E+00	 0.00000000E+00
		 0.00000000E+00	 0.00000000E+00	 0.00000000E+00
		 0.00000000E+00	 0.00000000E+00	 0.00000000E+00
		 0.00000000E+00	 0.00000000E+00	 0.00000000E+00
		 0.00000000E+00	 0.00000000E+00	 0.00000000E+00
		 0.00000000E+00	 0.00000000E+00	 0.00000000E+00
		 0.00000000E+00	 0.00000000E+00	 0.00000000E+00
		 0.00000000E+00	 0.00000000E+00	 0.00000000E+00
		 2.19413000E-05	 3.36808000E-02	 3.73920000E-03
		 2.89344000E-07	 3.36432000E-02	 3.74133000E-03
		-2.13078000E-05	 3.36809000E-02	 3.73920000E-03
		-3.58341000E-07	 3.36327000E-02	 1.80287000E-03
		-5.32806000E-08	 3.35980000E-02	-9.49759000E-05
		 4.77730000E-07	 3.36179000E-02	-1.99308000E-03
		 2.13875000E-05	 3.36515000E-02	-3.92989000E-03
		-2.38786000E-07	 3.36146000E-02	-3.93203000E-03
		-2.19103000E-05	 3.36517000E-02	-3.92995000E-03
		-7.33651000E-07	 3.36176000E-02	-1.99308000E-03
		-2.89835000E-08	 3.35971000E-02	-9.50241000E-05
		 6.66204000E-07	 3.36321000E-02	 1.80298000E-03
		-8.57921000E-05	 1.55514000E-04	 2.58642000E-04
		-6.10209000E-05	 5.42457000E-04	 5.13948000E-04
		-7.04427000E-05	 1.20112000E-03	 7.51448000E-04
		-6.70904000E-05	 2.06155000E-03	 9.80875000E-04
		-7.33446000E-05	 3.15357000E-03	 1.21390000E-03
		-8.04532000E-05	 4.47194000E-03	 1.46798000E-03
		-9.04609000E-05	 6.06002000E-03	 1.75220000E-03
		-9.79070000E-05	 7.95603000E-03	 2.06449000E-03
		-1.00362000E-04	 1.01912000E-02	 2.39252000E-03
		-9.50348000E-05	 1.27876000E-02	 2.71619000E-03
		-8.40113000E-05	 1.57043000E-02	 3.00539000E-03
		-6.94299000E-05	 1.89261000E-02	 3.25670000E-03
		-5.90851000E-05	 2.23632000E-02	 3.45246000E-03
		-3.96265000E-05	 2.60308000E-02	 3.61674000E-03
		-4.06176000E-05	 2.97845000E-02	 3.71004000E-03
		 4.06148000E-05	 2.97844000E-02	 3.71010000E-03
		 3.90468000E-05	 2.60313000E-02	 3.61670000E-03
		 5.81071000E-05	 2.23642000E-02	 3.45253000E-03
		 6.87465000E-05	 1.89269000E-02	 3.25675000E-03
		 8.37106000E-05	 1.57045000E-02	 3.00537000E-03
		 9.51093000E-05	 1.27876000E-02	 2.71621000E-03
		 1.00614000E-04	 1.01909000E-02	 2.39253000E-03
		 9.82333000E-05	 7.95571000E-03	 2.06450000E-03
		 9.07594000E-05	 6.05970000E-03	 1.75219000E-03
		 8.06899000E-05	 4.47170000E-03	 1.46798000E-03
		 7.34935000E-05	 3.15342000E-03	 1.21389000E-03
		 6.71670000E-05	 2.06147000E-03	 9.80875000E-04
		 7.04651000E-05	 1.20110000E-03	 7.51447000E-04
		 6.10199000E-05	 5.42456000E-04	 5.13947000E-04
		 8.57865000E-05	 1.55518000E-04	 2.58642000E-04
		 8.57763000E-05	 1.55274000E-04	-2.58651000E-04
		 6.09661000E-05	 5.41821000E-04	-5.14228000E-04
		 7.03982000E-05	 1.19992000E-03	-7.52521000E-04
		 6.70564000E-05	 2.05951000E-03	-9.83381000E-04
		 7.33213000E-05	 3.15055000E-03	-1.21875000E-03
		 8.04453000E-05	 4.46751000E-03	-1.47634000E-03
		 9.04577000E-05	 6.05374000E-03	-1.76570000E-03
		 9.79012000E-05	 7.94731000E-03	-2.08533000E-03
		 1.00368000E-04	 1.01795000E-02	-2.42346000E-03
		 9.50321000E-05	 1.27725000E-02	-2.76068000E-03
		 8.39882000E-05	 1.56858000E-02	-3.06699000E-03
		 6.94056000E-05	 1.89041000E-02	-3.33910000E-03
		 5.90601000E-05	 2.23387000E-02	-3.55830000E-03
		 3.98245000E-05	 2.60024000E-02	-3.74853000E-03
		 4.02639000E-05	 2.97562000E-02	-3.87050000E-03
		-8.57734000E-05	 1.55278000E-04	-2.58652000E-04
		-6.09703000E-05	 5.41819000E-04	-5.14229000E-04
		-7.04280000E-05	 1.19989000E-03	-7.52521000E-04
		-6.71393000E-05	 2.05944000E-03	-9.83381000E-04
		-7.34785000E-05	 3.15039000E-03	-1.21876000E-03
		-8.06928000E-05	 4.46728000E-03	-1.47635000E-03
		-9.07835000E-05	 6.05342000E-03	-1.76570000E-03
		-9.82560000E-05	 7.94699000E-03	-2.08533000E-03
		-1.00642000E-04	 1.01792000E-02	-2.42346000E-03
		-9.50801000E-05	 1.27725000E-02	-2.76072000E-03
		-8.36918000E-05	 1.56860000E-02	-3.06694000E-03
		-6.86785000E-05	 1.89049000E-02	-3.33909000E-03
		-5.81259000E-05	 2.23395000E-02	-3.55838000E-03
		-3.92002000E-05	 2.60038000E-02	-3.74914000E-03
		-4.04466000E-05	 2.97557000E-02	-3.87082000E-03
		 0.00000000E+00	 0.00000000E+00	 0.00000000E+00
		 0.00000000E+00	 0.00000000E+00	 0.00000000E+00
		 0.00000000E+00	 0.00000000E+00	 0.00000000E+00
		 0.00000000E+00	 0.00000000E+00	 0.00000000E+00
		 0.00000000E+00	 0.00000000E+00	 0.00000000E+00
		 1.46083000E-07	 3.37464000E-02	 1.83396000E-03
		 0.00000000E+00	 3.36878000E-02	-9.52428000E-05
		-4.91716000E-08	 3.38660000E-02	-9.55445000E-05
		-6.36282000E-08	 3.36883000E-02	-9.52554000E-05
		-1.54984000E-07	 3.37319000E-02	-2.02518000E-03
		-2.53894000E-09	 1.92298000E-04	 2.51448000E-04
		 3.02069000E-05	 5.71997000E-04	 5.17364000E-04
		 0.00000000E+00	 5.78532000E-04	 5.20910000E-04
		-3.02081000E-05	 5.71998000E-04	 5.17365000E-04
		 1.25147000E-08	 1.23483000E-03	 7.50977000E-04
		 3.36042000E-05	 2.08681000E-03	 9.80902000E-04
		 3.72826000E-08	 2.09669000E-03	 9.81247000E-04
		-3.35288000E-05	 2.08685000E-03	 9.80913000E-04
		 7.60311000E-08	 3.19009000E-03	 1.21247000E-03
		 4.03656000E-05	 4.50146000E-03	 1.46556000E-03
		 1.15426000E-07	 4.51086000E-03	 1.46584000E-03
		-4.01317000E-05	 4.50158000E-03	 1.46558000E-03
		 1.48926000E-07	 6.10649000E-03	 1.75037000E-03
		 4.92168000E-05	 7.99061000E-03	 2.06245000E-03
		 1.51205000E-07	 8.00018000E-03	 2.06220000E-03
		-4.89026000E-05	 7.99077000E-03	 2.06245000E-03
		 1.28351000E-07	 1.02446000E-02	 2.39346000E-03
		 4.74757000E-05	 1.28171000E-02	 2.71691000E-03
		 2.46058000E-08	 1.28233000E-02	 2.71510000E-03
		-4.74121000E-05	 1.28171000E-02	 2.71685000E-03
		-1.49639000E-07	 1.57551000E-02	 3.00906000E-03
		 3.44209000E-05	 1.89432000E-02	 3.25560000E-03
		-4.11467000E-07	 1.89377000E-02	 3.25107000E-03
		-3.51797000E-05	 1.89428000E-02	 3.25551000E-03
		-4.06705000E-07	 2.24075000E-02	 3.46322000E-03
		 1.86661000E-05	 2.60147000E-02	 3.61398000E-03
		-2.62380000E-07	 2.60023000E-02	 3.60889000E-03
		-1.92029000E-05	 2.60146000E-02	 3.61405000E-03
		 1.84623000E-08	 2.98477000E-02	 3.71786000E-03
		 4.55912000E-09	 1.02763000E-04	 6.13815000E-09
		-3.08039000E-05	 5.21507000E-04	 2.54207000E-04
		 3.53618000E-09	 5.24570000E-04	-1.06620000E-07
		 3.07866000E-05	 5.21186000E-04	-2.54441000E-04
		 3.09007000E-09	 1.15862000E-03	-4.69068000E-07
		-3.35205000E-05	 2.04009000E-03	 4.90517000E-04
		 2.90291000E-09	 2.03383000E-03	-1.19465000E-06
		 3.35105000E-05	 2.03907000E-03	-4.92927000E-04
		 1.42851000E-08	 3.11249000E-03	-2.33958000E-06
		-4.02587000E-05	 4.44109000E-03	 7.37017000E-04
		 2.62009000E-08	 4.43074000E-03	-4.07865000E-06
		 4.02861000E-05	 4.43885000E-03	-7.45225000E-04
		 3.91209000E-08	 6.01235000E-03	-6.60982000E-06
		-4.88475000E-05	 7.91596000E-03	 1.03013000E-03
		 4.24401000E-08	 7.90085000E-03	-1.02059000E-05
		 4.88985000E-05	 7.91157000E-03	-1.05066000E-03
		 4.23012000E-08	 1.01391000E-02	-1.52594000E-05
		-4.75843000E-05	 1.27432000E-02	 1.34238000E-03
		 3.99372000E-08	 1.27235000E-02	-2.19433000E-05
		 4.76188000E-05	 1.27356000E-02	-1.38643000E-03
		 2.76226000E-08	 1.56610000E-02	-3.05731000E-05
		-3.41339000E-05	 1.88865000E-02	 1.60055000E-03
		 4.89128000E-09	 1.88635000E-02	-4.07607000E-05
		 3.41775000E-05	 1.88756000E-02	-1.68233000E-03
		-2.62599000E-08	 2.23317000E-02	-5.29182000E-05
		-2.21929000E-05	 2.59747000E-02	 1.76831000E-03
		-1.74321000E-08	 2.59335000E-02	-6.61889000E-05
		 2.22370000E-05	 2.59607000E-02	-1.90013000E-03
		-5.90011000E-08	 2.98127000E-02	-8.06873000E-05
		 1.35666000E-09	 1.92061000E-04	-2.51496000E-04
		 3.01888000E-05	 5.71339000E-04	-5.17713000E-04
		-2.35135000E-09	 5.77879000E-04	-5.21278000E-04
		-3.01932000E-05	 5.71338000E-04	-5.17712000E-04
		-1.59743000E-08	 1.23360000E-03	-7.52152000E-04
		 3.35139000E-05	 2.08481000E-03	-9.83516000E-04
		-4.14165000E-08	 2.09465000E-03	-9.83887000E-04
		-3.35966000E-05	 2.08477000E-03	-9.83506000E-04
		-7.94070000E-08	 3.18706000E-03	-1.21750000E-03
		 4.01320000E-05	 4.49715000E-03	-1.47410000E-03
		-1.23195000E-07	 4.50644000E-03	-1.47441000E-03
		-4.03792000E-05	 4.49703000E-03	-1.47409000E-03
		-1.61141000E-07	 6.10020000E-03	-1.76419000E-03
		 4.89008000E-05	 7.98204000E-03	-2.08356000E-03
		-1.74530000E-07	 7.99147000E-03	-2.08338000E-03
		-4.92524000E-05	 7.98189000E-03	-2.08356000E-03
		-1.33752000E-07	 1.02329000E-02	-2.42493000E-03
		 4.74205000E-05	 1.28019000E-02	-2.76172000E-03
		-2.94873000E-08	 1.28082000E-02	-2.76002000E-03
		-4.74774000E-05	 1.28019000E-02	-2.76177000E-03
		 1.67464000E-07	 1.57364000E-02	-3.07125000E-03
		 3.51579000E-05	 1.89209000E-02	-3.33802000E-03
		 3.80886000E-07	 1.89162000E-02	-3.33360000E-03
		-3.44076000E-05	 1.89214000E-02	-3.33814000E-03
		 4.60132000E-07	 2.23824000E-02	-3.56967000E-03
		 1.93554000E-05	 2.59872000E-02	-3.74640000E-03
		 2.79726000E-07	 2.59759000E-02	-3.74134000E-03
		-1.87588000E-05	 2.59878000E-02	-3.74652000E-03
		-3.41019000E-08	 2.98182000E-02	-3.87930000E-03
		-5.90585000E-09	 1.02767000E-04	 5.34597000E-09
		-3.07903000E-05	 5.21185000E-04	-2.54443000E-04
		-6.42724000E-09	 5.24567000E-04	-1.07612000E-07
		 3.08021000E-05	 5.21506000E-04	 2.54207000E-04
		-6.47982000E-09	 1.15859000E-03	-4.69494000E-07
		-3.35541000E-05	 2.03899000E-03	-4.92938000E-04
		-7.14519000E-09	 2.03375000E-03	-1.19519000E-06
		 3.35568000E-05	 2.04001000E-03	 4.90527000E-04
		-1.79609000E-08	 3.11233000E-03	-2.34049000E-06
		-4.04147000E-05	 4.43861000E-03	-7.45242000E-04
		-3.47232000E-08	 4.43049000E-03	-4.08139000E-06
		 4.03729000E-05	 4.44085000E-03	 7.37029000E-04
		-4.98655000E-08	 6.01204000E-03	-6.61088000E-06
		-4.90827000E-05	 7.91123000E-03	-1.05066000E-03
		-6.30664000E-08	 7.90050000E-03	-1.02065000E-05
		 4.89993000E-05	 7.91563000E-03	 1.03014000E-03
		-4.89825000E-08	 1.01388000E-02	-1.52451000E-05
		-4.76532000E-05	 1.27356000E-02	-1.38638000E-03
		-4.76333000E-08	 1.27234000E-02	-2.19282000E-05
		 4.76186000E-05	 1.27431000E-02	 1.34234000E-03
		-7.23435000E-09	 1.56614000E-02	-3.05602000E-05
		-3.37996000E-05	 1.88763000E-02	-1.68233000E-03
		-3.84959000E-08	 1.88641000E-02	-4.08004000E-05
		 3.37692000E-05	 1.88872000E-02	 1.60052000E-03
		 2.14944000E-08	 2.23328000E-02	-5.27987000E-05
		-2.19504000E-05	 2.59613000E-02	-1.90014000E-03
		-2.51241000E-08	 2.59336000E-02	-6.57278000E-05
		 2.19235000E-05	 2.59750000E-02	 1.76824000E-03
		 9.78449000E-08	 2.98131000E-02	-8.04889000E-05
		 0.00000000E+00	 1.39165000E-04	-1.75603000E-08
		 0.00000000E+00	 5.56207000E-04	 2.57258000E-04
		-5.17320000E-09	 5.53374000E-04	-1.36031000E-07
		-1.31906000E-09	 5.58576000E-04	-1.43976000E-07
		 2.40550000E-09	 5.53375000E-04	-1.35639000E-07
		-1.84639000E-09	 5.55874000E-04	-2.57575000E-04
		-1.82691000E-09	 1.19340000E-03	-5.21817000E-07
		 1.80296000E-08	 2.07515000E-03	 4.90630000E-04
		-5.29722000E-09	 2.05883000E-03	-1.24420000E-06
		-1.45790000E-09	 2.06856000E-03	-1.26121000E-06
		 1.71256000E-09	 2.05887000E-03	-1.24379000E-06
		-2.14699000E-08	 2.07413000E-03	-4.93173000E-04
		-2.24962000E-09	 3.14897000E-03	-2.42393000E-06
		 5.60855000E-08	 4.48162000E-03	 7.34801000E-04
		-1.96495000E-08	 4.46198000E-03	-4.16622000E-06
		-2.27367000E-09	 4.47281000E-03	-4.19966000E-06
		 1.32272000E-08	 4.46210000E-03	-4.16498000E-06
		-6.26923000E-08	 4.47938000E-03	-7.43237000E-04
		-7.06452000E-09	 6.05603000E-03	-6.75646000E-06
		 7.49081000E-08	 7.96454000E-03	 1.02829000E-03
		-3.71577000E-08	 7.93955000E-03	-1.03707000E-05
		-5.48458000E-09	 7.95425000E-03	-1.04323000E-05
		 2.10148000E-08	 7.93972000E-03	-1.03714000E-05
		-9.01619000E-08	 7.96015000E-03	-1.04922000E-03
		-6.39950000E-09	 1.01850000E-02	-1.54752000E-05
		 1.01982000E-08	 1.27909000E-02	 1.34246000E-03
		-1.92403000E-08	 1.27661000E-02	-2.21779000E-05
		 1.19067000E-08	 1.27824000E-02	-2.22893000E-05
		 2.68120000E-08	 1.27661000E-02	-2.21798000E-05
		-7.84907000E-09	 1.27834000E-02	-1.38705000E-03
		-2.67599000E-09	 1.56948000E-02	-3.07292000E-05
		-1.73647000E-07	 1.89245000E-02	 1.60050000E-03
		-1.50322000E-08	 1.89025000E-02	-4.10503000E-05
		 1.00539000E-08	 1.89309000E-02	-4.11769000E-05
		 1.26418000E-08	 1.89023000E-02	-4.10509000E-05
		 1.93341000E-07	 1.89137000E-02	-1.68292000E-03
		-1.14883000E-09	 2.23384000E-02	-5.28089000E-05
		-2.03800000E-07	 2.60177000E-02	 1.76009000E-03
		 1.50137000E-08	 2.60047000E-02	-6.61365000E-05
		 5.16513000E-08	 2.60378000E-02	-6.64167000E-05
		-1.23910000E-08	 2.60047000E-02	-6.62947000E-05
		 1.47462000E-07	 2.60047000E-02	-1.89260000E-03
		 6.15727000E-08	 2.97749000E-02	-8.00456000E-05
