# vtk DataFile Version 3.0

ASCII
DATASET UNSTRUCTURED_GRID

POINTS 261 double
	 0.00000000E+00	 0.00000000E+00	 0.00000000E+00
	 1.00000000E+00	 0.00000000E+00	 0.00000000E+00
	 1.00000000E+00	 1.50000000E+00	 0.00000000E+00
	 0.00000000E+00	 1.50000000E+00	 0.00000000E+00
	 0.00000000E+00	 0.00000000E+00	 8.00000000E+00
	 1.00000000E+00	 0.00000000E+00	 8.00000000E+00
	 1.00000000E+00	 1.50000000E+00	 8.00000000E+00
	 0.00000000E+00	 1.50000000E+00	 8.00000000E+00
	 2.50000000E-01	 0.00000000E+00	 0.00000000E+00
	 5.00000000E-01	 0.00000000E+00	 0.00000000E+00
	 7.50000000E-01	 0.00000000E+00	 0.00000000E+00
	 1.00000000E+00	 3.75000000E-01	 0.00000000E+00
	 1.00000000E+00	 7.50000000E-01	 0.00000000E+00
	 1.00000000E+00	 1.12500000E+00	 0.00000000E+00
	 7.50000000E-01	 1.50000000E+00	 0.00000000E+00
	 5.00000000E-01	 1.50000000E+00	 0.00000000E+00
	 2.50000000E-01	 1.50000000E+00	 0.00000000E+00
	 0.00000000E+00	 1.12500000E+00	 0.00000000E+00
	 0.00000000E+00	 7.50000000E-01	 0.00000000E+00
	 0.00000000E+00	 3.75000000E-01	 0.00000000E+00
	 2.50000000E-01	 0.00000000E+00	 8.00000000E+00
	 5.00000000E-01	 0.00000000E+00	 8.00000000E+00
	 7.50000000E-01	 0.00000000E+00	 8.00000000E+00
	 1.00000000E+00	 3.75000000E-01	 8.00000000E+00
	 1.00000000E+00	 7.50000000E-01	 8.00000000E+00
	 1.00000000E+00	 1.12500000E+00	 8.00000000E+00
	 7.50000000E-01	 1.50000000E+00	 8.00000000E+00
	 5.00000000E-01	 1.50000000E+00	 8.00000000E+00
	 2.50000000E-01	 1.50000000E+00	 8.00000000E+00
	 0.00000000E+00	 1.12500000E+00	 8.00000000E+00
	 0.00000000E+00	 7.50000000E-01	 8.00000000E+00
	 0.00000000E+00	 3.75000000E-01	 8.00000000E+00
	 1.00000000E+00	 0.00000000E+00	 5.00000000E-01
	 1.00000000E+00	 0.00000000E+00	 1.00000000E+00
	 1.00000000E+00	 0.00000000E+00	 1.50000000E+00
	 1.00000000E+00	 0.00000000E+00	 2.00000000E+00
	 1.00000000E+00	 0.00000000E+00	 2.50000000E+00
	 1.00000000E+00	 0.00000000E+00	 3.00000000E+00
	 1.00000000E+00	 0.00000000E+00	 3.50000000E+00
	 1.00000000E+00	 0.00000000E+00	 4.00000000E+00
	 1.00000000E+00	 0.00000000E+00	 4.50000000E+00
	 1.00000000E+00	 0.00000000E+00	 5.00000000E+00
	 1.00000000E+00	 0.00000000E+00	 5.50000000E+00
	 1.00000000E+00	 0.00000000E+00	 6.00000000E+00
	 1.00000000E+00	 0.00000000E+00	 6.50000000E+00
	 1.00000000E+00	 0.00000000E+00	 7.00000000E+00
	 1.00000000E+00	 0.00000000E+00	 7.50000000E+00
	 0.00000000E+00	 0.00000000E+00	 7.50000000E+00
	 0.00000000E+00	 0.00000000E+00	 7.00000000E+00
	 0.00000000E+00	 0.00000000E+00	 6.50000000E+00
	 0.00000000E+00	 0.00000000E+00	 6.00000000E+00
	 0.00000000E+00	 0.00000000E+00	 5.50000000E+00
	 0.00000000E+00	 0.00000000E+00	 5.00000000E+00
	 0.00000000E+00	 0.00000000E+00	 4.50000000E+00
	 0.00000000E+00	 0.00000000E+00	 4.00000000E+00
	 0.00000000E+00	 0.00000000E+00	 3.50000000E+00
	 0.00000000E+00	 0.00000000E+00	 3.00000000E+00
	 0.00000000E+00	 0.00000000E+00	 2.50000000E+00
	 0.00000000E+00	 0.00000000E+00	 2.00000000E+00
	 0.00000000E+00	 0.00000000E+00	 1.50000000E+00
	 0.00000000E+00	 0.00000000E+00	 1.00000000E+00
	 0.00000000E+00	 0.00000000E+00	 5.00000000E-01
	 1.00000000E+00	 1.50000000E+00	 5.00000000E-01
	 1.00000000E+00	 1.50000000E+00	 1.00000000E+00
	 1.00000000E+00	 1.50000000E+00	 1.50000000E+00
	 1.00000000E+00	 1.50000000E+00	 2.00000000E+00
	 1.00000000E+00	 1.50000000E+00	 2.50000000E+00
	 1.00000000E+00	 1.50000000E+00	 3.00000000E+00
	 1.00000000E+00	 1.50000000E+00	 3.50000000E+00
	 1.00000000E+00	 1.50000000E+00	 4.00000000E+00
	 1.00000000E+00	 1.50000000E+00	 4.50000000E+00
	 1.00000000E+00	 1.50000000E+00	 5.00000000E+00
	 1.00000000E+00	 1.50000000E+00	 5.50000000E+00
	 1.00000000E+00	 1.50000000E+00	 6.00000000E+00
	 1.00000000E+00	 1.50000000E+00	 6.50000000E+00
	 1.00000000E+00	 1.50000000E+00	 7.00000000E+00
	 1.00000000E+00	 1.50000000E+00	 7.50000000E+00
	 0.00000000E+00	 1.50000000E+00	 5.00000000E-01
	 0.00000000E+00	 1.50000000E+00	 1.00000000E+00
	 0.00000000E+00	 1.50000000E+00	 1.50000000E+00
	 0.00000000E+00	 1.50000000E+00	 2.00000000E+00
	 0.00000000E+00	 1.50000000E+00	 2.50000000E+00
	 0.00000000E+00	 1.50000000E+00	 3.00000000E+00
	 0.00000000E+00	 1.50000000E+00	 3.50000000E+00
	 0.00000000E+00	 1.50000000E+00	 4.00000000E+00
	 0.00000000E+00	 1.50000000E+00	 4.50000000E+00
	 0.00000000E+00	 1.50000000E+00	 5.00000000E+00
	 0.00000000E+00	 1.50000000E+00	 5.50000000E+00
	 0.00000000E+00	 1.50000000E+00	 6.00000000E+00
	 0.00000000E+00	 1.50000000E+00	 6.50000000E+00
	 0.00000000E+00	 1.50000000E+00	 7.00000000E+00
	 0.00000000E+00	 1.50000000E+00	 7.50000000E+00
	 5.00000000E-01	 3.75000000E-01	 0.00000000E+00
	 2.50000000E-01	 7.50000000E-01	 0.00000000E+00
	 5.00000000E-01	 7.50000000E-01	 0.00000000E+00
	 7.50000000E-01	 7.50000000E-01	 0.00000000E+00
	 5.00000000E-01	 1.12500000E+00	 0.00000000E+00
	 5.00000000E-01	 3.75000000E-01	 8.00000000E+00
	 2.50000000E-01	 7.50000000E-01	 8.00000000E+00
	 5.00000000E-01	 7.50000000E-01	 8.00000000E+00
	 7.50000000E-01	 7.50000000E-01	 8.00000000E+00
	 5.00000000E-01	 1.12500000E+00	 8.00000000E+00
	 5.00000000E-01	 0.00000000E+00	 5.00000000E-01
	 2.50000000E-01	 0.00000000E+00	 1.00000000E+00
	 5.00000000E-01	 0.00000000E+00	 1.00000000E+00
	 7.50000000E-01	 0.00000000E+00	 1.00000000E+00
	 5.00000000E-01	 0.00000000E+00	 1.50000000E+00
	 2.50000000E-01	 0.00000000E+00	 2.00000000E+00
	 5.00000000E-01	 0.00000000E+00	 2.00000000E+00
	 7.50000000E-01	 0.00000000E+00	 2.00000000E+00
	 5.00000000E-01	 0.00000000E+00	 2.50000000E+00
	 2.50000000E-01	 0.00000000E+00	 3.00000000E+00
	 5.00000000E-01	 0.00000000E+00	 3.00000000E+00
	 7.50000000E-01	 0.00000000E+00	 3.00000000E+00
	 5.00000000E-01	 0.00000000E+00	 3.50000000E+00
	 2.50000000E-01	 0.00000000E+00	 4.00000000E+00
	 5.00000000E-01	 0.00000000E+00	 4.00000000E+00
	 7.50000000E-01	 0.00000000E+00	 4.00000000E+00
	 5.00000000E-01	 0.00000000E+00	 4.50000000E+00
	 2.50000000E-01	 0.00000000E+00	 5.00000000E+00
	 5.00000000E-01	 0.00000000E+00	 5.00000000E+00
	 7.50000000E-01	 0.00000000E+00	 5.00000000E+00
	 5.00000000E-01	 0.00000000E+00	 5.50000000E+00
	 2.50000000E-01	 0.00000000E+00	 6.00000000E+00
	 5.00000000E-01	 0.00000000E+00	 6.00000000E+00
	 7.50000000E-01	 0.00000000E+00	 6.00000000E+00
	 5.00000000E-01	 0.00000000E+00	 6.50000000E+00
	 2.50000000E-01	 0.00000000E+00	 7.00000000E+00
	 5.00000000E-01	 0.00000000E+00	 7.00000000E+00
	 7.50000000E-01	 0.00000000E+00	 7.00000000E+00
	 5.00000000E-01	 0.00000000E+00	 7.50000000E+00
	 1.00000000E+00	 7.50000000E-01	 5.00000000E-01
	 1.00000000E+00	 3.75000000E-01	 1.00000000E+00
	 1.00000000E+00	 7.50000000E-01	 1.00000000E+00
	 1.00000000E+00	 1.12500000E+00	 1.00000000E+00
	 1.00000000E+00	 7.50000000E-01	 1.50000000E+00
	 1.00000000E+00	 3.75000000E-01	 2.00000000E+00
	 1.00000000E+00	 7.50000000E-01	 2.00000000E+00
	 1.00000000E+00	 1.12500000E+00	 2.00000000E+00
	 1.00000000E+00	 7.50000000E-01	 2.50000000E+00
	 1.00000000E+00	 3.75000000E-01	 3.00000000E+00
	 1.00000000E+00	 7.50000000E-01	 3.00000000E+00
	 1.00000000E+00	 1.12500000E+00	 3.00000000E+00
	 1.00000000E+00	 7.50000000E-01	 3.50000000E+00
	 1.00000000E+00	 3.75000000E-01	 4.00000000E+00
	 1.00000000E+00	 7.50000000E-01	 4.00000000E+00
	 1.00000000E+00	 1.12500000E+00	 4.00000000E+00
	 1.00000000E+00	 7.50000000E-01	 4.50000000E+00
	 1.00000000E+00	 3.75000000E-01	 5.00000000E+00
	 1.00000000E+00	 7.50000000E-01	 5.00000000E+00
	 1.00000000E+00	 1.12500000E+00	 5.00000000E+00
	 1.00000000E+00	 7.50000000E-01	 5.50000000E+00
	 1.00000000E+00	 3.75000000E-01	 6.00000000E+00
	 1.00000000E+00	 7.50000000E-01	 6.00000000E+00
	 1.00000000E+00	 1.12500000E+00	 6.00000000E+00
	 1.00000000E+00	 7.50000000E-01	 6.50000000E+00
	 1.00000000E+00	 3.75000000E-01	 7.00000000E+00
	 1.00000000E+00	 7.50000000E-01	 7.00000000E+00
	 1.00000000E+00	 1.12500000E+00	 7.00000000E+00
	 1.00000000E+00	 7.50000000E-01	 7.50000000E+00
	 5.00000000E-01	 1.50000000E+00	 5.00000000E-01
	 7.50000000E-01	 1.50000000E+00	 1.00000000E+00
	 5.00000000E-01	 1.50000000E+00	 1.00000000E+00
	 2.50000000E-01	 1.50000000E+00	 1.00000000E+00
	 5.00000000E-01	 1.50000000E+00	 1.50000000E+00
	 7.50000000E-01	 1.50000000E+00	 2.00000000E+00
	 5.00000000E-01	 1.50000000E+00	 2.00000000E+00
	 2.50000000E-01	 1.50000000E+00	 2.00000000E+00
	 5.00000000E-01	 1.50000000E+00	 2.50000000E+00
	 7.50000000E-01	 1.50000000E+00	 3.00000000E+00
	 5.00000000E-01	 1.50000000E+00	 3.00000000E+00
	 2.50000000E-01	 1.50000000E+00	 3.00000000E+00
	 5.00000000E-01	 1.50000000E+00	 3.50000000E+00
	 7.50000000E-01	 1.50000000E+00	 4.00000000E+00
	 5.00000000E-01	 1.50000000E+00	 4.00000000E+00
	 2.50000000E-01	 1.50000000E+00	 4.00000000E+00
	 5.00000000E-01	 1.50000000E+00	 4.50000000E+00
	 7.50000000E-01	 1.50000000E+00	 5.00000000E+00
	 5.00000000E-01	 1.50000000E+00	 5.00000000E+00
	 2.50000000E-01	 1.50000000E+00	 5.00000000E+00
	 5.00000000E-01	 1.50000000E+00	 5.50000000E+00
	 7.50000000E-01	 1.50000000E+00	 6.00000000E+00
	 5.00000000E-01	 1.50000000E+00	 6.00000000E+00
	 2.50000000E-01	 1.50000000E+00	 6.00000000E+00
	 5.00000000E-01	 1.50000000E+00	 6.50000000E+00
	 7.50000000E-01	 1.50000000E+00	 7.00000000E+00
	 5.00000000E-01	 1.50000000E+00	 7.00000000E+00
	 2.50000000E-01	 1.50000000E+00	 7.00000000E+00
	 5.00000000E-01	 1.50000000E+00	 7.50000000E+00
	 0.00000000E+00	 7.50000000E-01	 5.00000000E-01
	 0.00000000E+00	 1.12500000E+00	 1.00000000E+00
	 0.00000000E+00	 7.50000000E-01	 1.00000000E+00
	 0.00000000E+00	 3.75000000E-01	 1.00000000E+00
	 0.00000000E+00	 7.50000000E-01	 1.50000000E+00
	 0.00000000E+00	 1.12500000E+00	 2.00000000E+00
	 0.00000000E+00	 7.50000000E-01	 2.00000000E+00
	 0.00000000E+00	 3.75000000E-01	 2.00000000E+00
	 0.00000000E+00	 7.50000000E-01	 2.50000000E+00
	 0.00000000E+00	 1.12500000E+00	 3.00000000E+00
	 0.00000000E+00	 7.50000000E-01	 3.00000000E+00
	 0.00000000E+00	 3.75000000E-01	 3.00000000E+00
	 0.00000000E+00	 7.50000000E-01	 3.50000000E+00
	 0.00000000E+00	 1.12500000E+00	 4.00000000E+00
	 0.00000000E+00	 7.50000000E-01	 4.00000000E+00
	 0.00000000E+00	 3.75000000E-01	 4.00000000E+00
	 0.00000000E+00	 7.50000000E-01	 4.50000000E+00
	 0.00000000E+00	 1.12500000E+00	 5.00000000E+00
	 0.00000000E+00	 7.50000000E-01	 5.00000000E+00
	 0.00000000E+00	 3.75000000E-01	 5.00000000E+00
	 0.00000000E+00	 7.50000000E-01	 5.50000000E+00
	 0.00000000E+00	 1.12500000E+00	 6.00000000E+00
	 0.00000000E+00	 7.50000000E-01	 6.00000000E+00
	 0.00000000E+00	 3.75000000E-01	 6.00000000E+00
	 0.00000000E+00	 7.50000000E-01	 6.50000000E+00
	 0.00000000E+00	 1.12500000E+00	 7.00000000E+00
	 0.00000000E+00	 7.50000000E-01	 7.00000000E+00
	 0.00000000E+00	 3.75000000E-01	 7.00000000E+00
	 0.00000000E+00	 7.50000000E-01	 7.50000000E+00
	 5.00000000E-01	 7.50000000E-01	 5.00000000E-01
	 5.00000000E-01	 3.75000000E-01	 1.00000000E+00
	 2.50000000E-01	 7.50000000E-01	 1.00000000E+00
	 5.00000000E-01	 7.50000000E-01	 1.00000000E+00
	 7.50000000E-01	 7.50000000E-01	 1.00000000E+00
	 5.00000000E-01	 1.12500000E+00	 1.00000000E+00
	 5.00000000E-01	 7.50000000E-01	 1.50000000E+00
	 5.00000000E-01	 3.75000000E-01	 2.00000000E+00
	 2.50000000E-01	 7.50000000E-01	 2.00000000E+00
	 5.00000000E-01	 7.50000000E-01	 2.00000000E+00
	 7.50000000E-01	 7.50000000E-01	 2.00000000E+00
	 5.00000000E-01	 1.12500000E+00	 2.00000000E+00
	 5.00000000E-01	 7.50000000E-01	 2.50000000E+00
	 5.00000000E-01	 3.75000000E-01	 3.00000000E+00
	 2.50000000E-01	 7.50000000E-01	 3.00000000E+00
	 5.00000000E-01	 7.50000000E-01	 3.00000000E+00
	 7.50000000E-01	 7.50000000E-01	 3.00000000E+00
	 5.00000000E-01	 1.12500000E+00	 3.00000000E+00
	 5.00000000E-01	 7.50000000E-01	 3.50000000E+00
	 5.00000000E-01	 3.75000000E-01	 4.00000000E+00
	 2.50000000E-01	 7.50000000E-01	 4.00000000E+00
	 5.00000000E-01	 7.50000000E-01	 4.00000000E+00
	 7.50000000E-01	 7.50000000E-01	 4.00000000E+00
	 5.00000000E-01	 1.12500000E+00	 4.00000000E+00
	 5.00000000E-01	 7.50000000E-01	 4.50000000E+00
	 5.00000000E-01	 3.75000000E-01	 5.00000000E+00
	 2.50000000E-01	 7.50000000E-01	 5.00000000E+00
	 5.00000000E-01	 7.50000000E-01	 5.00000000E+00
	 7.50000000E-01	 7.50000000E-01	 5.00000000E+00
	 5.00000000E-01	 1.12500000E+00	 5.00000000E+00
	 5.00000000E-01	 7.50000000E-01	 5.50000000E+00
	 5.00000000E-01	 3.75000000E-01	 6.00000000E+00
	 2.50000000E-01	 7.50000000E-01	 6.00000000E+00
	 5.00000000E-01	 7.50000000E-01	 6.00000000E+00
	 7.50000000E-01	 7.50000000E-01	 6.00000000E+00
	 5.00000000E-01	 1.12500000E+00	 6.00000000E+00
	 5.00000000E-01	 7.50000000E-01	 6.50000000E+00
	 5.00000000E-01	 3.75000000E-01	 7.00000000E+00
	 2.50000000E-01	 7.50000000E-01	 7.00000000E+00
	 5.00000000E-01	 7.50000000E-01	 7.00000000E+00
	 7.50000000E-01	 7.50000000E-01	 7.00000000E+00
	 5.00000000E-01	 1.12500000E+00	 7.00000000E+00
	 5.00000000E-01	 7.50000000E-01	 7.50000000E+00

CELLS 32 672
	20 0 9 94 18 60 104 221 191 8 92 93 19 103 219 220 192 61 102 218 189 
	20 9 1 12 94 104 33 133 221 10 11 95 92 105 132 222 219 102 32 131 218 
	20 18 94 15 3 191 221 162 78 93 96 16 17 220 223 163 190 189 218 160 77 
	20 94 12 2 15 221 133 63 162 95 13 14 96 222 134 161 223 218 131 62 160 
	20 60 104 221 191 58 108 227 195 103 219 220 192 107 225 226 196 59 106 224 193 
	20 104 33 133 221 108 35 137 227 105 132 222 219 109 136 228 225 106 34 135 224 
	20 191 221 162 78 195 227 166 80 220 223 163 190 226 229 167 194 193 224 164 79 
	20 221 133 63 162 227 137 65 166 222 134 161 223 228 138 165 229 224 135 64 164 
	20 58 108 227 195 56 112 233 199 107 225 226 196 111 231 232 200 57 110 230 197 
	20 108 35 137 227 112 37 141 233 109 136 228 225 113 140 234 231 110 36 139 230 
	20 195 227 166 80 199 233 170 82 226 229 167 194 232 235 171 198 197 230 168 81 
	20 227 137 65 166 233 141 67 170 228 138 165 229 234 142 169 235 230 139 66 168 
	20 56 112 233 199 54 116 239 203 111 231 232 200 115 237 238 204 55 114 236 201 
	20 112 37 141 233 116 39 145 239 113 140 234 231 117 144 240 237 114 38 143 236 
	20 199 233 170 82 203 239 174 84 232 235 171 198 238 241 175 202 201 236 172 83 
	20 233 141 67 170 239 145 69 174 234 142 169 235 240 146 173 241 236 143 68 172 
	20 54 116 239 203 52 120 245 207 115 237 238 204 119 243 244 208 53 118 242 205 
	20 116 39 145 239 120 41 149 245 117 144 240 237 121 148 246 243 118 40 147 242 
	20 203 239 174 84 207 245 178 86 238 241 175 202 244 247 179 206 205 242 176 85 
	20 239 145 69 174 245 149 71 178 240 146 173 241 246 150 177 247 242 147 70 176 
	20 52 120 245 207 50 124 251 211 119 243 244 208 123 249 250 212 51 122 248 209 
	20 120 41 149 245 124 43 153 251 121 148 246 243 125 152 252 249 122 42 151 248 
	20 207 245 178 86 211 251 182 88 244 247 179 206 250 253 183 210 209 248 180 87 
	20 245 149 71 178 251 153 73 182 246 150 177 247 252 154 181 253 248 151 72 180 
	20 50 124 251 211 48 128 257 215 123 249 250 212 127 255 256 216 49 126 254 213 
	20 124 43 153 251 128 45 157 257 125 152 252 249 129 156 258 255 126 44 155 254 
	20 211 251 182 88 215 257 186 90 250 253 183 210 256 259 187 214 213 254 184 89 
	20 251 153 73 182 257 157 75 186 252 154 181 253 258 158 185 259 254 155 74 184 
	20 48 128 257 215 4 21 99 30 127 255 256 216 20 97 98 31 47 130 260 217 
	20 128 45 157 257 21 5 24 99 129 156 258 255 22 23 100 97 130 46 159 260 
	20 215 257 186 90 30 99 27 7 256 259 187 214 98 101 28 29 217 260 188 91 
	20 257 157 75 186 99 24 6 27 258 158 185 259 100 25 26 101 260 159 76 188 

CELL_TYPES 32
	25
	25
	25
	25
	25
	25
	25
	25
	25
	25
	25
	25
	25
	25
	25
	25
	25
	25
	25
	25
	25
	25
	25
	25
	25
	25
	25
	25
	25
	25
	25
	25

POINT_DATA 261
FIELD U 1
	U 3 261 double
		 0.00000000E+00	 0.00000000E+00	 0.00000000E+00
		 0.00000000E+00	 0.00000000E+00	 0.00000000E+00
		 0.00000000E+00	 0.00000000E+00	 0.00000000E+00
		 0.00000000E+00	 0.00000000E+00	 0.00000000E+00
		-1.03393000E+01	 5.46592000E+03	 3.50618000E+03
		 1.03393000E+01	 5.46592000E+03	 3.50618000E+03
		-1.03393000E+01	 5.46592000E+03	-3.50618000E+03
		 1.03393000E+01	 5.46592000E+03	-3.50618000E+03
		 0.00000000E+00	 0.00000000E+00	 0.00000000E+00
		 0.00000000E+00	 0.00000000E+00	 0.00000000E+00
		 0.00000000E+00	 0.00000000E+00	 0.00000000E+00
		 0.00000000E+00	 0.00000000E+00	 0.00000000E+00
		 0.00000000E+00	 0.00000000E+00	 0.00000000E+00
		 0.00000000E+00	 0.00000000E+00	 0.00000000E+00
		 0.00000000E+00	 0.00000000E+00	 0.00000000E+00
		 0.00000000E+00	 0.00000000E+00	 0.00000000E+00
		 0.00000000E+00	 0.00000000E+00	 0.00000000E+00
		 0.00000000E+00	 0.00000000E+00	 0.00000000E+00
		 0.00000000E+00	 0.00000000E+00	 0.00000000E+00
		 0.00000000E+00	 0.00000000E+00	 0.00000000E+00
		-4.73030000E+00	 5.46763000E+03	 3.52562000E+03
		 0.00000000E+00	 5.47167000E+03	 3.53175000E+03
		 4.73030000E+00	 5.46763000E+03	 3.52562000E+03
		 7.96500000E+00	 5.44338000E+03	 1.72216000E+03
		 0.00000000E+00	 5.40969000E+03	 0.00000000E+00
		-7.96500000E+00	 5.44338000E+03	-1.72216000E+03
		-4.73030000E+00	 5.46763000E+03	-3.52562000E+03
		 0.00000000E+00	 5.47167000E+03	-3.53175000E+03
		 4.73030000E+00	 5.46763000E+03	-3.52562000E+03
		 7.96500000E+00	 5.44338000E+03	-1.72216000E+03
		 0.00000000E+00	 5.40969000E+03	 0.00000000E+00
		-7.96500000E+00	 5.44338000E+03	 1.72216000E+03
		-2.39650000E+02	 1.21047000E+03	 8.81999000E+02
		 6.93564000E+01	 2.68902000E+03	 1.22691000E+03
		 1.75195000E+02	 4.07759000E+03	 8.62855000E+02
		 2.71022000E+02	 4.72736000E+03	 1.04802000E+02
		 2.71019000E+02	 4.57318000E+03	-8.07272000E+02
		 2.11635000E+02	 3.52706000E+03	-1.63951000E+03
		 9.15949000E+01	 1.82041000E+03	-2.14088000E+03
		-5.64118000E+01	-2.03131000E+02	-2.22084000E+03
		-2.00847000E+02	-2.08739000E+03	-1.77071000E+03
		-3.07883000E+02	-3.40351000E+03	-9.22524000E+02
		-3.57672000E+02	-3.84522000E+03	 2.06900000E+02
		-3.39633000E+02	-3.26377000E+03	 1.39037000E+03
		-2.64754000E+02	-1.74773000E+03	 2.39301000E+03
		-1.56270000E+02	 4.60545000E+02	 3.11595000E+03
		-5.80095000E+01	 2.98029000E+03	 3.43996000E+03
		 5.80095000E+01	 2.98029000E+03	 3.43996000E+03
		 1.56270000E+02	 4.60545000E+02	 3.11595000E+03
		 2.64754000E+02	-1.74773000E+03	 2.39301000E+03
		 3.39633000E+02	-3.26377000E+03	 1.39037000E+03
		 3.57672000E+02	-3.84522000E+03	 2.06900000E+02
		 3.07883000E+02	-3.40351000E+03	-9.22524000E+02
		 2.00847000E+02	-2.08739000E+03	-1.77071000E+03
		 5.64118000E+01	-2.03131000E+02	-2.22084000E+03
		-9.15949000E+01	 1.82041000E+03	-2.14088000E+03
		-2.11635000E+02	 3.52706000E+03	-1.63951000E+03
		-2.71019000E+02	 4.57318000E+03	-8.07272000E+02
		-2.71022000E+02	 4.72736000E+03	 1.04802000E+02
		-1.75195000E+02	 4.07759000E+03	 8.62855000E+02
		-6.93564000E+01	 2.68902000E+03	 1.22691000E+03
		 2.39650000E+02	 1.21047000E+03	 8.81999000E+02
		 2.39650000E+02	 1.21047000E+03	-8.81999000E+02
		-6.93564000E+01	 2.68902000E+03	-1.22691000E+03
		-1.75195000E+02	 4.07759000E+03	-8.62855000E+02
		-2.71022000E+02	 4.72736000E+03	-1.04802000E+02
		-2.71019000E+02	 4.57318000E+03	 8.07272000E+02
		-2.11635000E+02	 3.52706000E+03	 1.63951000E+03
		-9.15949000E+01	 1.82041000E+03	 2.14088000E+03
		 5.64118000E+01	-2.03131000E+02	 2.22084000E+03
		 2.00847000E+02	-2.08739000E+03	 1.77071000E+03
		 3.07883000E+02	-3.40351000E+03	 9.22524000E+02
		 3.57672000E+02	-3.84522000E+03	-2.06900000E+02
		 3.39633000E+02	-3.26377000E+03	-1.39037000E+03
		 2.64754000E+02	-1.74773000E+03	-2.39301000E+03
		 1.56270000E+02	 4.60545000E+02	-3.11595000E+03
		 5.80095000E+01	 2.98029000E+03	-3.43996000E+03
		-2.39650000E+02	 1.21047000E+03	-8.81999000E+02
		 6.93564000E+01	 2.68902000E+03	-1.22691000E+03
		 1.75195000E+02	 4.07759000E+03	-8.62855000E+02
		 2.71022000E+02	 4.72736000E+03	-1.04802000E+02
		 2.71019000E+02	 4.57318000E+03	 8.07272000E+02
		 2.11635000E+02	 3.52706000E+03	 1.63951000E+03
		 9.15949000E+01	 1.82041000E+03	 2.14088000E+03
		-5.64118000E+01	-2.03131000E+02	 2.22084000E+03
		-2.00847000E+02	-2.08739000E+03	 1.77071000E+03
		-3.07883000E+02	-3.40351000E+03	 9.22524000E+02
		-3.57672000E+02	-3.84522000E+03	-2.06900000E+02
		-3.39633000E+02	-3.26377000E+03	-1.39037000E+03
		-2.64754000E+02	-1.74773000E+03	-2.39301000E+03
		-1.56270000E+02	 4.60545000E+02	-3.11595000E+03
		-5.80095000E+01	 2.98029000E+03	-3.43996000E+03
		 0.00000000E+00	 0.00000000E+00	 0.00000000E+00
		 0.00000000E+00	 0.00000000E+00	 0.00000000E+00
		 0.00000000E+00	 0.00000000E+00	 0.00000000E+00
		 0.00000000E+00	 0.00000000E+00	 0.00000000E+00
		 0.00000000E+00	 0.00000000E+00	 0.00000000E+00
		 0.00000000E+00	 5.45110000E+03	 1.73974000E+03
		 0.00000000E+00	 5.41107000E+03	 0.00000000E+00
		 0.00000000E+00	 5.41850000E+03	 0.00000000E+00
		 0.00000000E+00	 5.41107000E+03	 0.00000000E+00
		 0.00000000E+00	 5.45110000E+03	-1.73974000E+03
		 0.00000000E+00	 1.27703000E+03	 8.93820000E+02
		-3.43535000E+01	 2.69508000E+03	 1.29719000E+03
		 0.00000000E+00	 2.68665000E+03	 1.30969000E+03
		 3.43535000E+01	 2.69508000E+03	 1.29719000E+03
		 0.00000000E+00	 4.01045000E+03	 8.95501000E+02
		-1.36860000E+02	 4.65420000E+03	 1.18583000E+02
		 0.00000000E+00	 4.63985000E+03	 1.24969000E+02
		 1.36860000E+02	 4.65420000E+03	 1.18583000E+02
		 0.00000000E+00	 4.47639000E+03	-8.15673000E+02
		-1.06310000E+02	 3.47266000E+03	-1.66456000E+03
		 0.00000000E+00	 3.45691000E+03	-1.66605000E+03
		 1.06310000E+02	 3.47266000E+03	-1.66456000E+03
		 0.00000000E+00	 1.78777000E+03	-2.18266000E+03
		 2.82576000E+01	-1.88569000E+02	-2.26340000E+03
		 0.00000000E+00	-1.83297000E+02	-2.26502000E+03
		-2.82576000E+01	-1.88569000E+02	-2.26340000E+03
		 0.00000000E+00	-2.01877000E+03	-1.80985000E+03
		 1.54703000E+02	-3.32190000E+03	-9.45156000E+02
		 0.00000000E+00	-3.29769000E+03	-9.46482000E+02
		-1.54703000E+02	-3.32190000E+03	-9.45156000E+02
		 0.00000000E+00	-3.72248000E+03	 2.01856000E+02
		 1.70638000E+02	-3.17439000E+03	 1.40395000E+03
		 0.00000000E+00	-3.14743000E+03	 1.40382000E+03
		-1.70638000E+02	-3.17439000E+03	 1.40395000E+03
		 0.00000000E+00	-1.65824000E+03	 2.42163000E+03
		 7.83052000E+01	 4.99528000E+02	 3.14675000E+03
		 0.00000000E+00	 5.13426000E+02	 3.14762000E+03
		-7.83052000E+01	 4.99528000E+02	 3.14675000E+03
		 0.00000000E+00	 2.99890000E+03	 3.46773000E+03
		 0.00000000E+00	 1.10777000E+03	 0.00000000E+00
		 3.68276000E+01	 2.71418000E+03	 3.72883000E+02
		 0.00000000E+00	 2.77141000E+03	 0.00000000E+00
		-3.68276000E+01	 2.71418000E+03	-3.72883000E+02
		 0.00000000E+00	 4.11885000E+03	 0.00000000E+00
		 1.28066000E+02	 4.87600000E+03	 3.24417000E+00
		 0.00000000E+00	 4.90081000E+03	 0.00000000E+00
		-1.28066000E+02	 4.87600000E+03	-3.24417000E+00
		 0.00000000E+00	 4.71914000E+03	 0.00000000E+00
		 1.02884000E+02	 3.63456000E+03	-7.25462000E+02
		 0.00000000E+00	 3.65859000E+03	 0.00000000E+00
		-1.02884000E+02	 3.63456000E+03	 7.25462000E+02
		 0.00000000E+00	 1.86466000E+03	 0.00000000E+00
		-2.81545000E+01	-2.33489000E+02	-9.53730000E+02
		 0.00000000E+00	-2.43137000E+02	 0.00000000E+00
		 2.81545000E+01	-2.33489000E+02	 9.53730000E+02
		 0.00000000E+00	-2.21081000E+03	 0.00000000E+00
		-1.50200000E+02	-3.56595000E+03	-3.75469000E+02
		 0.00000000E+00	-3.60394000E+03	 0.00000000E+00
		 1.50200000E+02	-3.56595000E+03	 3.75469000E+02
		 0.00000000E+00	-4.06226000E+03	 0.00000000E+00
		-1.66129000E+02	-3.44549000E+03	 6.48514000E+02
		 0.00000000E+00	-3.49145000E+03	 0.00000000E+00
		 1.66129000E+02	-3.44549000E+03	-6.48514000E+02
		 0.00000000E+00	-1.92393000E+03	 0.00000000E+00
		-7.94719000E+01	 3.67101000E+02	 1.45686000E+03
		 0.00000000E+00	 3.30949000E+02	 0.00000000E+00
		 7.94719000E+01	 3.67101000E+02	-1.45686000E+03
		 0.00000000E+00	 2.92211000E+03	 0.00000000E+00
		 0.00000000E+00	 1.27703000E+03	-8.93820000E+02
		-3.43535000E+01	 2.69508000E+03	-1.29719000E+03
		 0.00000000E+00	 2.68665000E+03	-1.30969000E+03
		 3.43535000E+01	 2.69508000E+03	-1.29719000E+03
		 0.00000000E+00	 4.01045000E+03	-8.95501000E+02
		-1.36860000E+02	 4.65420000E+03	-1.18583000E+02
		 0.00000000E+00	 4.63985000E+03	-1.24969000E+02
		 1.36860000E+02	 4.65420000E+03	-1.18583000E+02
		 0.00000000E+00	 4.47639000E+03	 8.15673000E+02
		-1.06310000E+02	 3.47266000E+03	 1.66456000E+03
		 0.00000000E+00	 3.45691000E+03	 1.66605000E+03
		 1.06310000E+02	 3.47266000E+03	 1.66456000E+03
		 0.00000000E+00	 1.78777000E+03	 2.18266000E+03
		 2.82576000E+01	-1.88569000E+02	 2.26340000E+03
		 0.00000000E+00	-1.83297000E+02	 2.26502000E+03
		-2.82576000E+01	-1.88569000E+02	 2.26340000E+03
		 0.00000000E+00	-2.01877000E+03	 1.80985000E+03
		 1.54703000E+02	-3.32190000E+03	 9.45156000E+02
		 0.00000000E+00	-3.29769000E+03	 9.46482000E+02
		-1.54703000E+02	-3.32190000E+03	 9.45156000E+02
		 0.00000000E+00	-3.72248000E+03	-2.01856000E+02
		 1.70638000E+02	-3.17439000E+03	-1.40395000E+03
		 0.00000000E+00	-3.14743000E+03	-1.40382000E+03
		-1.70638000E+02	-3.17439000E+03	-1.40395000E+03
		 0.00000000E+00	-1.65824000E+03	-2.42163000E+03
		 7.83052000E+01	 4.99528000E+02	-3.14675000E+03
		 0.00000000E+00	 5.13426000E+02	-3.14762000E+03
		-7.83052000E+01	 4.99528000E+02	-3.14675000E+03
		 0.00000000E+00	 2.99890000E+03	-3.46773000E+03
		 0.00000000E+00	 1.10777000E+03	 0.00000000E+00
		 3.68276000E+01	 2.71418000E+03	-3.72883000E+02
		 0.00000000E+00	 2.77141000E+03	 0.00000000E+00
		-3.68276000E+01	 2.71418000E+03	 3.72883000E+02
		 0.00000000E+00	 4.11885000E+03	 0.00000000E+00
		 1.28066000E+02	 4.87600000E+03	-3.24417000E+00
		 0.00000000E+00	 4.90081000E+03	 0.00000000E+00
		-1.28066000E+02	 4.87600000E+03	 3.24417000E+00
		 0.00000000E+00	 4.71914000E+03	 0.00000000E+00
		 1.02884000E+02	 3.63456000E+03	 7.25462000E+02
		 0.00000000E+00	 3.65859000E+03	 0.00000000E+00
		-1.02884000E+02	 3.63456000E+03	-7.25462000E+02
		 0.00000000E+00	 1.86466000E+03	 0.00000000E+00
		-2.81545000E+01	-2.33489000E+02	 9.53730000E+02
		 0.00000000E+00	-2.43137000E+02	 0.00000000E+00
		 2.81545000E+01	-2.33489000E+02	-9.53730000E+02
		 0.00000000E+00	-2.21081000E+03	 0.00000000E+00
		-1.50200000E+02	-3.56595000E+03	 3.75469000E+02
		 0.00000000E+00	-3.60394000E+03	 0.00000000E+00
		 1.50200000E+02	-3.56595000E+03	-3.75469000E+02
		 0.00000000E+00	-4.06226000E+03	 0.00000000E+00
		-1.66129000E+02	-3.44549000E+03	-6.48514000E+02
		 0.00000000E+00	-3.49145000E+03	 0.00000000E+00
		 1.66129000E+02	-3.44549000E+03	 6.48514000E+02
		 0.00000000E+00	-1.92393000E+03	 0.00000000E+00
		-7.94719000E+01	 3.67101000E+02	-1.45686000E+03
		 0.00000000E+00	 3.30949000E+02	 0.00000000E+00
		 7.94719000E+01	 3.67101000E+02	 1.45686000E+03
		 0.00000000E+00	 2.92211000E+03	 0.00000000E+00
		 0.00000000E+00	 1.15716000E+03	 0.00000000E+00
		 0.00000000E+00	 2.70750000E+03	 4.34161000E+02
		 0.00000000E+00	 2.77326000E+03	 0.00000000E+00
		 0.00000000E+00	 2.76349000E+03	 0.00000000E+00
		 0.00000000E+00	 2.77326000E+03	 0.00000000E+00
		 0.00000000E+00	 2.70750000E+03	-4.34161000E+02
		 0.00000000E+00	 4.06789000E+03	 0.00000000E+00
		 0.00000000E+00	 4.79248000E+03	 1.70474000E+01
		 0.00000000E+00	 4.83460000E+03	 0.00000000E+00
		 0.00000000E+00	 4.81729000E+03	 0.00000000E+00
		 0.00000000E+00	 4.83460000E+03	 0.00000000E+00
		 0.00000000E+00	 4.79248000E+03	-1.70474000E+01
		 0.00000000E+00	 4.63649000E+03	 0.00000000E+00
		 0.00000000E+00	 3.56724000E+03	-7.47977000E+02
		 0.00000000E+00	 3.60800000E+03	 0.00000000E+00
		 0.00000000E+00	 3.59216000E+03	 0.00000000E+00
		 0.00000000E+00	 3.60800000E+03	 0.00000000E+00
		 0.00000000E+00	 3.56724000E+03	 7.47977000E+02
		 0.00000000E+00	 1.83745000E+03	 0.00000000E+00
		 0.00000000E+00	-2.14517000E+02	-9.91363000E+02
		 0.00000000E+00	-2.29432000E+02	 0.00000000E+00
		 0.00000000E+00	-2.24949000E+02	 0.00000000E+00
		 0.00000000E+00	-2.29432000E+02	 0.00000000E+00
		 0.00000000E+00	-2.14517000E+02	 9.91363000E+02
		 0.00000000E+00	-2.14716000E+03	 0.00000000E+00
		 0.00000000E+00	-3.46518000E+03	-3.95643000E+02
		 0.00000000E+00	-3.52883000E+03	 0.00000000E+00
		 0.00000000E+00	-3.50613000E+03	 0.00000000E+00
		 0.00000000E+00	-3.52883000E+03	 0.00000000E+00
		 0.00000000E+00	-3.46518000E+03	 3.95643000E+02
		 0.00000000E+00	-3.94937000E+03	 0.00000000E+00
		 0.00000000E+00	-3.33376000E+03	 6.60416000E+02
		 0.00000000E+00	-3.40808000E+03	 0.00000000E+00
		 0.00000000E+00	-3.38220000E+03	 0.00000000E+00
		 0.00000000E+00	-3.40808000E+03	 0.00000000E+00
		 0.00000000E+00	-3.33376000E+03	-6.60416000E+02
		 0.00000000E+00	-1.83863000E+03	 0.00000000E+00
		 0.00000000E+00	 4.22049000E+02	 1.48395000E+03
		 0.00000000E+00	 3.72510000E+02	 0.00000000E+00
		 0.00000000E+00	 3.87204000E+02	 0.00000000E+00
		 0.00000000E+00	 3.72510000E+02	 0.00000000E+00
		 0.00000000E+00	 4.22049000E+02	-1.48395000E+03
		 0.00000000E+00	 2.94189000E+03	 0.00000000E+00
