<?xml version="1.0"?>
<VTKFile type="UnstructuredGrid" version="0.1" byte_order="LittleEndian">
	<UnstructuredGrid>
		<Piece NumberOfPoints="261" NumberOfCells="32">
			<Points>
				<DataArray type="Float64" NumberOfComponents="3" format="ascii">
					 0.00000000E+00	 0.00000000E+00	 0.00000000E+00
					 1.00000000E+00	 0.00000000E+00	 0.00000000E+00
					 1.00000000E+00	 1.00000000E+00	 0.00000000E+00
					 0.00000000E+00	 1.00000000E+00	 0.00000000E+00
					 0.00000000E+00	 0.00000000E+00	 8.00000000E+00
					 1.00000000E+00	 0.00000000E+00	 8.00000000E+00
					 1.00000000E+00	 1.00000000E+00	 8.00000000E+00
					 0.00000000E+00	 1.00000000E+00	 8.00000000E+00
					 2.50000000E-01	 0.00000000E+00	 0.00000000E+00
					 5.00000000E-01	 0.00000000E+00	 0.00000000E+00
					 7.50000000E-01	 0.00000000E+00	 0.00000000E+00
					 1.00000000E+00	 2.50000000E-01	 0.00000000E+00
					 1.00000000E+00	 5.00000000E-01	 0.00000000E+00
					 1.00000000E+00	 7.50000000E-01	 0.00000000E+00
					 7.50000000E-01	 1.00000000E+00	 0.00000000E+00
					 5.00000000E-01	 1.00000000E+00	 0.00000000E+00
					 2.50000000E-01	 1.00000000E+00	 0.00000000E+00
					 0.00000000E+00	 7.50000000E-01	 0.00000000E+00
					 0.00000000E+00	 5.00000000E-01	 0.00000000E+00
					 0.00000000E+00	 2.50000000E-01	 0.00000000E+00
					 2.50000000E-01	 0.00000000E+00	 8.00000000E+00
					 5.00000000E-01	 0.00000000E+00	 8.00000000E+00
					 7.50000000E-01	 0.00000000E+00	 8.00000000E+00
					 1.00000000E+00	 2.50000000E-01	 8.00000000E+00
					 1.00000000E+00	 5.00000000E-01	 8.00000000E+00
					 1.00000000E+00	 7.50000000E-01	 8.00000000E+00
					 7.50000000E-01	 1.00000000E+00	 8.00000000E+00
					 5.00000000E-01	 1.00000000E+00	 8.00000000E+00
					 2.50000000E-01	 1.00000000E+00	 8.00000000E+00
					 0.00000000E+00	 7.50000000E-01	 8.00000000E+00
					 0.00000000E+00	 5.00000000E-01	 8.00000000E+00
					 0.00000000E+00	 2.50000000E-01	 8.00000000E+00
					 1.00000000E+00	 0.00000000E+00	 5.00000000E-01
					 1.00000000E+00	 0.00000000E+00	 1.00000000E+00
					 1.00000000E+00	 0.00000000E+00	 1.50000000E+00
					 1.00000000E+00	 0.00000000E+00	 2.00000000E+00
					 1.00000000E+00	 0.00000000E+00	 2.50000000E+00
					 1.00000000E+00	 0.00000000E+00	 3.00000000E+00
					 1.00000000E+00	 0.00000000E+00	 3.50000000E+00
					 1.00000000E+00	 0.00000000E+00	 4.00000000E+00
					 1.00000000E+00	 0.00000000E+00	 4.50000000E+00
					 1.00000000E+00	 0.00000000E+00	 5.00000000E+00
					 1.00000000E+00	 0.00000000E+00	 5.50000000E+00
					 1.00000000E+00	 0.00000000E+00	 6.00000000E+00
					 1.00000000E+00	 0.00000000E+00	 6.50000000E+00
					 1.00000000E+00	 0.00000000E+00	 7.00000000E+00
					 1.00000000E+00	 0.00000000E+00	 7.50000000E+00
					 0.00000000E+00	 0.00000000E+00	 7.50000000E+00
					 0.00000000E+00	 0.00000000E+00	 7.00000000E+00
					 0.00000000E+00	 0.00000000E+00	 6.50000000E+00
					 0.00000000E+00	 0.00000000E+00	 6.00000000E+00
					 0.00000000E+00	 0.00000000E+00	 5.50000000E+00
					 0.00000000E+00	 0.00000000E+00	 5.00000000E+00
					 0.00000000E+00	 0.00000000E+00	 4.50000000E+00
					 0.00000000E+00	 0.00000000E+00	 4.00000000E+00
					 0.00000000E+00	 0.00000000E+00	 3.50000000E+00
					 0.00000000E+00	 0.00000000E+00	 3.00000000E+00
					 0.00000000E+00	 0.00000000E+00	 2.50000000E+00
					 0.00000000E+00	 0.00000000E+00	 2.00000000E+00
					 0.00000000E+00	 0.00000000E+00	 1.50000000E+00
					 0.00000000E+00	 0.00000000E+00	 1.00000000E+00
					 0.00000000E+00	 0.00000000E+00	 5.00000000E-01
					 1.00000000E+00	 1.00000000E+00	 5.00000000E-01
					 1.00000000E+00	 1.00000000E+00	 1.00000000E+00
					 1.00000000E+00	 1.00000000E+00	 1.50000000E+00
					 1.00000000E+00	 1.00000000E+00	 2.00000000E+00
					 1.00000000E+00	 1.00000000E+00	 2.50000000E+00
					 1.00000000E+00	 1.00000000E+00	 3.00000000E+00
					 1.00000000E+00	 1.00000000E+00	 3.50000000E+00
					 1.00000000E+00	 1.00000000E+00	 4.00000000E+00
					 1.00000000E+00	 1.00000000E+00	 4.50000000E+00
					 1.00000000E+00	 1.00000000E+00	 5.00000000E+00
					 1.00000000E+00	 1.00000000E+00	 5.50000000E+00
					 1.00000000E+00	 1.00000000E+00	 6.00000000E+00
					 1.00000000E+00	 1.00000000E+00	 6.50000000E+00
					 1.00000000E+00	 1.00000000E+00	 7.00000000E+00
					 1.00000000E+00	 1.00000000E+00	 7.50000000E+00
					 0.00000000E+00	 1.00000000E+00	 5.00000000E-01
					 0.00000000E+00	 1.00000000E+00	 1.00000000E+00
					 0.00000000E+00	 1.00000000E+00	 1.50000000E+00
					 0.00000000E+00	 1.00000000E+00	 2.00000000E+00
					 0.00000000E+00	 1.00000000E+00	 2.50000000E+00
					 0.00000000E+00	 1.00000000E+00	 3.00000000E+00
					 0.00000000E+00	 1.00000000E+00	 3.50000000E+00
					 0.00000000E+00	 1.00000000E+00	 4.00000000E+00
					 0.00000000E+00	 1.00000000E+00	 4.50000000E+00
					 0.00000000E+00	 1.00000000E+00	 5.00000000E+00
					 0.00000000E+00	 1.00000000E+00	 5.50000000E+00
					 0.00000000E+00	 1.00000000E+00	 6.00000000E+00
					 0.00000000E+00	 1.00000000E+00	 6.50000000E+00
					 0.00000000E+00	 1.00000000E+00	 7.00000000E+00
					 0.00000000E+00	 1.00000000E+00	 7.50000000E+00
					 5.00000000E-01	 2.50000000E-01	 0.00000000E+00
					 2.50000000E-01	 5.00000000E-01	 0.00000000E+00
					 5.00000000E-01	 5.00000000E-01	 0.00000000E+00
					 7.50000000E-01	 5.00000000E-01	 0.00000000E+00
					 5.00000000E-01	 7.50000000E-01	 0.00000000E+00
					 5.00000000E-01	 2.50000000E-01	 8.00000000E+00
					 2.50000000E-01	 5.00000000E-01	 8.00000000E+00
					 5.00000000E-01	 5.00000000E-01	 8.00000000E+00
					 7.50000000E-01	 5.00000000E-01	 8.00000000E+00
					 5.00000000E-01	 7.50000000E-01	 8.00000000E+00
					 5.00000000E-01	 0.00000000E+00	 5.00000000E-01
					 2.50000000E-01	 0.00000000E+00	 1.00000000E+00
					 5.00000000E-01	 0.00000000E+00	 1.00000000E+00
					 7.50000000E-01	 0.00000000E+00	 1.00000000E+00
					 5.00000000E-01	 0.00000000E+00	 1.50000000E+00
					 2.50000000E-01	 0.00000000E+00	 2.00000000E+00
					 5.00000000E-01	 0.00000000E+00	 2.00000000E+00
					 7.50000000E-01	 0.00000000E+00	 2.00000000E+00
					 5.00000000E-01	 0.00000000E+00	 2.50000000E+00
					 2.50000000E-01	 0.00000000E+00	 3.00000000E+00
					 5.00000000E-01	 0.00000000E+00	 3.00000000E+00
					 7.50000000E-01	 0.00000000E+00	 3.00000000E+00
					 5.00000000E-01	 0.00000000E+00	 3.50000000E+00
					 2.50000000E-01	 0.00000000E+00	 4.00000000E+00
					 5.00000000E-01	 0.00000000E+00	 4.00000000E+00
					 7.50000000E-01	 0.00000000E+00	 4.00000000E+00
					 5.00000000E-01	 0.00000000E+00	 4.50000000E+00
					 2.50000000E-01	 0.00000000E+00	 5.00000000E+00
					 5.00000000E-01	 0.00000000E+00	 5.00000000E+00
					 7.50000000E-01	 0.00000000E+00	 5.00000000E+00
					 5.00000000E-01	 0.00000000E+00	 5.50000000E+00
					 2.50000000E-01	 0.00000000E+00	 6.00000000E+00
					 5.00000000E-01	 0.00000000E+00	 6.00000000E+00
					 7.50000000E-01	 0.00000000E+00	 6.00000000E+00
					 5.00000000E-01	 0.00000000E+00	 6.50000000E+00
					 2.50000000E-01	 0.00000000E+00	 7.00000000E+00
					 5.00000000E-01	 0.00000000E+00	 7.00000000E+00
					 7.50000000E-01	 0.00000000E+00	 7.00000000E+00
					 5.00000000E-01	 0.00000000E+00	 7.50000000E+00
					 1.00000000E+00	 5.00000000E-01	 5.00000000E-01
					 1.00000000E+00	 2.50000000E-01	 1.00000000E+00
					 1.00000000E+00	 5.00000000E-01	 1.00000000E+00
					 1.00000000E+00	 7.50000000E-01	 1.00000000E+00
					 1.00000000E+00	 5.00000000E-01	 1.50000000E+00
					 1.00000000E+00	 2.50000000E-01	 2.00000000E+00
					 1.00000000E+00	 5.00000000E-01	 2.00000000E+00
					 1.00000000E+00	 7.50000000E-01	 2.00000000E+00
					 1.00000000E+00	 5.00000000E-01	 2.50000000E+00
					 1.00000000E+00	 2.50000000E-01	 3.00000000E+00
					 1.00000000E+00	 5.00000000E-01	 3.00000000E+00
					 1.00000000E+00	 7.50000000E-01	 3.00000000E+00
					 1.00000000E+00	 5.00000000E-01	 3.50000000E+00
					 1.00000000E+00	 2.50000000E-01	 4.00000000E+00
					 1.00000000E+00	 5.00000000E-01	 4.00000000E+00
					 1.00000000E+00	 7.50000000E-01	 4.00000000E+00
					 1.00000000E+00	 5.00000000E-01	 4.50000000E+00
					 1.00000000E+00	 2.50000000E-01	 5.00000000E+00
					 1.00000000E+00	 5.00000000E-01	 5.00000000E+00
					 1.00000000E+00	 7.50000000E-01	 5.00000000E+00
					 1.00000000E+00	 5.00000000E-01	 5.50000000E+00
					 1.00000000E+00	 2.50000000E-01	 6.00000000E+00
					 1.00000000E+00	 5.00000000E-01	 6.00000000E+00
					 1.00000000E+00	 7.50000000E-01	 6.00000000E+00
					 1.00000000E+00	 5.00000000E-01	 6.50000000E+00
					 1.00000000E+00	 2.50000000E-01	 7.00000000E+00
					 1.00000000E+00	 5.00000000E-01	 7.00000000E+00
					 1.00000000E+00	 7.50000000E-01	 7.00000000E+00
					 1.00000000E+00	 5.00000000E-01	 7.50000000E+00
					 5.00000000E-01	 1.00000000E+00	 5.00000000E-01
					 7.50000000E-01	 1.00000000E+00	 1.00000000E+00
					 5.00000000E-01	 1.00000000E+00	 1.00000000E+00
					 2.50000000E-01	 1.00000000E+00	 1.00000000E+00
					 5.00000000E-01	 1.00000000E+00	 1.50000000E+00
					 7.50000000E-01	 1.00000000E+00	 2.00000000E+00
					 5.00000000E-01	 1.00000000E+00	 2.00000000E+00
					 2.50000000E-01	 1.00000000E+00	 2.00000000E+00
					 5.00000000E-01	 1.00000000E+00	 2.50000000E+00
					 7.50000000E-01	 1.00000000E+00	 3.00000000E+00
					 5.00000000E-01	 1.00000000E+00	 3.00000000E+00
					 2.50000000E-01	 1.00000000E+00	 3.00000000E+00
					 5.00000000E-01	 1.00000000E+00	 3.50000000E+00
					 7.50000000E-01	 1.00000000E+00	 4.00000000E+00
					 5.00000000E-01	 1.00000000E+00	 4.00000000E+00
					 2.50000000E-01	 1.00000000E+00	 4.00000000E+00
					 5.00000000E-01	 1.00000000E+00	 4.50000000E+00
					 7.50000000E-01	 1.00000000E+00	 5.00000000E+00
					 5.00000000E-01	 1.00000000E+00	 5.00000000E+00
					 2.50000000E-01	 1.00000000E+00	 5.00000000E+00
					 5.00000000E-01	 1.00000000E+00	 5.50000000E+00
					 7.50000000E-01	 1.00000000E+00	 6.00000000E+00
					 5.00000000E-01	 1.00000000E+00	 6.00000000E+00
					 2.50000000E-01	 1.00000000E+00	 6.00000000E+00
					 5.00000000E-01	 1.00000000E+00	 6.50000000E+00
					 7.50000000E-01	 1.00000000E+00	 7.00000000E+00
					 5.00000000E-01	 1.00000000E+00	 7.00000000E+00
					 2.50000000E-01	 1.00000000E+00	 7.00000000E+00
					 5.00000000E-01	 1.00000000E+00	 7.50000000E+00
					 0.00000000E+00	 5.00000000E-01	 5.00000000E-01
					 0.00000000E+00	 7.50000000E-01	 1.00000000E+00
					 0.00000000E+00	 5.00000000E-01	 1.00000000E+00
					 0.00000000E+00	 2.50000000E-01	 1.00000000E+00
					 0.00000000E+00	 5.00000000E-01	 1.50000000E+00
					 0.00000000E+00	 7.50000000E-01	 2.00000000E+00
					 0.00000000E+00	 5.00000000E-01	 2.00000000E+00
					 0.00000000E+00	 2.50000000E-01	 2.00000000E+00
					 0.00000000E+00	 5.00000000E-01	 2.50000000E+00
					 0.00000000E+00	 7.50000000E-01	 3.00000000E+00
					 0.00000000E+00	 5.00000000E-01	 3.00000000E+00
					 0.00000000E+00	 2.50000000E-01	 3.00000000E+00
					 0.00000000E+00	 5.00000000E-01	 3.50000000E+00
					 0.00000000E+00	 7.50000000E-01	 4.00000000E+00
					 0.00000000E+00	 5.00000000E-01	 4.00000000E+00
					 0.00000000E+00	 2.50000000E-01	 4.00000000E+00
					 0.00000000E+00	 5.00000000E-01	 4.50000000E+00
					 0.00000000E+00	 7.50000000E-01	 5.00000000E+00
					 0.00000000E+00	 5.00000000E-01	 5.00000000E+00
					 0.00000000E+00	 2.50000000E-01	 5.00000000E+00
					 0.00000000E+00	 5.00000000E-01	 5.50000000E+00
					 0.00000000E+00	 7.50000000E-01	 6.00000000E+00
					 0.00000000E+00	 5.00000000E-01	 6.00000000E+00
					 0.00000000E+00	 2.50000000E-01	 6.00000000E+00
					 0.00000000E+00	 5.00000000E-01	 6.50000000E+00
					 0.00000000E+00	 7.50000000E-01	 7.00000000E+00
					 0.00000000E+00	 5.00000000E-01	 7.00000000E+00
					 0.00000000E+00	 2.50000000E-01	 7.00000000E+00
					 0.00000000E+00	 5.00000000E-01	 7.50000000E+00
					 5.00000000E-01	 5.00000000E-01	 5.00000000E-01
					 5.00000000E-01	 2.50000000E-01	 1.00000000E+00
					 2.50000000E-01	 5.00000000E-01	 1.00000000E+00
					 5.00000000E-01	 5.00000000E-01	 1.00000000E+00
					 7.50000000E-01	 5.00000000E-01	 1.00000000E+00
					 5.00000000E-01	 7.50000000E-01	 1.00000000E+00
					 5.00000000E-01	 5.00000000E-01	 1.50000000E+00
					 5.00000000E-01	 2.50000000E-01	 2.00000000E+00
					 2.50000000E-01	 5.00000000E-01	 2.00000000E+00
					 5.00000000E-01	 5.00000000E-01	 2.00000000E+00
					 7.50000000E-01	 5.00000000E-01	 2.00000000E+00
					 5.00000000E-01	 7.50000000E-01	 2.00000000E+00
					 5.00000000E-01	 5.00000000E-01	 2.50000000E+00
					 5.00000000E-01	 2.50000000E-01	 3.00000000E+00
					 2.50000000E-01	 5.00000000E-01	 3.00000000E+00
					 5.00000000E-01	 5.00000000E-01	 3.00000000E+00
					 7.50000000E-01	 5.00000000E-01	 3.00000000E+00
					 5.00000000E-01	 7.50000000E-01	 3.00000000E+00
					 5.00000000E-01	 5.00000000E-01	 3.50000000E+00
					 5.00000000E-01	 2.50000000E-01	 4.00000000E+00
					 2.50000000E-01	 5.00000000E-01	 4.00000000E+00
					 5.00000000E-01	 5.00000000E-01	 4.00000000E+00
					 7.50000000E-01	 5.00000000E-01	 4.00000000E+00
					 5.00000000E-01	 7.50000000E-01	 4.00000000E+00
					 5.00000000E-01	 5.00000000E-01	 4.50000000E+00
					 5.00000000E-01	 2.50000000E-01	 5.00000000E+00
					 2.50000000E-01	 5.00000000E-01	 5.00000000E+00
					 5.00000000E-01	 5.00000000E-01	 5.00000000E+00
					 7.50000000E-01	 5.00000000E-01	 5.00000000E+00
					 5.00000000E-01	 7.50000000E-01	 5.00000000E+00
					 5.00000000E-01	 5.00000000E-01	 5.50000000E+00
					 5.00000000E-01	 2.50000000E-01	 6.00000000E+00
					 2.50000000E-01	 5.00000000E-01	 6.00000000E+00
					 5.00000000E-01	 5.00000000E-01	 6.00000000E+00
					 7.50000000E-01	 5.00000000E-01	 6.00000000E+00
					 5.00000000E-01	 7.50000000E-01	 6.00000000E+00
					 5.00000000E-01	 5.00000000E-01	 6.50000000E+00
					 5.00000000E-01	 2.50000000E-01	 7.00000000E+00
					 2.50000000E-01	 5.00000000E-01	 7.00000000E+00
					 5.00000000E-01	 5.00000000E-01	 7.00000000E+00
					 7.50000000E-01	 5.00000000E-01	 7.00000000E+00
					 5.00000000E-01	 7.50000000E-01	 7.00000000E+00
					 5.00000000E-01	 5.00000000E-01	 7.50000000E+00

				</DataArray>
			</Points>
			<Cells>
				<DataArray type="Int32" Name="connectivity" format="ascii">
					0 9 94 18 60 104 221 191 8 92 93 19 103 219 220 192 61 102 218 189 9 1 12 94 104 33 133 221 10 11 95 92 105 132 222 219 102 32 131 218 18 94 15 3 191 221 162 78 93 96 16 17 220 223 163 190 189 218 160 77 94 12 2 15 221 133 63 162 95 13 14 96 222 134 161 223 218 131 62 160 60 104 221 191 58 108 227 195 103 219 220 192 107 225 226 196 59 106 224 193 104 33 133 221 108 35 137 227 105 132 222 219 109 136 228 225 106 34 135 224 191 221 162 78 195 227 166 80 220 223 163 190 226 229 167 194 193 224 164 79 221 133 63 162 227 137 65 166 222 134 161 223 228 138 165 229 224 135 64 164 58 108 227 195 56 112 233 199 107 225 226 196 111 231 232 200 57 110 230 197 108 35 137 227 112 37 141 233 109 136 228 225 113 140 234 231 110 36 139 230 195 227 166 80 199 233 170 82 226 229 167 194 232 235 171 198 197 230 168 81 227 137 65 166 233 141 67 170 228 138 165 229 234 142 169 235 230 139 66 168 56 112 233 199 54 116 239 203 111 231 232 200 115 237 238 204 55 114 236 201 112 37 141 233 116 39 145 239 113 140 234 231 117 144 240 237 114 38 143 236 199 233 170 82 203 239 174 84 232 235 171 198 238 241 175 202 201 236 172 83 233 141 67 170 239 145 69 174 234 142 169 235 240 146 173 241 236 143 68 172 54 116 239 203 52 120 245 207 115 237 238 204 119 243 244 208 53 118 242 205 116 39 145 239 120 41 149 245 117 144 240 237 121 148 246 243 118 40 147 242 203 239 174 84 207 245 178 86 238 241 175 202 244 247 179 206 205 242 176 85 239 145 69 174 245 149 71 178 240 146 173 241 246 150 177 247 242 147 70 176 52 120 245 207 50 124 251 211 119 243 244 208 123 249 250 212 51 122 248 209 120 41 149 245 124 43 153 251 121 148 246 243 125 152 252 249 122 42 151 248 207 245 178 86 211 251 182 88 244 247 179 206 250 253 183 210 209 248 180 87 245 149 71 178 251 153 73 182 246 150 177 247 252 154 181 253 248 151 72 180 50 124 251 211 48 128 257 215 123 249 250 212 127 255 256 216 49 126 254 213 124 43 153 251 128 45 157 257 125 152 252 249 129 156 258 255 126 44 155 254 211 251 182 88 215 257 186 90 250 253 183 210 256 259 187 214 213 254 184 89 251 153 73 182 257 157 75 186 252 154 181 253 258 158 185 259 254 155 74 184 48 128 257 215 4 21 99 30 127 255 256 216 20 97 98 31 47 130 260 217 128 45 157 257 21 5 24 99 129 156 258 255 22 23 100 97 130 46 159 260 215 257 186 90 30 99 27 7 256 259 187 214 98 101 28 29 217 260 188 91 257 157 75 186 99 24 6 27 258 158 185 259 100 25 26 101 260 159 76 188 
				</DataArray>
				<DataArray type="Int32" Name="offsets" format="ascii">
					20 40 60 80 100 120 140 160 180 200 220 240 260 280 300 320 340 360 380 400 420 440 460 480 500 520 540 560 580 600 620 640 
				</DataArray>
				<DataArray type="UInt8" Name="types" format="ascii">
					25 25 25 25 25 25 25 25 25 25 25 25 25 25 25 25 25 25 25 25 25 25 25 25 25 25 25 25 25 25 25 25 
				</DataArray>
			</Cells>
			<PointData>
				<DataArray type="Float32" Name="U" NumberOfComponents="3" ComponentName0="D1" ComponentName1="D2" ComponentName2="D3" format="ascii">
					 0.00000000E+00	 0.00000000E+00	 0.00000000E+00
					 0.00000000E+00	 0.00000000E+00	 0.00000000E+00
					 0.00000000E+00	 0.00000000E+00	 0.00000000E+00
					 0.00000000E+00	 0.00000000E+00	 0.00000000E+00
					-2.16054000E-05	 4.38585000E-02	 3.94569000E-03
					 1.89490000E-05	 4.38585000E-02	 3.94601000E-03
					-2.19063000E-05	 4.38247000E-02	-4.23397000E-03
					 1.92816000E-05	 4.38247000E-02	-4.23429000E-03
					 0.00000000E+00	 0.00000000E+00	 0.00000000E+00
					 0.00000000E+00	 0.00000000E+00	 0.00000000E+00
					 0.00000000E+00	 0.00000000E+00	 0.00000000E+00
					 0.00000000E+00	 0.00000000E+00	 0.00000000E+00
					 0.00000000E+00	 0.00000000E+00	 0.00000000E+00
					 0.00000000E+00	 0.00000000E+00	 0.00000000E+00
					 0.00000000E+00	 0.00000000E+00	 0.00000000E+00
					 0.00000000E+00	 0.00000000E+00	 0.00000000E+00
					 0.00000000E+00	 0.00000000E+00	 0.00000000E+00
					 0.00000000E+00	 0.00000000E+00	 0.00000000E+00
					 0.00000000E+00	 0.00000000E+00	 0.00000000E+00
					 0.00000000E+00	 0.00000000E+00	 0.00000000E+00
					-1.05995000E-05	 4.38153000E-02	 3.94193000E-03
					-1.32911000E-06	 4.38115000E-02	 3.93344000E-03
					 7.94250000E-06	 4.38153000E-02	 3.94209000E-03
					-1.37675000E-06	 4.38164000E-02	 1.88763000E-03
					-1.35236000E-06	 4.37856000E-02	-1.43848000E-04
					-1.47229000E-06	 4.37998000E-02	-2.17561000E-03
					-1.07136000E-05	 4.37817000E-02	-4.23010000E-03
					-1.30992000E-06	 4.37781000E-02	-4.22162000E-03
					 8.09205000E-06	 4.37817000E-02	-4.23025000E-03
					-1.15967000E-06	 4.37998000E-02	-2.17594000E-03
					-1.28422000E-06	 4.37856000E-02	-1.44175000E-04
					-1.27211000E-06	 4.38164000E-02	 1.88730000E-03
					-1.54290000E-04	 2.69286000E-04	 4.62682000E-04
					-1.12551000E-04	 9.60850000E-04	 9.26313000E-04
					-1.27120000E-04	 2.16188000E-03	 1.36068000E-03
					-1.12247000E-04	 3.74465000E-03	 1.76106000E-03
					-1.06753000E-04	 5.73887000E-03	 2.12432000E-03
					-9.56497000E-05	 8.06964000E-03	 2.45684000E-03
					-8.71989000E-05	 1.07313000E-02	 2.75478000E-03
					-7.72180000E-05	 1.36769000E-02	 3.01987000E-03
					-6.80395000E-05	 1.68819000E-02	 3.25013000E-03
					-5.87461000E-05	 2.03113000E-02	 3.44757000E-03
					-4.83053000E-05	 2.39326000E-02	 3.61118000E-03
					-3.89746000E-05	 2.77195000E-02	 3.74248000E-03
					-3.06804000E-05	 3.16220000E-02	 3.83822000E-03
					-2.54917000E-05	 3.56346000E-02	 3.90262000E-03
					-3.04558000E-06	 3.97054000E-02	 3.93582000E-03
					 7.18642000E-07	 3.97054000E-02	 3.93551000E-03
					 2.34790000E-05	 3.56346000E-02	 3.90233000E-03
					 2.89511000E-05	 3.16220000E-02	 3.83795000E-03
					 3.75028000E-05	 2.77195000E-02	 3.74224000E-03
					 4.70692000E-05	 2.39326000E-02	 3.61096000E-03
					 5.77248000E-05	 2.03113000E-02	 3.44736000E-03
					 6.72126000E-05	 1.68819000E-02	 3.24995000E-03
					 7.65650000E-05	 1.36769000E-02	 3.01971000E-03
					 8.66992000E-05	 1.07313000E-02	 2.75464000E-03
					 9.52831000E-05	 8.06964000E-03	 2.45672000E-03
					 1.06498000E-04	 5.73887000E-03	 2.12421000E-03
					 1.12085000E-04	 3.74465000E-03	 1.76098000E-03
					 1.27028000E-04	 2.16188000E-03	 1.36062000E-03
					 1.12511000E-04	 9.60847000E-04	 9.26274000E-04
					 1.54279000E-04	 2.69281000E-04	 4.62663000E-04
					 1.54405000E-04	 2.68671000E-04	-4.63179000E-04
					 1.12481000E-04	 9.58896000E-04	-9.28163000E-04
					 1.27053000E-04	 2.15803000E-03	-1.36565000E-03
					 1.12093000E-04	 3.73820000E-03	-1.77127000E-03
					 1.06504000E-04	 5.72965000E-03	-2.14257000E-03
					 9.52715000E-05	 8.05728000E-03	-2.48603000E-03
					 8.66918000E-05	 1.07158000E-02	-2.79815000E-03
					 7.65450000E-05	 1.36582000E-02	-3.08057000E-03
					 6.71911000E-05	 1.68601000E-02	-3.33129000E-03
					 5.76935000E-05	 2.02867000E-02	-3.55215000E-03
					 4.70448000E-05	 2.39055000E-02	-3.74183000E-03
					 3.74526000E-05	 2.76902000E-02	-3.90165000E-03
					 2.89258000E-05	 3.15910000E-02	-4.02770000E-03
					 2.33889000E-05	 3.56022000E-02	-4.12415000E-03
					 7.71482000E-07	 3.96724000E-02	-4.19008000E-03
					-1.54414000E-04	 2.68679000E-04	-4.63198000E-04
					-1.12517000E-04	 9.58904000E-04	-9.28202000E-04
					-1.27138000E-04	 2.15804000E-03	-1.36571000E-03
					-1.12246000E-04	 3.73821000E-03	-1.77135000E-03
					-1.06747000E-04	 5.72966000E-03	-2.14268000E-03
					-9.56249000E-05	 8.05729000E-03	-2.48615000E-03
					-8.71758000E-05	 1.07158000E-02	-2.79829000E-03
					-7.71801000E-05	 1.36582000E-02	-3.08073000E-03
					-6.79978000E-05	 1.68602000E-02	-3.33148000E-03
					-5.86922000E-05	 2.02867000E-02	-3.55235000E-03
					-4.82559000E-05	 2.39055000E-02	-3.74206000E-03
					-3.88971000E-05	 2.76902000E-02	-3.90189000E-03
					-3.06214000E-05	 3.15910000E-02	-4.02797000E-03
					-2.53584000E-05	 3.56023000E-02	-4.12446000E-03
					-3.06428000E-06	 3.96724000E-02	-4.19040000E-03
					 0.00000000E+00	 0.00000000E+00	 0.00000000E+00
					 0.00000000E+00	 0.00000000E+00	 0.00000000E+00
					 0.00000000E+00	 0.00000000E+00	 0.00000000E+00
					 0.00000000E+00	 0.00000000E+00	 0.00000000E+00
					 0.00000000E+00	 0.00000000E+00	 0.00000000E+00
					-1.32231000E-06	 4.37928000E-02	 1.88994000E-03
					-1.29767000E-06	 4.37832000E-02	-1.44132000E-04
					-1.31877000E-06	 4.37756000E-02	-1.44038000E-04
					-1.34206000E-06	 4.37832000E-02	-1.43971000E-04
					-1.31346000E-06	 4.37762000E-02	-2.17807000E-03
					-3.39260000E-09	 3.35459000E-04	 4.49298000E-04
					 5.56742000E-05	 1.01527000E-03	 9.32142000E-04
					-1.89858000E-08	 1.02752000E-03	 9.38860000E-04
					-5.57121000E-05	 1.01528000E-03	 9.32162000E-04
					-4.39278000E-08	 2.22231000E-03	 1.36083000E-03
					 5.60037000E-05	 3.78818000E-03	 1.76412000E-03
					-7.98697000E-08	 3.80518000E-03	 1.76460000E-03
					-5.61640000E-05	 3.78818000E-03	 1.76416000E-03
					-1.25621000E-07	 5.79089000E-03	 2.12580000E-03
					 4.75151000E-05	 8.10676000E-03	 2.45888000E-03
					-1.81903000E-07	 8.11908000E-03	 2.45892000E-03
					-4.78795000E-05	 8.10676000E-03	 2.45894000E-03
					-2.48272000E-07	 1.07744000E-02	 2.75652000E-03
					 3.81257000E-05	 1.37058000E-02	 3.02179000E-03
					-3.25010000E-07	 1.37156000E-02	 3.02157000E-03
					-3.87764000E-05	 1.37058000E-02	 3.02187000E-03
					-4.11891000E-07	 1.69159000E-02	 3.25190000E-03
					 2.85830000E-05	 2.03330000E-02	 3.44953000E-03
					-5.09090000E-07	 2.03396000E-02	 3.44931000E-03
					-2.96019000E-05	 2.03330000E-02	 3.44963000E-03
					-6.16518000E-07	 2.39571000E-02	 3.61295000E-03
					 1.84723000E-05	 2.77308000E-02	 3.74413000E-03
					-7.34403000E-07	 2.77351000E-02	 3.74390000E-03
					-1.99417000E-05	 2.77308000E-02	 3.74426000E-03
					-8.62834000E-07	 3.16396000E-02	 3.84016000E-03
					 1.08633000E-05	 3.56444000E-02	 3.90512000E-03
					-1.00457000E-06	 3.56393000E-02	 3.90525000E-03
					-1.28731000E-05	 3.56444000E-02	 3.90526000E-03
					-1.16311000E-06	 3.97103000E-02	 3.93658000E-03
					 1.01333000E-07	 1.74051000E-04	-2.07956000E-07
					-5.67454000E-05	 9.22141000E-04	 4.58651000E-04
					 7.34032000E-08	 9.27444000E-04	-8.24389000E-07
					 5.68053000E-05	 9.21147000E-04	-4.60359000E-04
					 4.45633000E-08	 2.08603000E-03	-2.26478000E-06
					-5.59991000E-05	 3.70896000E-03	 8.72439000E-04
					-1.47251000E-08	 3.69948000E-03	-4.92410000E-06
					 5.59175000E-05	 3.70576000E-03	-8.82346000E-04
					-7.72047000E-08	 5.67689000E-03	-8.86577000E-06
					-4.79220000E-05	 8.03293000E-03	 1.21633000E-03
					-1.43076000E-07	 8.02108000E-03	-1.43712000E-05
					 4.75971000E-05	 8.02679000E-03	-1.24518000E-03
					-2.20666000E-07	 1.06786000E-02	-2.14204000E-05
					-3.87884000E-05	 1.36442000E-02	 1.48969000E-03
					-3.07794000E-07	 1.36306000E-02	-3.01082000E-05
					 3.81483000E-05	 1.36349000E-02	-1.55003000E-03
					-4.05362000E-07	 1.68373000E-02	-4.03478000E-05
					-2.94742000E-05	 2.02831000E-02	 1.69277000E-03
					-5.08570000E-07	 2.02693000E-02	-5.20707000E-05
					 2.84417000E-05	 2.02708000E-02	-1.79703000E-03
					-6.23566000E-07	 2.38958000E-02	-6.51507000E-05
					-2.05006000E-05	 2.76942000E-02	 1.82598000E-03
					-7.42447000E-07	 2.76794000E-02	-7.93830000E-05
					 1.89964000E-05	 2.76797000E-02	-1.98488000E-03
					-8.84299000E-07	 3.15970000E-02	-9.46647000E-05
					-1.07892000E-05	 3.56168000E-02	 1.89261000E-03
					-1.02455000E-06	 3.56013000E-02	-1.10609000E-04
					 8.71574000E-06	 3.56007000E-02	-2.11390000E-03
					-1.16179000E-06	 3.96871000E-02	-1.27155000E-04
					-2.37686000E-09	 3.34857000E-04	-4.49909000E-04
					 5.56935000E-05	 1.01325000E-03	-9.34256000E-04
					-1.68824000E-08	 1.02552000E-03	-9.41054000E-04
					-5.57272000E-05	 1.01326000E-03	-9.34276000E-04
					-4.06806000E-08	 2.21839000E-03	-1.36621000E-03
					 5.60232000E-05	 3.78169000E-03	-1.77475000E-03
					-7.54745000E-08	 3.79872000E-03	-1.77535000E-03
					-5.61746000E-05	 3.78170000E-03	-1.77479000E-03
					-1.20101000E-07	 5.78163000E-03	-2.14462000E-03
					 4.75247000E-05	 8.09435000E-03	-2.48857000E-03
					-1.75231000E-07	 8.10669000E-03	-2.48874000E-03
					-4.78758000E-05	 8.09436000E-03	-2.48863000E-03
					-2.40461000E-07	 1.07588000E-02	-2.80053000E-03
					 3.81272000E-05	 1.36870000E-02	-3.08301000E-03
					-3.16016000E-07	 1.36969000E-02	-3.08292000E-03
					-3.87600000E-05	 1.36870000E-02	-3.08309000E-03
					-4.01768000E-07	 1.68941000E-02	-3.33371000E-03
					 2.85768000E-05	 2.03084000E-02	-3.55462000E-03
					-4.97771000E-07	 2.03150000E-02	-3.55449000E-03
					-2.95731000E-05	 2.03084000E-02	-3.55472000E-03
					-6.04349000E-07	 2.39300000E-02	-3.74420000E-03
					 1.84562000E-05	 2.77015000E-02	-3.90374000E-03
					-7.20958000E-07	 2.77058000E-02	-3.90355000E-03
					-1.98987000E-05	 2.77015000E-02	-3.90387000E-03
					-8.47783000E-07	 3.16085000E-02	-4.03019000E-03
					 1.08265000E-05	 3.56120000E-02	-4.12702000E-03
					-9.88175000E-07	 3.56069000E-02	-4.12713000E-03
					-1.27970000E-05	 3.56120000E-02	-4.12718000E-03
					-1.14886000E-06	 3.96773000E-02	-4.19133000E-03
					-1.13949000E-07	 1.74052000E-04	-2.26394000E-07
					-5.68443000E-05	 9.21151000E-04	-4.60399000E-04
					-1.13989000E-07	 9.27446000E-04	-8.64221000E-07
					 5.67044000E-05	 9.22140000E-04	 4.58612000E-04
					-1.35665000E-07	 2.08604000E-03	-2.32471000E-06
					-5.60754000E-05	 3.70577000E-03	-8.82427000E-04
					-1.46255000E-07	 3.69948000E-03	-5.00475000E-06
					 5.58368000E-05	 3.70896000E-03	 8.72359000E-04
					-1.74797000E-07	 5.67690000E-03	-8.96675000E-06
					-4.79561000E-05	 8.02680000E-03	-1.24530000E-03
					-2.20052000E-07	 8.02109000E-03	-1.44927000E-05
					 4.75564000E-05	 8.03294000E-03	 1.21621000E-03
					-2.74249000E-07	 1.06787000E-02	-2.15624000E-05
					-3.87902000E-05	 1.36349000E-02	-1.55019000E-03
					-3.39392000E-07	 1.36306000E-02	-3.02707000E-05
					 3.81375000E-05	 1.36442000E-02	 1.48953000E-03
					-4.14406000E-07	 1.68373000E-02	-4.05309000E-05
					-2.94485000E-05	 2.02709000E-02	-1.79723000E-03
					-5.04650000E-07	 2.02693000E-02	-5.22746000E-05
					 2.84562000E-05	 2.02831000E-02	 1.69257000E-03
					-6.03333000E-07	 2.38958000E-02	-6.53746000E-05
					-2.04500000E-05	 2.76797000E-02	-1.98513000E-03
					-7.19172000E-07	 2.76794000E-02	-7.96278000E-05
					 1.90332000E-05	 2.76942000E-02	 1.82573000E-03
					-8.31965000E-07	 3.15970000E-02	-9.49309000E-05
					-1.07019000E-05	 3.56007000E-02	-2.11420000E-03
					-9.75050000E-07	 3.56013000E-02	-1.10903000E-04
					 8.78173000E-06	 3.56168000E-02	 1.89232000E-03
					-1.14860000E-06	 3.96871000E-02	-1.27477000E-04
					-4.29378000E-09	 2.39858000E-04	-2.77780000E-07
					-1.96453000E-08	 9.85557000E-04	 4.63912000E-04
					-7.04935000E-08	 9.79771000E-04	-9.51547000E-07
					-1.93443000E-08	 9.88932000E-04	-9.72576000E-07
					 3.18527000E-08	 9.79770000E-04	-9.31628000E-07
					-1.85854000E-08	 9.84531000E-04	-4.65943000E-04
					-4.38426000E-08	 2.14863000E-03	-2.47464000E-06
					-7.98788000E-08	 3.76745000E-03	 8.75382000E-04
					-1.14865000E-07	 3.74068000E-03	-5.14503000E-06
					-7.91697000E-08	 3.75562000E-03	-5.17312000E-06
					-4.40840000E-08	 3.74068000E-03	-5.10473000E-06
					-7.76793000E-08	 3.76424000E-03	-8.85804000E-04
					-1.24415000E-07	 5.73041000E-03	-9.15333000E-06
					-1.81384000E-07	 8.08132000E-03	 1.21820000E-03
					-2.01580000E-07	 8.05720000E-03	-1.46435000E-05
					-1.80078000E-07	 8.06852000E-03	-1.46704000E-05
					-1.59280000E-07	 8.05719000E-03	-1.45827000E-05
					-1.78047000E-07	 8.07516000E-03	-1.24765000E-03
					-2.45909000E-07	 1.07222000E-02	-2.17391000E-05
					-3.23890000E-07	 1.36828000E-02	 1.49144000E-03
					-3.31432000E-07	 1.36594000E-02	-3.04122000E-05
					-3.22010000E-07	 1.36690000E-02	-3.04301000E-05
					-3.13395000E-07	 1.36594000E-02	-3.03309000E-05
					-3.19383000E-07	 1.36734000E-02	-1.55242000E-03