    1C
    1UModel: linear net 3 elements Dtype                                
    1UUSER                                                              
    1UDATE              01.august.2019                                  
    1UTIME              09:27:22                                        
    1UHOST                                                              
    1UPGM               CalculiX                                        
    1UVERSION           Version 2.15                             
    1UCOMPILETIME       Fri 15 Mar 11:57:46 CET 2019                    
    1UDIR                                                               
    1UDBN                                                               
    1UMAT    1GAS                                                       
    2C                            13                                     1
 -1         1-5.00000E-01 0.00000E+00 0.00000E+00
 -1         2 0.00000E+00 0.00000E+00 0.00000E+00
 -1         3 5.00000E-01 5.00000E-01 0.00000E+00
 -1         4 1.00000E+00 1.00000E+00 0.00000E+00
 -1         5 1.50000E+00 5.00000E-01 0.00000E+00
 -1         6 2.00000E+00 0.00000E+00 0.00000E+00
 -1         7 2.50000E+00 0.00000E+00 0.00000E+00
 -1         8 2.50000E-01-2.50000E-01 0.00000E+00
 -1         9 5.00000E-01-5.00000E-01 0.00000E+00
 -1        10 7.50000E-01-7.50000E-01 0.00000E+00
 -1        11 1.00000E+00-1.00000E+00 0.00000E+00
 -1        12 1.50000E+00-5.00000E-01 0.00000E+00
 -1        13 1.00000E+00 0.00000E+00 0.00000E+00
 -3
    3C                             8                                     1
 -1         1   11    0    1
 -2         1         2
 -1         2   12    0    1
 -2         2         4         3
 -1         3   12    0    1
 -2         4         6         5
 -1         4   12    0    1
 -2         2         9         8
 -1         5   12    0    1
 -2         9        11        10
 -1         6   12    0    1
 -2        11         6        12
 -1         7   12    0    1
 -2         4        11        13
 -1         8   11    0    1
 -2         6         7
 -3
 9999
