<?xml version="1.0"?>
<VTKFile type="UnstructuredGrid" version="0.1" byte_order="LittleEndian">
	<UnstructuredGrid>
		<Piece NumberOfPoints="68" NumberOfCells="5">
			<Points>
				<DataArray type="Float64" NumberOfComponents="3" format="ascii">
					-2.50000000E+01	 2.50000000E+01	 0.00000000E+00
					-2.50000000E+01	-2.50000000E+01	 0.00000000E+00
					 2.50000000E+01	-2.50000000E+01	 0.00000000E+00
					 2.50000000E+01	 2.50000000E+01	 0.00000000E+00
					-2.50000000E+01	 0.00000000E+00	 0.00000000E+00
					 0.00000000E+00	-2.50000000E+01	 0.00000000E+00
					 2.50000000E+01	 0.00000000E+00	 0.00000000E+00
					 0.00000000E+00	 2.50000000E+01	 0.00000000E+00
					-2.50000000E+01	 2.50000000E+01	 1.00000000E+02
					-2.50000000E+01	-2.50000000E+01	 1.00000000E+02
					 2.50000000E+01	-2.50000000E+01	 1.00000000E+02
					 2.50000000E+01	 2.50000000E+01	 1.00000000E+02
					-2.50000000E+01	 2.50000000E+01	 2.00000000E+02
					-2.50000000E+01	-2.50000000E+01	 2.00000000E+02
					 2.50000000E+01	-2.50000000E+01	 2.00000000E+02
					 2.50000000E+01	 2.50000000E+01	 2.00000000E+02
					-2.50000000E+01	 0.00000000E+00	 2.00000000E+02
					 0.00000000E+00	-2.50000000E+01	 2.00000000E+02
					 2.50000000E+01	 0.00000000E+00	 2.00000000E+02
					 0.00000000E+00	 2.50000000E+01	 2.00000000E+02
					-2.50000000E+01	 2.50000000E+01	 3.00000000E+02
					-2.50000000E+01	-2.50000000E+01	 3.00000000E+02
					 2.50000000E+01	-2.50000000E+01	 3.00000000E+02
					 2.50000000E+01	 2.50000000E+01	 3.00000000E+02
					-2.50000000E+01	 2.50000000E+01	 4.00000000E+02
					-2.50000000E+01	-2.50000000E+01	 4.00000000E+02
					 2.50000000E+01	-2.50000000E+01	 4.00000000E+02
					 2.50000000E+01	 2.50000000E+01	 4.00000000E+02
					-2.50000000E+01	 0.00000000E+00	 4.00000000E+02
					 0.00000000E+00	-2.50000000E+01	 4.00000000E+02
					 2.50000000E+01	 0.00000000E+00	 4.00000000E+02
					 0.00000000E+00	 2.50000000E+01	 4.00000000E+02
					-2.50000000E+01	 2.50000000E+01	 5.00000000E+02
					-2.50000000E+01	-2.50000000E+01	 5.00000000E+02
					 2.50000000E+01	-2.50000000E+01	 5.00000000E+02
					 2.50000000E+01	 2.50000000E+01	 5.00000000E+02
					-2.50000000E+01	 2.50000000E+01	 6.00000000E+02
					-2.50000000E+01	-2.50000000E+01	 6.00000000E+02
					 2.50000000E+01	-2.50000000E+01	 6.00000000E+02
					 2.50000000E+01	 2.50000000E+01	 6.00000000E+02
					-2.50000000E+01	 0.00000000E+00	 6.00000000E+02
					 0.00000000E+00	-2.50000000E+01	 6.00000000E+02
					 2.50000000E+01	 0.00000000E+00	 6.00000000E+02
					 0.00000000E+00	 2.50000000E+01	 6.00000000E+02
					-2.50000000E+01	 2.50000000E+01	 7.00000000E+02
					-2.50000000E+01	-2.50000000E+01	 7.00000000E+02
					 2.50000000E+01	-2.50000000E+01	 7.00000000E+02
					 2.50000000E+01	 2.50000000E+01	 7.00000000E+02
					-2.50000000E+01	 2.50000000E+01	 8.00000000E+02
					-2.50000000E+01	-2.50000000E+01	 8.00000000E+02
					 2.50000000E+01	-2.50000000E+01	 8.00000000E+02
					 2.50000000E+01	 2.50000000E+01	 8.00000000E+02
					-2.50000000E+01	 0.00000000E+00	 8.00000000E+02
					 0.00000000E+00	-2.50000000E+01	 8.00000000E+02
					 2.50000000E+01	 0.00000000E+00	 8.00000000E+02
					 0.00000000E+00	 2.50000000E+01	 8.00000000E+02
					-2.50000000E+01	 2.50000000E+01	 9.00000000E+02
					-2.50000000E+01	-2.50000000E+01	 9.00000000E+02
					 2.50000000E+01	-2.50000000E+01	 9.00000000E+02
					 2.50000000E+01	 2.50000000E+01	 9.00000000E+02
					-2.50000000E+01	 2.50000000E+01	 1.00000000E+03
					-2.50000000E+01	-2.50000000E+01	 1.00000000E+03
					 2.50000000E+01	-2.50000000E+01	 1.00000000E+03
					 2.50000000E+01	 2.50000000E+01	 1.00000000E+03
					-2.50000000E+01	 0.00000000E+00	 1.00000000E+03
					 0.00000000E+00	-2.50000000E+01	 1.00000000E+03
					 2.50000000E+01	 0.00000000E+00	 1.00000000E+03
					 0.00000000E+00	 2.50000000E+01	 1.00000000E+03

				</DataArray>
			</Points>
			<Cells>
				<DataArray type="Int32" Name="connectivity" format="ascii">
					0 12 13 1 3 15 14 2 8 16 9 4 11 18 10 6 7 19 17 5 12 24 25 13 15 27 26 14 20 28 21 16 23 30 22 18 19 31 29 17 24 36 37 25 27 39 38 26 32 40 33 28 35 42 34 30 31 43 41 29 36 48 49 37 39 51 50 38 44 52 45 40 47 54 46 42 43 55 53 41 48 60 61 49 51 63 62 50 56 64 57 52 59 66 58 54 55 67 65 53 
				</DataArray>
				<DataArray type="Int32" Name="offsets" format="ascii">
					20 40 60 80 100 
				</DataArray>
				<DataArray type="UInt8" Name="types" format="ascii">
					25 25 25 25 25 
				</DataArray>
			</Cells>
			<PointData>
				<DataArray type="Float32" Name="U" NumberOfComponents="3" ComponentName0="D1" ComponentName1="D2" ComponentName2="D3" format="ascii">
					 1.23486000E-03	 0.00000000E+00	 0.00000000E+00
					-1.23486000E-03	 0.00000000E+00	 0.00000000E+00
					 1.23486000E-03	 0.00000000E+00	 0.00000000E+00
					-1.23486000E-03	 0.00000000E+00	 0.00000000E+00
					 0.00000000E+00	 0.00000000E+00	 0.00000000E+00
					 0.00000000E+00	 0.00000000E+00	 0.00000000E+00
					 0.00000000E+00	 0.00000000E+00	 0.00000000E+00
					 0.00000000E+00	 0.00000000E+00	 0.00000000E+00
					 1.14520000E-03	-3.02886000E-02	 1.47710000E-02
					-1.14520000E-03	-3.02886000E-02	-1.47710000E-02
					 1.14520000E-03	-3.02886000E-02	-1.47710000E-02
					-1.14520000E-03	-3.02886000E-02	 1.47710000E-02
					 1.03936000E-03	-1.19129000E-01	 2.92766000E-02
					-1.03936000E-03	-1.19129000E-01	-2.92766000E-02
					 1.03936000E-03	-1.19129000E-01	-2.92766000E-02
					-1.03936000E-03	-1.19129000E-01	 2.92766000E-02
					 0.00000000E+00	-1.18440000E-01	 0.00000000E+00
					 0.00000000E+00	-1.19814000E-01	-2.92743000E-02
					 0.00000000E+00	-1.18440000E-01	 0.00000000E+00
					 0.00000000E+00	-1.19814000E-01	 2.92743000E-02
					 9.07674000E-04	-2.64220000E-01	 4.25940000E-02
					-9.07674000E-04	-2.64220000E-01	-4.25940000E-02
					 9.07674000E-04	-2.64220000E-01	-4.25940000E-02
					-9.07674000E-04	-2.64220000E-01	 4.25940000E-02
					 7.71841000E-04	-4.58366000E-01	 5.38089000E-02
					-7.71841000E-04	-4.58366000E-01	-5.38089000E-02
					 7.71841000E-04	-4.58366000E-01	-5.38089000E-02
					-7.71841000E-04	-4.58366000E-01	 5.38089000E-02
					 0.00000000E+00	-4.58025000E-01	 0.00000000E+00
					 0.00000000E+00	-4.58709000E-01	-5.37952000E-02
					 0.00000000E+00	-4.58025000E-01	 0.00000000E+00
					 0.00000000E+00	-4.58709000E-01	 5.37952000E-02
					 6.42855000E-04	-6.93471000E-01	 6.31549000E-02
					-6.42855000E-04	-6.93471000E-01	-6.31549000E-02
					 6.42855000E-04	-6.93471000E-01	-6.31549000E-02
					-6.42855000E-04	-6.93471000E-01	 6.31549000E-02
					 5.20173000E-04	-9.62737000E-01	 7.08871000E-02
					-5.20174000E-04	-9.62737000E-01	-7.08871000E-02
					 5.20173000E-04	-9.62737000E-01	-7.08871000E-02
					-5.20174000E-04	-9.62737000E-01	 7.08871000E-02
					 0.00000000E+00	-9.62466000E-01	 0.00000000E+00
					 0.00000000E+00	-9.63006000E-01	-7.08793000E-02
					 0.00000000E+00	-9.62466000E-01	 0.00000000E+00
					 0.00000000E+00	-9.63006000E-01	 7.08793000E-02
					 3.85056000E-04	-1.25961000E+00	 7.69348000E-02
					-3.85056000E-04	-1.25961000E+00	-7.69348000E-02
					 3.85056000E-04	-1.25961000E+00	-7.69348000E-02
					-3.85056000E-04	-1.25961000E+00	 7.69348000E-02
					 2.69994000E-04	-1.57718000E+00	 8.12388000E-02
					-2.69995000E-04	-1.57718000E+00	-8.12388000E-02
					 2.69994000E-04	-1.57718000E+00	-8.12388000E-02
					-2.69995000E-04	-1.57718000E+00	 8.12388000E-02
					 0.00000000E+00	-1.57705000E+00	 0.00000000E+00
					 0.00000000E+00	-1.57731000E+00	-8.12297000E-02
					 0.00000000E+00	-1.57705000E+00	 0.00000000E+00
					 0.00000000E+00	-1.57731000E+00	 8.12297000E-02
					 1.18639000E-04	-1.90849000E+00	 8.38087000E-02
					-1.18639000E-04	-1.90849000E+00	-8.38087000E-02
					 1.18639000E-04	-1.90849000E+00	-8.38087000E-02
					-1.18639000E-04	-1.90849000E+00	 8.38087000E-02
					 6.33957000E-06	-2.24667000E+00	 8.46752000E-02
					-6.33981000E-06	-2.24667000E+00	-8.46752000E-02
					 6.33957000E-06	-2.24667000E+00	-8.46752000E-02
					-6.33981000E-06	-2.24667000E+00	 8.46752000E-02
					 0.00000000E+00	-2.24666000E+00	 0.00000000E+00
					 0.00000000E+00	-2.24666000E+00	-8.46640000E-02
					 0.00000000E+00	-2.24666000E+00	 0.00000000E+00
					 0.00000000E+00	-2.24666000E+00	 8.46640000E-02
				</DataArray>
				<DataArray type="Float32" Name="S" NumberOfComponents="10" ComponentName0="xx" ComponentName1="yy" ComponentName2="zz" ComponentName3="xy" ComponentName4="yz" ComponentName5="zx" ComponentName6="Mises" ComponentName7="Min Principal" ComponentName8="Mid Principal" ComponentName9="Max Principal" format="ascii">
					 1.34390000E+00	 4.01523000E+00	 1.20402000E+01	 1.33566000E+00	-1.77424000E-01	-2.19597000E-02	 9.92075289E+00	 7.90451356E-01	 4.56450515E+00	 1.20443735E+01
					-1.34390000E+00	-4.01523000E+00	-1.20402000E+01	 1.33566000E+00	-1.77424000E-01	 2.19597000E-02	 9.92075289E+00	-1.20443735E+01	-4.56450515E+00	-7.90451356E-01
					-1.34390000E+00	-4.01523000E+00	-1.20402000E+01	-1.33566000E+00	-1.77424000E-01	-2.19597000E-02	 9.92075289E+00	-1.20443735E+01	-4.56450515E+00	-7.90451356E-01
					 1.34390000E+00	 4.01523000E+00	 1.20402000E+01	-1.33566000E+00	-1.77424000E-01	 2.19597000E-02	 9.92075289E+00	 7.90451356E-01	 4.56450515E+00	 1.20443735E+01
					 0.00000000E+00	 0.00000000E+00	 0.00000000E+00	 1.33566000E+00	-1.77424000E-01	 0.00000000E+00	 2.33375250E+00	-1.34739263E+00	 0.00000000E+00	 1.34739263E+00
					-1.34390000E+00	-4.01523000E+00	-1.20402000E+01	 0.00000000E+00	-1.77424000E-01	 0.00000000E+00	 9.64717204E+00	-1.20441208E+01	-4.01130925E+00	-1.34390000E+00
					 0.00000000E+00	 0.00000000E+00	 0.00000000E+00	-1.33566000E+00	-1.77424000E-01	 0.00000000E+00	 2.33375250E+00	-1.34739263E+00	 0.00000000E+00	 1.34739263E+00
					 1.34390000E+00	 4.01523000E+00	 1.20402000E+01	 0.00000000E+00	-1.77424000E-01	 0.00000000E+00	 9.64717204E+00	 1.34390000E+00	 4.01130925E+00	 1.20441208E+01
					 4.93353000E-01	 1.47167000E+00	 1.08362000E+01	 4.92393000E-01	-1.77059000E-01	-2.87938000E-02	 9.93161088E+00	 2.88282839E-01	 1.67325303E+00	 1.08396871E+01
					-4.93353000E-01	-1.47167000E+00	-1.08362000E+01	 4.92393000E-01	-1.77059000E-01	 2.87938000E-02	 9.93161088E+00	-1.08396871E+01	-1.67325303E+00	-2.88282839E-01
					-4.93353000E-01	-1.47167000E+00	-1.08362000E+01	-4.92393000E-01	-1.77059000E-01	-2.87938000E-02	 9.93161088E+00	-1.08396871E+01	-1.67325303E+00	-2.88282839E-01
					 4.93353000E-01	 1.47167000E+00	 1.08362000E+01	-4.92393000E-01	-1.77059000E-01	 2.87938000E-02	 9.93161088E+00	 2.88282839E-01	 1.67325303E+00	 1.08396871E+01
					-3.50617000E-01	-1.06963000E+00	 9.63320000E+00	-3.53039000E-01	-1.76541000E-01	-3.77363000E-02	 1.03847849E+01	-1.21690028E+00	-2.06360015E-01	 9.63621330E+00
					 3.50617000E-01	 1.06963000E+00	-9.63320000E+00	-3.53039000E-01	-1.76541000E-01	 3.77363000E-02	 1.03847849E+01	-9.63621330E+00	 2.06360015E-01	 1.21690028E+00
					 3.50617000E-01	 1.06963000E+00	-9.63320000E+00	 3.53039000E-01	-1.76541000E-01	-3.77363000E-02	 1.03847849E+01	-9.63621330E+00	 2.06360015E-01	 1.21690028E+00
					-3.50617000E-01	-1.06963000E+00	 9.63320000E+00	 3.53039000E-01	-1.76541000E-01	 3.77363000E-02	 1.03847849E+01	-1.21690028E+00	-2.06360015E-01	 9.63621330E+00
					 0.00000000E+00	 0.00000000E+00	 0.00000000E+00	-3.53039000E-01	-1.76541000E-01	 0.00000000E+00	 6.83673738E-01	-3.94719217E-01	 0.00000000E+00	 3.94719217E-01
					 3.50617000E-01	 1.06963000E+00	-9.63320000E+00	 0.00000000E+00	-1.76541000E-01	 0.00000000E+00	 1.03665605E+01	-9.63611122E+00	 3.50617000E-01	 1.07254122E+00
					 0.00000000E+00	 0.00000000E+00	 0.00000000E+00	 3.53039000E-01	-1.76541000E-01	 0.00000000E+00	 6.83673738E-01	-3.94719217E-01	 0.00000000E+00	 3.94719217E-01
					-3.50617000E-01	-1.06963000E+00	 9.63320000E+00	 0.00000000E+00	-1.76541000E-01	 0.00000000E+00	 1.03665605E+01	-1.07254122E+00	-3.50617000E-01	 9.63611122E+00
					-1.27818000E-01	-3.91064000E-01	 8.43017000E+00	-1.30304000E-01	-1.74586000E-01	-5.31883000E-02	 8.70127453E+00	-4.48372322E-01	-7.42627763E-02	 8.43392310E+00
					 1.27818000E-01	 3.91064000E-01	-8.43017000E+00	-1.30304000E-01	-1.74586000E-01	 5.31883000E-02	 8.70127453E+00	-8.43392310E+00	 7.42627763E-02	 4.48372322E-01
					 1.27818000E-01	 3.91064000E-01	-8.43017000E+00	 1.30304000E-01	-1.74586000E-01	-5.31883000E-02	 8.70127453E+00	-8.43392310E+00	 7.42627763E-02	 4.48372322E-01
					-1.27818000E-01	-3.91064000E-01	 8.43017000E+00	 1.30304000E-01	-1.74586000E-01	 5.31883000E-02	 8.70127453E+00	-4.48372322E-01	-7.42627763E-02	 8.43392310E+00
					 9.29987000E-02	 2.86088000E-01	 7.22441000E+00	 9.27143000E-02	-1.72955000E-01	-6.57551000E-02	 7.04597834E+00	 5.56878523E-02	 3.18441298E-01	 7.22936755E+00
					-9.29987000E-02	-2.86088000E-01	-7.22441000E+00	 9.27143000E-02	-1.72955000E-01	 6.57551000E-02	 7.04597834E+00	-7.22936755E+00	-3.18441298E-01	-5.56878523E-02
					-9.29987000E-02	-2.86088000E-01	-7.22441000E+00	-9.27143000E-02	-1.72955000E-01	-6.57551000E-02	 7.04597834E+00	-7.22936755E+00	-3.18441298E-01	-5.56878523E-02
					 9.29987000E-02	 2.86088000E-01	 7.22441000E+00	-9.27143000E-02	-1.72955000E-01	 6.57551000E-02	 7.04597834E+00	 5.56878523E-02	 3.18441298E-01	 7.22936755E+00
					 0.00000000E+00	 0.00000000E+00	 0.00000000E+00	 9.27143000E-02	-1.72955000E-01	 0.00000000E+00	 3.39894278E-01	-1.96238053E-01	 0.00000000E+00	 1.96238053E-01
					-9.29987000E-02	-2.86088000E-01	-7.22441000E+00	 0.00000000E+00	-1.72955000E-01	 0.00000000E+00	 7.04322736E+00	-7.22871866E+00	-2.81779340E-01	-9.29987000E-02
					 0.00000000E+00	 0.00000000E+00	 0.00000000E+00	-9.27143000E-02	-1.72955000E-01	 0.00000000E+00	 3.39894278E-01	-1.96238053E-01	 0.00000000E+00	 1.96238053E-01
					 9.29987000E-02	 2.86088000E-01	 7.22441000E+00	 0.00000000E+00	-1.72955000E-01	 0.00000000E+00	 7.04322736E+00	 9.29987000E-02	 2.81779340E-01	 7.22871866E+00
					 3.36037000E-02	 1.03153000E-01	 6.01865000E+00	 3.50068000E-02	-1.74051000E-01	-5.69917000E-02	 5.95933406E+00	 1.89992423E-02	 1.12079330E-01	 6.02432813E+00
					-3.36037000E-02	-1.03153000E-01	-6.01865000E+00	 3.50068000E-02	-1.74051000E-01	 5.69917000E-02	 5.95933406E+00	-6.02432813E+00	-1.12079330E-01	-1.89992423E-02
					-3.36037000E-02	-1.03153000E-01	-6.01865000E+00	-3.50068000E-02	-1.74051000E-01	-5.69917000E-02	 5.95933406E+00	-6.02432813E+00	-1.12079330E-01	-1.89992423E-02
					 3.36037000E-02	 1.03153000E-01	 6.01865000E+00	-3.50068000E-02	-1.74051000E-01	 5.69917000E-02	 5.95933406E+00	 1.89992423E-02	 1.12079330E-01	 6.02432813E+00
					-2.30181000E-02	-7.81912000E-02	 4.81541000E+00	-2.32920000E-02	-1.74745000E-01	-5.24531000E-02	 4.87666593E+00	-9.34686121E-02	-1.45220170E-02	 4.82219133E+00
					 2.30181000E-02	 7.81912000E-02	-4.81541000E+00	-2.32920000E-02	-1.74745000E-01	 5.24531000E-02	 4.87666593E+00	-4.82219133E+00	 1.45220170E-02	 9.34686121E-02
					 2.30181000E-02	 7.81912000E-02	-4.81541000E+00	 2.32920000E-02	-1.74745000E-01	-5.24531000E-02	 4.87666593E+00	-4.82219133E+00	 1.45220170E-02	 9.34686121E-02
					-2.30181000E-02	-7.81912000E-02	 4.81541000E+00	 2.32920000E-02	-1.74745000E-01	 5.24531000E-02	 4.87666593E+00	-9.34686121E-02	-1.45220170E-02	 4.82219133E+00
					 0.00000000E+00	 0.00000000E+00	 0.00000000E+00	-2.32920000E-02	-1.74745000E-01	 0.00000000E+00	 3.05344063E-01	-1.76290477E-01	 0.00000000E+00	 1.76290477E-01
					 2.30181000E-02	 7.81912000E-02	-4.81541000E+00	 0.00000000E+00	-1.74745000E-01	 0.00000000E+00	 4.87565268E+00	-4.82164201E+00	 2.30181000E-02	 8.44232111E-02
					 0.00000000E+00	 0.00000000E+00	 0.00000000E+00	 2.32920000E-02	-1.74745000E-01	 0.00000000E+00	 3.05344063E-01	-1.76290477E-01	 0.00000000E+00	 1.76290477E-01
					-2.30181000E-02	-7.81912000E-02	 4.81541000E+00	 0.00000000E+00	-1.74745000E-01	 0.00000000E+00	 4.87565268E+00	-8.44232111E-02	-2.30181000E-02	 4.82164201E+00
					-1.13205000E-02	-2.48569000E-02	 3.61218000E+00	-1.09862000E-02	-1.74314000E-01	-5.18582000E-02	 3.64397781E+00	-3.97264696E-02	-5.51001384E-03	 3.62123908E+00
					 1.13205000E-02	 2.48569000E-02	-3.61218000E+00	-1.09862000E-02	-1.74314000E-01	 5.18582000E-02	 3.64397781E+00	-3.62123908E+00	 5.51001384E-03	 3.97264696E-02
					 1.13205000E-02	 2.48569000E-02	-3.61218000E+00	 1.09862000E-02	-1.74314000E-01	-5.18582000E-02	 3.64397781E+00	-3.62123908E+00	 5.51001384E-03	 3.97264696E-02
					-1.13205000E-02	-2.48569000E-02	 3.61218000E+00	 1.09862000E-02	-1.74314000E-01	 5.18582000E-02	 3.64397781E+00	-3.97264696E-02	-5.51001384E-03	 3.62123908E+00
					 2.79525000E-03	 2.90104000E-02	 2.40830000E+00	 3.77031000E-04	-1.74823000E-01	-5.66793000E-02	 2.41358799E+00	 5.73268718E-04	 1.71335802E-02	 2.42239880E+00
					-2.79525000E-03	-2.90104000E-02	-2.40830000E+00	 3.77031000E-04	-1.74823000E-01	 5.66793000E-02	 2.41358799E+00	-2.42239880E+00	-1.71335802E-02	-5.73268718E-04
					-2.79525000E-03	-2.90104000E-02	-2.40830000E+00	-3.77031000E-04	-1.74823000E-01	-5.66793000E-02	 2.41358799E+00	-2.42239880E+00	-1.71335802E-02	-5.73268718E-04
					 2.79525000E-03	 2.90104000E-02	 2.40830000E+00	-3.77031000E-04	-1.74823000E-01	 5.66793000E-02	 2.41358799E+00	 5.73268718E-04	 1.71335802E-02	 2.42239880E+00
					 0.00000000E+00	 0.00000000E+00	 0.00000000E+00	 3.77031000E-04	-1.74823000E-01	 0.00000000E+00	 3.02803023E-01	-1.74823407E-01	 0.00000000E+00	 1.74823407E-01
					-2.79525000E-03	-2.90104000E-02	-2.40830000E+00	 0.00000000E+00	-1.74823000E-01	 0.00000000E+00	 2.41159054E+00	-2.42107685E+00	-1.62335470E-02	-2.79525000E-03
					 0.00000000E+00	 0.00000000E+00	 0.00000000E+00	-3.77031000E-04	-1.74823000E-01	 0.00000000E+00	 3.02803023E-01	-1.74823407E-01	 0.00000000E+00	 1.74823407E-01
					 2.79525000E-03	 2.90104000E-02	 2.40830000E+00	 0.00000000E+00	-1.74823000E-01	 0.00000000E+00	 2.41159054E+00	 2.79525000E-03	 1.62335470E-02	 2.42107685E+00
					 9.74885000E-03	-3.88305000E-03	 1.20443000E+00	 1.04526000E-02	-1.75184000E-01	-5.73962000E-02	 1.24338799E+00	-2.89131637E-02	 7.11269699E-03	 1.23209627E+00
					-9.74885000E-03	 3.88305000E-03	-1.20443000E+00	 1.04526000E-02	-1.75184000E-01	 5.73962000E-02	 1.24338799E+00	-1.23209627E+00	-7.11269699E-03	 2.89131637E-02
					-9.74885000E-03	 3.88305000E-03	-1.20443000E+00	-1.04526000E-02	-1.75184000E-01	-5.73962000E-02	 1.24338799E+00	-1.23209627E+00	-7.11269699E-03	 2.89131637E-02
					 9.74885000E-03	-3.88305000E-03	 1.20443000E+00	-1.04526000E-02	-1.75184000E-01	 5.73962000E-02	 1.24338799E+00	-2.89131637E-02	 7.11269699E-03	 1.23209627E+00
					 6.91631000E-03	-3.97417000E-02	 4.57660000E-04	 2.39386000E-02	-1.74835000E-01	-4.92488000E-02	 3.20335247E-01	-1.96763507E-01	-8.71454300E-03	 1.73110320E-01
					-6.91631000E-03	 3.97417000E-02	-4.57660000E-04	 2.39386000E-02	-1.74835000E-01	 4.92488000E-02	 3.20335247E-01	-1.73110320E-01	 8.71454300E-03	 1.96763507E-01
					-6.91631000E-03	 3.97417000E-02	-4.57660000E-04	-2.39386000E-02	-1.74835000E-01	-4.92488000E-02	 3.20335247E-01	-1.73110320E-01	 8.71454300E-03	 1.96763507E-01
					 6.91631000E-03	-3.97417000E-02	 4.57660000E-04	-2.39386000E-02	-1.74835000E-01	 4.92488000E-02	 3.20335247E-01	-1.96763507E-01	-8.71454300E-03	 1.73110320E-01
					 0.00000000E+00	 0.00000000E+00	 0.00000000E+00	 2.39386000E-02	-1.74835000E-01	 0.00000000E+00	 3.05648493E-01	-1.76466240E-01	 0.00000000E+00	 1.76466240E-01
					-6.91631000E-03	 3.97417000E-02	-4.57660000E-04	 0.00000000E+00	-1.74835000E-01	 0.00000000E+00	 3.05972495E-01	-1.56344554E-01	-6.91631000E-03	 1.95628594E-01
					 0.00000000E+00	 0.00000000E+00	 0.00000000E+00	-2.39386000E-02	-1.74835000E-01	 0.00000000E+00	 3.05648493E-01	-1.76466240E-01	 0.00000000E+00	 1.76466240E-01
					 6.91631000E-03	-3.97417000E-02	 4.57660000E-04	 0.00000000E+00	-1.74835000E-01	 0.00000000E+00	 3.05972495E-01	-1.95628594E-01	 6.91631000E-03	 1.56344554E-01
				</DataArray>
			</PointData>
		</Piece>
	</UnstructuredGrid>
</VTKFile>