# vtk DataFile Version 3.0

ASCII
DATASET UNSTRUCTURED_GRID

POINTS 68 double
	-2.50000000E+01	 2.50000000E+01	 0.00000000E+00
	-2.50000000E+01	-2.50000000E+01	 0.00000000E+00
	 2.50000000E+01	-2.50000000E+01	 0.00000000E+00
	 2.50000000E+01	 2.50000000E+01	 0.00000000E+00
	-2.50000000E+01	 0.00000000E+00	 0.00000000E+00
	 0.00000000E+00	-2.50000000E+01	 0.00000000E+00
	 2.50000000E+01	 0.00000000E+00	 0.00000000E+00
	 0.00000000E+00	 2.50000000E+01	 0.00000000E+00
	-2.50000000E+01	 2.50000000E+01	 1.00000000E+02
	-2.50000000E+01	-2.50000000E+01	 1.00000000E+02
	 2.50000000E+01	-2.50000000E+01	 1.00000000E+02
	 2.50000000E+01	 2.50000000E+01	 1.00000000E+02
	-2.50000000E+01	 2.50000000E+01	 2.00000000E+02
	-2.50000000E+01	-2.50000000E+01	 2.00000000E+02
	 2.50000000E+01	-2.50000000E+01	 2.00000000E+02
	 2.50000000E+01	 2.50000000E+01	 2.00000000E+02
	-2.50000000E+01	 0.00000000E+00	 2.00000000E+02
	 0.00000000E+00	-2.50000000E+01	 2.00000000E+02
	 2.50000000E+01	 0.00000000E+00	 2.00000000E+02
	 0.00000000E+00	 2.50000000E+01	 2.00000000E+02
	-2.50000000E+01	 2.50000000E+01	 3.00000000E+02
	-2.50000000E+01	-2.50000000E+01	 3.00000000E+02
	 2.50000000E+01	-2.50000000E+01	 3.00000000E+02
	 2.50000000E+01	 2.50000000E+01	 3.00000000E+02
	-2.50000000E+01	 2.50000000E+01	 4.00000000E+02
	-2.50000000E+01	-2.50000000E+01	 4.00000000E+02
	 2.50000000E+01	-2.50000000E+01	 4.00000000E+02
	 2.50000000E+01	 2.50000000E+01	 4.00000000E+02
	-2.50000000E+01	 0.00000000E+00	 4.00000000E+02
	 0.00000000E+00	-2.50000000E+01	 4.00000000E+02
	 2.50000000E+01	 0.00000000E+00	 4.00000000E+02
	 0.00000000E+00	 2.50000000E+01	 4.00000000E+02
	-2.50000000E+01	 2.50000000E+01	 5.00000000E+02
	-2.50000000E+01	-2.50000000E+01	 5.00000000E+02
	 2.50000000E+01	-2.50000000E+01	 5.00000000E+02
	 2.50000000E+01	 2.50000000E+01	 5.00000000E+02
	-2.50000000E+01	 2.50000000E+01	 6.00000000E+02
	-2.50000000E+01	-2.50000000E+01	 6.00000000E+02
	 2.50000000E+01	-2.50000000E+01	 6.00000000E+02
	 2.50000000E+01	 2.50000000E+01	 6.00000000E+02
	-2.50000000E+01	 0.00000000E+00	 6.00000000E+02
	 0.00000000E+00	-2.50000000E+01	 6.00000000E+02
	 2.50000000E+01	 0.00000000E+00	 6.00000000E+02
	 0.00000000E+00	 2.50000000E+01	 6.00000000E+02
	-2.50000000E+01	 2.50000000E+01	 7.00000000E+02
	-2.50000000E+01	-2.50000000E+01	 7.00000000E+02
	 2.50000000E+01	-2.50000000E+01	 7.00000000E+02
	 2.50000000E+01	 2.50000000E+01	 7.00000000E+02
	-2.50000000E+01	 2.50000000E+01	 8.00000000E+02
	-2.50000000E+01	-2.50000000E+01	 8.00000000E+02
	 2.50000000E+01	-2.50000000E+01	 8.00000000E+02
	 2.50000000E+01	 2.50000000E+01	 8.00000000E+02
	-2.50000000E+01	 0.00000000E+00	 8.00000000E+02
	 0.00000000E+00	-2.50000000E+01	 8.00000000E+02
	 2.50000000E+01	 0.00000000E+00	 8.00000000E+02
	 0.00000000E+00	 2.50000000E+01	 8.00000000E+02
	-2.50000000E+01	 2.50000000E+01	 9.00000000E+02
	-2.50000000E+01	-2.50000000E+01	 9.00000000E+02
	 2.50000000E+01	-2.50000000E+01	 9.00000000E+02
	 2.50000000E+01	 2.50000000E+01	 9.00000000E+02
	-2.50000000E+01	 2.50000000E+01	 1.00000000E+03
	-2.50000000E+01	-2.50000000E+01	 1.00000000E+03
	 2.50000000E+01	-2.50000000E+01	 1.00000000E+03
	 2.50000000E+01	 2.50000000E+01	 1.00000000E+03
	-2.50000000E+01	 0.00000000E+00	 1.00000000E+03
	 0.00000000E+00	-2.50000000E+01	 1.00000000E+03
	 2.50000000E+01	 0.00000000E+00	 1.00000000E+03
	 0.00000000E+00	 2.50000000E+01	 1.00000000E+03

CELLS 5 105
	20 0 12 13 1 3 15 14 2 8 16 9 4 11 18 10 6 7 19 17 5 
	20 12 24 25 13 15 27 26 14 20 28 21 16 23 30 22 18 19 31 29 17 
	20 24 36 37 25 27 39 38 26 32 40 33 28 35 42 34 30 31 43 41 29 
	20 36 48 49 37 39 51 50 38 44 52 45 40 47 54 46 42 43 55 53 41 
	20 48 60 61 49 51 63 62 50 56 64 57 52 59 66 58 54 55 67 65 53 

CELL_TYPES 5
	25
	25
	25
	25
	25

POINT_DATA 68
FIELD U 1
	U 3 68 double
		 0.00000000E+00	 0.00000000E+00	 0.00000000E+00
		 0.00000000E+00	 0.00000000E+00	 0.00000000E+00
		 0.00000000E+00	 0.00000000E+00	 0.00000000E+00
		 0.00000000E+00	 0.00000000E+00	 0.00000000E+00
		 0.00000000E+00	 0.00000000E+00	 0.00000000E+00
		 0.00000000E+00	 0.00000000E+00	 0.00000000E+00
		 0.00000000E+00	 0.00000000E+00	 0.00000000E+00
		 0.00000000E+00	 0.00000000E+00	 0.00000000E+00
		 3.06323000E+00	 3.06323000E+00	 0.00000000E+00
		-3.06323000E+00	 3.06323000E+00	 0.00000000E+00
		-3.06323000E+00	-3.06323000E+00	 0.00000000E+00
		 3.06323000E+00	-3.06323000E+00	 0.00000000E+00
		 6.05118000E+00	 6.05118000E+00	 0.00000000E+00
		-6.05118000E+00	 6.05118000E+00	 0.00000000E+00
		-6.05118000E+00	-6.05118000E+00	 0.00000000E+00
		 6.05118000E+00	-6.05118000E+00	 0.00000000E+00
		 0.00000000E+00	 6.05118000E+00	 0.00000000E+00
		-6.05118000E+00	 0.00000000E+00	 0.00000000E+00
		 0.00000000E+00	-6.05118000E+00	 0.00000000E+00
		 6.05118000E+00	 0.00000000E+00	 0.00000000E+00
		 8.88984000E+00	 8.88984000E+00	 0.00000000E+00
		-8.88984000E+00	 8.88984000E+00	 0.00000000E+00
		-8.88984000E+00	-8.88984000E+00	 0.00000000E+00
		 8.88984000E+00	-8.88984000E+00	 0.00000000E+00
		 1.15100000E+01	 1.15100000E+01	 0.00000000E+00
		-1.15100000E+01	 1.15100000E+01	 0.00000000E+00
		-1.15100000E+01	-1.15100000E+01	 0.00000000E+00
		 1.15100000E+01	-1.15100000E+01	 0.00000000E+00
		 0.00000000E+00	 1.15100000E+01	 0.00000000E+00
		-1.15100000E+01	 0.00000000E+00	 0.00000000E+00
		 0.00000000E+00	-1.15100000E+01	 0.00000000E+00
		 1.15100000E+01	 0.00000000E+00	 0.00000000E+00
		 1.38462000E+01	 1.38462000E+01	 0.00000000E+00
		-1.38462000E+01	 1.38462000E+01	 0.00000000E+00
		-1.38462000E+01	-1.38462000E+01	 0.00000000E+00
		 1.38462000E+01	-1.38462000E+01	 0.00000000E+00
		 1.58422000E+01	 1.58422000E+01	 0.00000000E+00
		-1.58422000E+01	 1.58422000E+01	 0.00000000E+00
		-1.58422000E+01	-1.58422000E+01	 0.00000000E+00
		 1.58422000E+01	-1.58422000E+01	 0.00000000E+00
		 0.00000000E+00	 1.58422000E+01	 0.00000000E+00
		-1.58422000E+01	 0.00000000E+00	 0.00000000E+00
		 0.00000000E+00	-1.58422000E+01	 0.00000000E+00
		 1.58422000E+01	 0.00000000E+00	 0.00000000E+00
		 1.74473000E+01	 1.74473000E+01	 0.00000000E+00
		-1.74473000E+01	 1.74473000E+01	 0.00000000E+00
		-1.74473000E+01	-1.74473000E+01	 0.00000000E+00
		 1.74473000E+01	-1.74473000E+01	 0.00000000E+00
		 1.86236000E+01	 1.86236000E+01	 0.00000000E+00
		-1.86236000E+01	 1.86236000E+01	 0.00000000E+00
		-1.86236000E+01	-1.86236000E+01	 0.00000000E+00
		 1.86236000E+01	-1.86236000E+01	 0.00000000E+00
		 0.00000000E+00	 1.86236000E+01	 0.00000000E+00
		-1.86236000E+01	 0.00000000E+00	 0.00000000E+00
		 0.00000000E+00	-1.86236000E+01	 0.00000000E+00
		 1.86236000E+01	 0.00000000E+00	 0.00000000E+00
		 1.93405000E+01	 1.93405000E+01	 0.00000000E+00
		-1.93405000E+01	 1.93405000E+01	 0.00000000E+00
		-1.93405000E+01	-1.93405000E+01	 0.00000000E+00
		 1.93405000E+01	-1.93405000E+01	 0.00000000E+00
		 1.95820000E+01	 1.95820000E+01	 0.00000000E+00
		-1.95820000E+01	 1.95820000E+01	 0.00000000E+00
		-1.95820000E+01	-1.95820000E+01	 0.00000000E+00
		 1.95820000E+01	-1.95820000E+01	 0.00000000E+00
		 0.00000000E+00	 1.95820000E+01	 0.00000000E+00
		-1.95820000E+01	 0.00000000E+00	 0.00000000E+00
		 0.00000000E+00	-1.95820000E+01	 0.00000000E+00
		 1.95820000E+01	 0.00000000E+00	 0.00000000E+00
