    1C
    1UUSER                                                              
    1UDATE              01.august.2019                                  
    1UTIME              09:27:24                                        
    1UHOST                                                              
    1UPGM               CalculiX                                        
    1UVERSION           Version 2.15                             
    1UCOMPILETIME       Fri 15 Mar 11:57:46 CET 2019                    
    1UDIR                                                               
    1UDBN                                                               
    1UMAT    1WATER                                                     
    2C                            29                                     1
 -1         1 0.00000E+00 0.00000E+00 0.00000E+00
 -1         2 0.00000E+00 0.00000E+00 0.00000E+00
 -1         3 0.00000E+00 0.00000E+00 0.00000E+00
 -1         4-5.00000E+00 0.00000E+00 0.00000E+00
 -1         5-1.00000E+01 0.00000E+00 0.00000E+00
 -1         6-1.00000E+01 0.00000E+00 0.00000E+00
 -1         7-1.00000E+01 0.00000E+00 0.00000E+00
 -1         8-1.00000E+01 3.00000E+00 0.00000E+00
 -1         9-1.00000E+01 6.00000E+00 0.00000E+00
 -1        10-1.00000E+01 6.00000E+00 0.00000E+00
 -1        11-1.00000E+01 6.00000E+00 0.00000E+00
 -1        12-9.50000E+00 6.00000E+00 0.00000E+00
 -1        13-9.00000E+00 6.00000E+00 0.00000E+00
 -1        14-9.00000E+00 6.00000E+00 0.00000E+00
 -1        15-9.00000E+00 6.00000E+00 0.00000E+00
 -1        16 0.00000E+00 6.00000E+00 0.00000E+00
 -1        17 9.00000E+00 6.00000E+00 0.00000E+00
 -1        18 9.00000E+00 6.00000E+00 0.00000E+00
 -1        19 9.00000E+00 6.00000E+00 0.00000E+00
 -1        20 9.50000E+00 6.00000E+00 0.00000E+00
 -1        21 1.00000E+01 6.00000E+00 0.00000E+00
 -1        22 1.00000E+01 6.00000E+00 0.00000E+00
 -1        23 1.00000E+01 6.00000E+00 0.00000E+00
 -1        24 1.00000E+01 3.00000E+00 0.00000E+00
 -1        25 1.00000E+01 0.00000E+00 0.00000E+00
 -1        26 1.00000E+01 0.00000E+00 0.00000E+00
 -1        27 1.00000E+01 0.00000E+00 0.00000E+00
 -1        28 5.00000E+00 0.00000E+00 0.00000E+00
 -1        29 0.00000E+00 0.00000E+00 0.00000E+00
 -3
    3C                            15                                     1
 -1         1   12    0    1
 -2         1         3         2
 -1         2   12    0    1
 -2         3         5         4
 -1         3   12    0    1
 -2         5         7         6
 -1         4   12    0    1
 -2         7         9         8
 -1         5   12    0    1
 -2         9        11        10
 -1         6   12    0    1
 -2        11        13        12
 -1         7   12    0    1
 -2        13        15        14
 -1         8   12    0    1
 -2        15        17        16
 -1         9   12    0    1
 -2        17        19        18
 -1        10   12    0    1
 -2        19        21        20
 -1        11   12    0    1
 -2        21        23        22
 -1        12   12    0    1
 -2        23        25        24
 -1        13   12    0    1
 -2        25        27        26
 -1        14   12    0    1
 -2        27         1        28
 -1        15   11    0    1
 -2         3        29
 -3
 9999
