# vtk DataFile Version 3.0

ASCII
DATASET UNSTRUCTURED_GRID

POINTS 16 double
	 1.00000000E+00	 1.00000000E+00	-1.49012000E-08
	 1.00000000E+00	 0.00000000E+00	-1.49012000E-08
	 1.00000000E+00	 0.00000000E+00	 1.00000000E+00
	 1.00000000E+00	 1.00000000E+00	 1.00000000E+00
	-7.45058000E-09	 1.00000000E+00	-1.49012000E-08
	-7.45058000E-09	 0.00000000E+00	-1.49012000E-08
	-7.45058000E-09	 0.00000000E+00	 1.00000000E+00
	-7.45058000E-09	 1.00000000E+00	 1.00000000E+00
	 5.00000000E-01	 6.41421000E-01	 1.00000000E+00
	 6.41421000E-01	 5.00000000E-01	 1.00000000E+00
	 6.41421000E-01	 5.00000000E-01	 1.20000000E+00
	 5.00000000E-01	 6.41421000E-01	 1.20000000E+00
	 3.58579000E-01	 5.00000000E-01	 1.00000000E+00
	 5.00000000E-01	 3.58579000E-01	 1.00000000E+00
	 5.00000000E-01	 3.58579000E-01	 1.20000000E+00
	 3.58579000E-01	 5.00000000E-01	 1.20000000E+00

CELLS 2 18
	8 0 1 2 3 4 5 6 7 
	8 8 9 10 11 12 13 14 15 

CELL_TYPES 2
	12
	12

POINT_DATA 16
FIELD U 1
	U 3 16 double
		 0.00000000E+00	 0.00000000E+00	 0.00000000E+00
		 0.00000000E+00	 0.00000000E+00	 0.00000000E+00
		 3.71406000E-06	-3.70512000E-06	-1.73329000E-05
		 3.71682000E-06	 3.72566000E-06	-1.73445000E-05
		 0.00000000E+00	 0.00000000E+00	 0.00000000E+00
		 0.00000000E+00	 0.00000000E+00	 0.00000000E+00
		-3.71406000E-06	-3.70512000E-06	-1.73329000E-05
		-3.71681000E-06	 3.72566000E-06	-1.73445000E-05
		 0.00000000E+00	 4.03523000E-05	-2.73464000E-05
		 2.02118000E-05	 2.01335000E-05	-2.73407000E-05
		 2.02234000E-05	 2.01703000E-05	-1.22676000E-04
		 0.00000000E+00	 4.04049000E-05	-1.22701000E-04
		-2.02118000E-05	 2.01335000E-05	-2.73407000E-05
		 0.00000000E+00	-9.37162000E-08	-2.73278000E-05
		 0.00000000E+00	 0.00000000E+00	-1.22627000E-04
		-2.02234000E-05	 2.01703000E-05	-1.22676000E-04
FIELD S 1
	S 10 16 double
		-2.10134000E+00	-2.10134000E+00	-4.90286000E+00	 2.23544000E-06	 3.00898000E-01	 3.00184000E-01	 2.89662984E+00	-4.96592324E+00	-2.10134224E+00	-2.03827452E+00
		-2.09993000E+00	-2.09993000E+00	-4.89957000E+00	-2.22429000E-06	-2.99239000E-01	 2.99962000E-01	 2.89422661E+00	-4.96228789E+00	-2.09993222E+00	-2.03720989E+00
		 9.00256000E-01	 9.00684000E-01	-3.09935000E+00	 2.20354000E-04	-3.00187000E-01	 2.99968000E-01	 4.06679719E+00	-3.14388194E+00	 9.00689169E-01	 9.44782772E-01
		 9.00402000E-01	 8.99941000E-01	-3.10197000E+00	 2.24838000E-04	 2.99964000E-01	 3.00191000E-01	 4.06908049E+00	-3.14647183E+00	 8.99945321E-01	 9.44899507E-01
		-2.10134000E+00	-2.10134000E+00	-4.90286000E+00	-2.23544000E-06	 3.00898000E-01	-3.00184000E-01	 2.89662984E+00	-4.96592324E+00	-2.10134224E+00	-2.03827452E+00
		-2.09993000E+00	-2.09993000E+00	-4.89957000E+00	 2.22429000E-06	-2.99239000E-01	-2.99962000E-01	 2.89422661E+00	-4.96228789E+00	-2.09993222E+00	-2.03720989E+00
		 9.00256000E-01	 9.00684000E-01	-3.09934000E+00	-2.20378000E-04	-3.00187000E-01	-2.99968000E-01	 4.06678736E+00	-3.14387205E+00	 9.00689193E-01	 9.44782857E-01
		 9.00402000E-01	 8.99941000E-01	-3.10197000E+00	-2.24814000E-04	 2.99964000E-01	-3.00191000E-01	 4.06908049E+00	-3.14647183E+00	 8.99945345E-01	 9.44899484E-01
		-2.17472000E-02	-1.37990000E-02	-1.00029000E+02	 0.00000000E+00	 1.79589000E-02	 0.00000000E+00	 1.00011232E+02	-1.00029003E+02	-2.17472000E-02	-1.37957753E-02
		-6.28909000E-03	 6.52009000E-03	-9.99979000E+01	 2.43052000E-03	 9.51524000E-03	 2.63362000E-03	 9.99980177E+01	-9.99979010E+01	-6.73476246E-03	 6.96673717E-03
		-6.62571000E-04	-2.46679000E-02	-1.00006000E+02	-1.83767000E-02	-6.25424000E-03	-2.00595000E-03	 9.99933426E+01	-1.00006000E+02	-3.46140113E-02	 9.28397186E-03
		 1.50901000E-02	 2.78381000E-02	-1.00006000E+02	 0.00000000E+00	 6.82902000E-03	 0.00000000E+00	 1.00027465E+02	-1.00006000E+02	 1.50901000E-02	 2.78385662E-02
		-6.28909000E-03	 6.52009000E-03	-9.99979000E+01	-2.43052000E-03	 9.51524000E-03	-2.63362000E-03	 9.99980177E+01	-9.99979010E+01	-6.73476246E-03	 6.96673717E-03
		 1.90171000E-02	 3.66874000E-02	-9.99438000E+01	 0.00000000E+00	 3.04426000E-02	 0.00000000E+00	 9.99716673E+01	-9.99438093E+01	 1.90171000E-02	 3.66966693E-02
		-6.56711000E-03	-6.73257000E-02	-9.99827000E+01	 0.00000000E+00	 1.00336000E-02	 0.00000000E+00	 9.99457690E+01	-9.99827010E+01	-6.73246924E-02	-6.56711000E-03
		-6.62574000E-04	-2.46679000E-02	-1.00006000E+02	 1.83767000E-02	-6.25424000E-03	 2.00595000E-03	 9.99933426E+01	-1.00006000E+02	-3.46140120E-02	 9.28396954E-03
FIELD CONTACT 1
	CONTACT 6 16 double
		 0.00000000E+00	 0.00000000E+00	 0.00000000E+00	 0.00000000E+00	 0.00000000E+00	 0.00000000E+00
		 0.00000000E+00	 0.00000000E+00	 0.00000000E+00	 0.00000000E+00	 0.00000000E+00	 0.00000000E+00
		 0.00000000E+00	 0.00000000E+00	 0.00000000E+00	 0.00000000E+00	 0.00000000E+00	 0.00000000E+00
		 0.00000000E+00	 0.00000000E+00	 0.00000000E+00	 0.00000000E+00	 0.00000000E+00	 0.00000000E+00
		 0.00000000E+00	 0.00000000E+00	 0.00000000E+00	 0.00000000E+00	 0.00000000E+00	 0.00000000E+00
		 0.00000000E+00	 0.00000000E+00	 0.00000000E+00	 0.00000000E+00	 0.00000000E+00	 0.00000000E+00
		 0.00000000E+00	 0.00000000E+00	 0.00000000E+00	 0.00000000E+00	 0.00000000E+00	 0.00000000E+00
		 0.00000000E+00	 0.00000000E+00	 0.00000000E+00	 0.00000000E+00	 0.00000000E+00	 0.00000000E+00
		-1.00052000E-05	 0.00000000E+00	 3.54080000E-05	 1.00052000E+02	 0.00000000E+00	 9.99574000E-03
		-1.00021000E-05	 1.52793000E-05	 2.01231000E-05	 1.00021000E+02	 6.43351000E-03	 9.08869000E-03
		 0.00000000E+00	 0.00000000E+00	 0.00000000E+00	 0.00000000E+00	 0.00000000E+00	 0.00000000E+00
		 0.00000000E+00	 0.00000000E+00	 0.00000000E+00	 0.00000000E+00	 0.00000000E+00	 0.00000000E+00
		-1.00021000E-05	-1.52793000E-05	 2.01231000E-05	 1.00021000E+02	-6.43351000E-03	 9.08869000E-03
		-9.99303000E-06	 0.00000000E+00	 4.83140000E-06	 9.99303000E+01	 0.00000000E+00	 6.58199000E-03
		 0.00000000E+00	 0.00000000E+00	 0.00000000E+00	 0.00000000E+00	 0.00000000E+00	 0.00000000E+00
		 0.00000000E+00	 0.00000000E+00	 0.00000000E+00	 0.00000000E+00	 0.00000000E+00	 0.00000000E+00
