<?xml version="1.0"?>
<VTKFile type="UnstructuredGrid" version="0.1" byte_order="LittleEndian">
	<UnstructuredGrid>
		<Piece NumberOfPoints="16" NumberOfCells="2">
			<Points>
				<DataArray type="Float64" NumberOfComponents="3" format="ascii">
					 1.00000000E+00	 1.00000000E+00	-1.49012000E-08
					 1.00000000E+00	 0.00000000E+00	-1.49012000E-08
					 1.00000000E+00	 0.00000000E+00	 1.00000000E+00
					 1.00000000E+00	 1.00000000E+00	 1.00000000E+00
					-7.45058000E-09	 1.00000000E+00	-1.49012000E-08
					-7.45058000E-09	 0.00000000E+00	-1.49012000E-08
					-7.45058000E-09	 0.00000000E+00	 1.00000000E+00
					-7.45058000E-09	 1.00000000E+00	 1.00000000E+00
					 5.00000000E-01	 6.41421000E-01	 1.00000000E+00
					 6.41421000E-01	 5.00000000E-01	 1.00000000E+00
					 6.41421000E-01	 5.00000000E-01	 1.20000000E+00
					 5.00000000E-01	 6.41421000E-01	 1.20000000E+00
					 3.58579000E-01	 5.00000000E-01	 1.00000000E+00
					 5.00000000E-01	 3.58579000E-01	 1.00000000E+00
					 5.00000000E-01	 3.58579000E-01	 1.20000000E+00
					 3.58579000E-01	 5.00000000E-01	 1.20000000E+00

				</DataArray>
			</Points>
			<Cells>
				<DataArray type="Int32" Name="connectivity" format="ascii">
					0 1 2 3 4 5 6 7 8 9 10 11 12 13 14 15 
				</DataArray>
				<DataArray type="Int32" Name="offsets" format="ascii">
					8 16 
				</DataArray>
				<DataArray type="UInt8" Name="types" format="ascii">
					12 12 
				</DataArray>
			</Cells>
			<PointData>
				<DataArray type="Float32" Name="U" NumberOfComponents="3" ComponentName0="D1" ComponentName1="D2" ComponentName2="D3" format="ascii">
					 0.00000000E+00	 0.00000000E+00	 0.00000000E+00
					 0.00000000E+00	 0.00000000E+00	 0.00000000E+00
					 7.42688000E-07	-7.41079000E-07	-3.46594000E-06
					 7.43128000E-07	 7.44716000E-07	-3.46780000E-06
					 0.00000000E+00	 0.00000000E+00	 0.00000000E+00
					 0.00000000E+00	 0.00000000E+00	 0.00000000E+00
					-7.42688000E-07	-7.41079000E-07	-3.46594000E-06
					-7.43128000E-07	 7.44716000E-07	-3.46780000E-06
					 0.00000000E+00	 8.06517000E-06	-6.35783000E-06
					 4.04010000E-06	 4.02362000E-06	-6.35632000E-06
					 4.04248000E-06	 4.03181000E-06	-2.54080000E-05
					 0.00000000E+00	 8.07645000E-06	-2.54136000E-05
					-4.04010000E-06	 4.02362000E-06	-6.35632000E-06
					 0.00000000E+00	-1.96243000E-08	-6.35290000E-06
					 0.00000000E+00	 0.00000000E+00	-2.53977000E-05
					-4.04248000E-06	 4.03181000E-06	-2.54080000E-05
				</DataArray>
				<DataArray type="Float32" Name="S" NumberOfComponents="10" ComponentName0="xx" ComponentName1="yy" ComponentName2="zz" ComponentName3="xy" ComponentName4="yz" ComponentName5="zx" ComponentName6="Mises" ComponentName7="Min Principal" ComponentName8="Mid Principal" ComponentName9="Max Principal" format="ascii">
					-4.20131000E-01	-4.20131000E-01	-9.80282000E-01	 8.94526000E-08	 6.01490000E-02	 6.00207000E-02	 5.79163451E-01	-9.92888360E-01	-4.20131089E-01	-4.07524550E-01
					-4.19906000E-01	-4.19906000E-01	-9.79756000E-01	-8.88522000E-08	-5.98553000E-02	 5.99852000E-02	 5.78769959E-01	-9.92301316E-01	-4.19906089E-01	-4.07360595E-01
					 1.80007000E-01	 1.80075000E-01	-6.19789000E-01	 3.54243000E-05	-6.00057000E-02	 5.99855000E-02	 8.13218832E-01	-6.28690911E-01	 1.80076283E-01	 1.88907628E-01
					 1.80030000E-01	 1.79956000E-01	-6.20208000E-01	 3.56061000E-05	 5.99991000E-02	 6.00210000E-02	 8.13590121E-01	-6.29109340E-01	 1.79957230E-01	 1.88930111E-01
					-4.20131000E-01	-4.20131000E-01	-9.80282000E-01	-8.94526000E-08	 6.01490000E-02	-6.00207000E-02	 5.79163451E-01	-9.92888360E-01	-4.20131089E-01	-4.07524550E-01
					-4.19906000E-01	-4.19906000E-01	-9.79756000E-01	 8.88522000E-08	-5.98553000E-02	-5.99852000E-02	 5.78769959E-01	-9.92301316E-01	-4.19906089E-01	-4.07360595E-01
					 1.80007000E-01	 1.80075000E-01	-6.19789000E-01	-3.54278000E-05	-6.00057000E-02	-5.99855000E-02	 8.13218832E-01	-6.28690911E-01	 1.80076287E-01	 1.88907624E-01
					 1.80030000E-01	 1.79956000E-01	-6.20208000E-01	-3.56026000E-05	 5.99991000E-02	-6.00210000E-02	 8.13590121E-01	-6.29109340E-01	 1.79957233E-01	 1.88930107E-01
					-4.43222000E-03	-2.77433000E-03	-2.00059000E+01	 0.00000000E+00	 3.69378000E-03	 0.00000000E+00	 2.00022978E+01	-2.00059007E+01	-4.43222000E-03	-2.77364791E-03
					-1.23259000E-03	 1.39483000E-03	-1.99994000E+01	 4.84762000E-04	 1.90060000E-03	 4.19188000E-04	 1.99994816E+01	-1.99994002E+01	-1.31917543E-03	 1.48160482E-03
					-3.53786000E-05	-4.89543000E-03	-2.00010000E+01	-3.66378000E-03	-1.24363000E-03	-3.94234000E-04	 1.99985362E+01	-2.00010001E+01	-6.86171932E-03	 1.93099585E-03
					 2.98780000E-03	 5.45529000E-03	-2.00012000E+01	 0.00000000E+00	 1.36297000E-03	 0.00000000E+00	 2.00054218E+01	-2.00012001E+01	 2.98780000E-03	 5.45538285E-03
					-1.23259000E-03	 1.39483000E-03	-1.99994000E+01	-4.84762000E-04	 1.90060000E-03	-4.19188000E-04	 1.99994816E+01	-1.99994002E+01	-1.31917543E-03	 1.48160482E-03
					 3.69279000E-03	 7.28973000E-03	-1.99889000E+01	 0.00000000E+00	 5.97215000E-03	 0.00000000E+00	 1.99943942E+01	-1.99889018E+01	 3.69279000E-03	 7.29151367E-03
					-1.33281000E-03	-1.35204000E-02	-1.99967000E+01	 0.00000000E+00	 2.01450000E-03	 0.00000000E+00	 1.99892765E+01	-1.99967002E+01	-1.35201969E-02	-1.33281000E-03
					-3.53790000E-05	-4.89543000E-03	-2.00010000E+01	 3.66378000E-03	-1.24363000E-03	 3.94235000E-04	 1.99985362E+01	-2.00010001E+01	-6.86171941E-03	 1.93099554E-03
				</DataArray>
				<DataArray type="Float32" Name="CONTACT" NumberOfComponents="6" ComponentName0="COPEN" ComponentName1="CSLIP1" ComponentName2="CSLIP2" ComponentName3="CPRESS" ComponentName4="CSHEAR1" ComponentName5="CSHEAR2" format="ascii">
					 0.00000000E+00	 0.00000000E+00	 0.00000000E+00	 0.00000000E+00	 0.00000000E+00	 0.00000000E+00
					 0.00000000E+00	 0.00000000E+00	 0.00000000E+00	 0.00000000E+00	 0.00000000E+00	 0.00000000E+00
					 0.00000000E+00	 0.00000000E+00	 0.00000000E+00	 0.00000000E+00	 0.00000000E+00	 0.00000000E+00
					 0.00000000E+00	 0.00000000E+00	 0.00000000E+00	 0.00000000E+00	 0.00000000E+00	 0.00000000E+00
					 0.00000000E+00	 0.00000000E+00	 0.00000000E+00	 0.00000000E+00	 0.00000000E+00	 0.00000000E+00
					 0.00000000E+00	 0.00000000E+00	 0.00000000E+00	 0.00000000E+00	 0.00000000E+00	 0.00000000E+00
					 0.00000000E+00	 0.00000000E+00	 0.00000000E+00	 0.00000000E+00	 0.00000000E+00	 0.00000000E+00
					 0.00000000E+00	 0.00000000E+00	 0.00000000E+00	 0.00000000E+00	 0.00000000E+00	 0.00000000E+00
					-2.00107000E-06	 0.00000000E+00	 7.07706000E-06	 2.00107000E+01	 0.00000000E+00	 1.99916000E-03
					-2.00037000E-06	 3.05412000E-06	 4.02180000E-06	 2.00037000E+01	 1.28703000E-03	 1.81774000E-03
					 0.00000000E+00	 0.00000000E+00	 0.00000000E+00	 0.00000000E+00	 0.00000000E+00	 0.00000000E+00
					 0.00000000E+00	 0.00000000E+00	 0.00000000E+00	 0.00000000E+00	 0.00000000E+00	 0.00000000E+00
					-2.00037000E-06	-3.05412000E-06	 4.02180000E-06	 2.00037000E+01	-1.28703000E-03	 1.81774000E-03
					-1.99864000E-06	 0.00000000E+00	 9.65153000E-07	 1.99864000E+01	 0.00000000E+00	 1.31563000E-03
					 0.00000000E+00	 0.00000000E+00	 0.00000000E+00	 0.00000000E+00	 0.00000000E+00	 0.00000000E+00
					 0.00000000E+00	 0.00000000E+00	 0.00000000E+00	 0.00000000E+00	 0.00000000E+00	 0.00000000E+00
				</DataArray>
			</PointData>
		</Piece>
	</UnstructuredGrid>
</VTKFile>