# vtk DataFile Version 3.0

ASCII
DATASET UNSTRUCTURED_GRID

POINTS 40 double
	 1.00000000E+00	 1.00000000E+00	 0.00000000E+00
	 1.00000000E+00	 0.00000000E+00	 0.00000000E+00
	 1.00000000E+00	 0.00000000E+00	 1.00000000E+00
	 1.00000000E+00	 1.00000000E+00	 1.00000000E+00
	 0.00000000E+00	 1.00000000E+00	 0.00000000E+00
	 0.00000000E+00	 0.00000000E+00	 0.00000000E+00
	 0.00000000E+00	 0.00000000E+00	 1.00000000E+00
	 0.00000000E+00	 1.00000000E+00	 1.00000000E+00
	 1.00000000E+00	 5.00000000E-01	 0.00000000E+00
	 1.00000000E+00	 0.00000000E+00	 5.00000000E-01
	 1.00000000E+00	 5.00000000E-01	 1.00000000E+00
	 1.00000000E+00	 1.00000000E+00	 5.00000000E-01
	 5.00000000E-01	 1.00000000E+00	 0.00000000E+00
	 5.00000000E-01	 0.00000000E+00	 0.00000000E+00
	 5.00000000E-01	 0.00000000E+00	 1.00000000E+00
	 5.00000000E-01	 1.00000000E+00	 1.00000000E+00
	 0.00000000E+00	 5.00000000E-01	 0.00000000E+00
	 0.00000000E+00	 0.00000000E+00	 5.00000000E-01
	 0.00000000E+00	 5.00000000E-01	 1.00000000E+00
	 0.00000000E+00	 1.00000000E+00	 5.00000000E-01
	 7.50000000E-01	 7.50000000E-01	 1.00000000E+00
	 7.50000000E-01	 2.50000000E-01	 1.00000000E+00
	 7.50000000E-01	 2.50000000E-01	 1.50000000E+00
	 7.50000000E-01	 7.50000000E-01	 1.50000000E+00
	 2.50000000E-01	 7.50000000E-01	 1.00000000E+00
	 2.50000000E-01	 2.50000000E-01	 1.00000000E+00
	 2.50000000E-01	 2.50000000E-01	 1.50000000E+00
	 2.50000000E-01	 7.50000000E-01	 1.50000000E+00
	 7.50000000E-01	 5.00000000E-01	 1.00000000E+00
	 7.50000000E-01	 2.50000000E-01	 1.25000000E+00
	 7.50000000E-01	 5.00000000E-01	 1.50000000E+00
	 7.50000000E-01	 7.50000000E-01	 1.25000000E+00
	 5.00000000E-01	 7.50000000E-01	 1.00000000E+00
	 5.00000000E-01	 2.50000000E-01	 1.00000000E+00
	 5.00000000E-01	 2.50000000E-01	 1.50000000E+00
	 5.00000000E-01	 7.50000000E-01	 1.50000000E+00
	 2.50000000E-01	 5.00000000E-01	 1.00000000E+00
	 2.50000000E-01	 2.50000000E-01	 1.25000000E+00
	 2.50000000E-01	 5.00000000E-01	 1.50000000E+00
	 2.50000000E-01	 7.50000000E-01	 1.25000000E+00

CELLS 2 42
	20 0 1 2 3 4 5 6 7 8 9 10 11 16 17 18 19 12 13 14 15 
	20 20 21 22 23 24 25 26 27 28 29 30 31 36 37 38 39 32 33 34 35 

CELL_TYPES 2
	25
	25

POINT_DATA 40
FIELD U 1
	U 3 40 double
		 0.00000000E+00	 0.00000000E+00	 0.00000000E+00
		 0.00000000E+00	 0.00000000E+00	 0.00000000E+00
		 6.76388000E-05	 4.23917000E-05	-1.32961000E-04
		 6.76388000E-05	-4.23917000E-05	-1.32961000E-04
		 0.00000000E+00	 0.00000000E+00	 0.00000000E+00
		 0.00000000E+00	 0.00000000E+00	 0.00000000E+00
		 1.23170000E-04	 1.60105000E-05	 1.99972000E-05
		 1.23170000E-04	-1.60105000E-05	 1.99972000E-05
		 0.00000000E+00	 0.00000000E+00	 0.00000000E+00
		 2.93356000E-05	-8.38612000E-06	-6.64865000E-05
		 6.71143000E-05	 0.00000000E+00	-2.11063000E-04
		 2.93356000E-05	 8.38612000E-06	-6.64865000E-05
		 0.00000000E+00	 0.00000000E+00	 0.00000000E+00
		 0.00000000E+00	 0.00000000E+00	 0.00000000E+00
		 9.53994000E-05	 2.92017000E-05	-1.04286000E-04
		 9.53994000E-05	-2.92017000E-05	-1.04286000E-04
		 0.00000000E+00	 0.00000000E+00	 0.00000000E+00
		 1.85506000E-05	-2.96797000E-06	 1.00117000E-05
		 1.22639000E-04	 0.00000000E+00	-2.47347000E-06
		 1.85506000E-05	 2.96797000E-06	 1.00117000E-05
		-3.79265000E-03	-2.56587000E-05	-2.92701000E-03
		-3.79265000E-03	 2.56587000E-05	-2.92701000E-03
		 0.00000000E+00	 0.00000000E+00	-2.88906000E-03
		 0.00000000E+00	 0.00000000E+00	-2.88906000E-03
		-3.76632000E-03	 6.22555000E-06	 9.01917000E-04
		-3.76632000E-03	-6.22555000E-06	 9.01917000E-04
		 0.00000000E+00	 0.00000000E+00	 8.70597000E-04
		 0.00000000E+00	 0.00000000E+00	 8.70597000E-04
		-3.79279000E-03	 0.00000000E+00	-2.87142000E-03
		-1.89501000E-03	-8.53946000E-06	-2.90809000E-03
		 0.00000000E+00	 0.00000000E+00	-2.91101000E-03
		-1.89501000E-03	 8.53946000E-06	-2.90809000E-03
		-3.77942000E-03	-9.52870000E-06	-1.00080000E-03
		-3.77942000E-03	 9.52870000E-06	-1.00080000E-03
		 0.00000000E+00	 0.00000000E+00	-1.00961000E-03
		 0.00000000E+00	 0.00000000E+00	-1.00961000E-03
		-3.76637000E-03	 0.00000000E+00	 8.83008000E-04
		-1.88449000E-03	 2.33299000E-06	 8.86306000E-04
		 0.00000000E+00	 0.00000000E+00	 8.78485000E-04
		-1.88449000E-03	-2.33299000E-06	 8.86306000E-04
FIELD RF 1
	RF 3 40 double
		 0.00000000E+00	 0.00000000E+00	 0.00000000E+00
		 0.00000000E+00	 0.00000000E+00	 0.00000000E+00
		 1.49282000E-06	-6.46696000E-08	 1.16292000E-03
		 1.49282000E-06	 6.46696000E-08	 1.16292000E-03
		 0.00000000E+00	 0.00000000E+00	 0.00000000E+00
		 0.00000000E+00	 0.00000000E+00	 0.00000000E+00
		 1.11711000E-06	 1.24041000E-07	 1.12359000E-03
		 1.11711000E-06	-1.24041000E-07	 1.12359000E-03
		 0.00000000E+00	 0.00000000E+00	 0.00000000E+00
		-2.28820000E-06	 2.59029000E-09	 1.12859000E-06
		-8.34444000E-07	 0.00000000E+00	-1.85870000E-03
		-2.28820000E-06	-2.59029000E-09	 1.12859000E-06
		 0.00000000E+00	 0.00000000E+00	 0.00000000E+00
		 0.00000000E+00	 0.00000000E+00	 0.00000000E+00
		-8.41245000E-07	 3.95355000E-07	-2.44997000E-03
		-8.41245000E-07	-3.95355000E-07	-2.44997000E-03
		 0.00000000E+00	 0.00000000E+00	 0.00000000E+00
		 3.78170000E-07	 3.04862000E-07	 3.24096000E-06
		 2.18885000E-06	 0.00000000E+00	-3.02471000E-03
		 3.78170000E-07	-3.04862000E-07	 3.24096000E-06
		 4.31579000E-04	-1.59789000E-06	-1.27392000E-03
		 4.31579000E-04	 1.59789000E-06	-1.27392000E-03
		 0.00000000E+00	 0.00000000E+00	 4.33051000E-04
		 0.00000000E+00	 0.00000000E+00	 4.33051000E-04
		-4.47920000E-04	-1.38659000E-07	 2.40336000E-01
		-4.47920000E-04	 1.38659000E-07	 2.40336000E-01
		 0.00000000E+00	 0.00000000E+00	 4.48110000E-04
		 0.00000000E+00	 0.00000000E+00	 4.48110000E-04
		-1.74429000E-03	 0.00000000E+00	-1.15825000E+00
		-1.75577000E-03	 1.02894000E-06	 2.12985000E-05
		 0.00000000E+00	 0.00000000E+00	-1.74970000E-03
		-1.75577000E-03	-1.02894000E-06	 2.12985000E-05
		 1.58835000E-05	 1.79874000E-06	-5.92805000E-01
		 1.58835000E-05	-1.79874000E-06	-5.92805000E-01
		 0.00000000E+00	 0.00000000E+00	-1.76126000E-03
		 0.00000000E+00	 0.00000000E+00	-1.76126000E-03
		 1.77574000E-03	 0.00000000E+00	-2.72169000E-01
		 1.76614000E-03	-9.19641000E-07	-2.15122000E-05
		 0.00000000E+00	 0.00000000E+00	-1.77276000E-03
		 1.76614000E-03	 9.19641000E-07	-2.15122000E-05
