    1C
    1UUSER                                                              
    1UDATE              01.august.2019                                  
    1UTIME              09:27:45                                        
    1UHOST                                                              
    1UPGM               CalculiX                                        
    1UVERSION           Version 2.15                             
    1UCOMPILETIME       Fri 15 Mar 11:57:46 CET 2019                    
    1UDIR                                                               
    1UDBN                                                               
    1UMAT    1EL                                                        
    1UMAT    2SI1                                                       
    2C                            40                                     1
 -1         1 1.00000E+00 1.00000E+00 0.00000E+00
 -1         2 1.00000E+00 0.00000E+00 0.00000E+00
 -1         3 1.00000E+00 0.00000E+00 1.00000E+00
 -1         4 1.00000E+00 1.00000E+00 1.00000E+00
 -1         5 0.00000E+00 1.00000E+00 0.00000E+00
 -1         6 0.00000E+00 0.00000E+00 0.00000E+00
 -1         7 0.00000E+00 0.00000E+00 1.00000E+00
 -1         8 0.00000E+00 1.00000E+00 1.00000E+00
 -1         9 1.00000E+00 5.00000E-01 0.00000E+00
 -1        10 1.00000E+00 0.00000E+00 5.00000E-01
 -1        11 1.00000E+00 5.00000E-01 1.00000E+00
 -1        12 1.00000E+00 1.00000E+00 5.00000E-01
 -1        13 5.00000E-01 1.00000E+00 0.00000E+00
 -1        14 5.00000E-01 0.00000E+00 0.00000E+00
 -1        15 5.00000E-01 0.00000E+00 1.00000E+00
 -1        16 5.00000E-01 1.00000E+00 1.00000E+00
 -1        17 0.00000E+00 5.00000E-01 0.00000E+00
 -1        18 0.00000E+00 0.00000E+00 5.00000E-01
 -1        19 0.00000E+00 5.00000E-01 1.00000E+00
 -1        20 0.00000E+00 1.00000E+00 5.00000E-01
 -1        21 7.50000E-01 7.50000E-01 1.00000E+00
 -1        22 7.50000E-01 2.50000E-01 1.00000E+00
 -1        23 7.50000E-01 2.50000E-01 1.50000E+00
 -1        24 7.50000E-01 7.50000E-01 1.50000E+00
 -1        25 2.50000E-01 7.50000E-01 1.00000E+00
 -1        26 2.50000E-01 2.50000E-01 1.00000E+00
 -1        27 2.50000E-01 2.50000E-01 1.50000E+00
 -1        28 2.50000E-01 7.50000E-01 1.50000E+00
 -1        29 7.50000E-01 5.00000E-01 1.00000E+00
 -1        30 7.50000E-01 2.50000E-01 1.25000E+00
 -1        31 7.50000E-01 5.00000E-01 1.50000E+00
 -1        32 7.50000E-01 7.50000E-01 1.25000E+00
 -1        33 5.00000E-01 7.50000E-01 1.00000E+00
 -1        34 5.00000E-01 2.50000E-01 1.00000E+00
 -1        35 5.00000E-01 2.50000E-01 1.50000E+00
 -1        36 5.00000E-01 7.50000E-01 1.50000E+00
 -1        37 2.50000E-01 5.00000E-01 1.00000E+00
 -1        38 2.50000E-01 2.50000E-01 1.25000E+00
 -1        39 2.50000E-01 5.00000E-01 1.50000E+00
 -1        40 2.50000E-01 7.50000E-01 1.25000E+00
 -3
    3C                             2                                     1
 -1         1    4    0    1
 -2         1         2         3         4         5         6         7         8         9        10
 -2        11        12        13        14        15        16        17        18        19        20
 -1         2    4    0    1
 -2        21        22        23        24        25        26        27        28        29        30
 -2        31        32        33        34        35        36        37        38        39        40
 -3
    1PSTEP                         1           1           1          
  100CL  101 3.12500E-02          40                     0    1           1
 -4  DISP        4    1
 -5  D1          1    2    1    0
 -5  D2          1    2    2    0
 -5  D3          1    2    3    0
 -5  ALL         1    2    0    0    1ALL
 -1         1 0.00000E+00 0.00000E+00 0.00000E+00
 -1         2 0.00000E+00 0.00000E+00 0.00000E+00
 -1         3 6.76388E-05 4.23917E-05-1.32961E-04
 -1         4 6.76388E-05-4.23917E-05-1.32961E-04
 -1         5 0.00000E+00 0.00000E+00 0.00000E+00
 -1         6 0.00000E+00 0.00000E+00 0.00000E+00
 -1         7 1.23170E-04 1.60105E-05 1.99972E-05
 -1         8 1.23170E-04-1.60105E-05 1.99972E-05
 -1         9 0.00000E+00 0.00000E+00 0.00000E+00
 -1        10 2.93356E-05-8.38612E-06-6.64865E-05
 -1        11 6.71143E-05-1.97466E-18-2.11063E-04
 -1        12 2.93356E-05 8.38612E-06-6.64865E-05
 -1        13 0.00000E+00 0.00000E+00 0.00000E+00
 -1        14 0.00000E+00 0.00000E+00 0.00000E+00
 -1        15 9.53994E-05 2.92017E-05-1.04286E-04
 -1        16 9.53994E-05-2.92017E-05-1.04286E-04
 -1        17 0.00000E+00 0.00000E+00 0.00000E+00
 -1        18 1.85506E-05-2.96797E-06 1.00117E-05
 -1        19 1.22639E-04-2.09813E-18-2.47347E-06
 -1        20 1.85506E-05 2.96797E-06 1.00117E-05
 -1        21-3.79265E-03-2.56587E-05-2.92701E-03
 -1        22-3.79265E-03 2.56587E-05-2.92701E-03
 -1        23 0.00000E+00 0.00000E+00-2.88906E-03
 -1        24 0.00000E+00 0.00000E+00-2.88906E-03
 -1        25-3.76632E-03 6.22555E-06 9.01917E-04
 -1        26-3.76632E-03-6.22555E-06 9.01917E-04
 -1        27 0.00000E+00 0.00000E+00 8.70597E-04
 -1        28 0.00000E+00 0.00000E+00 8.70597E-04
 -1        29-3.79279E-03 1.25128E-16-2.87142E-03
 -1        30-1.89501E-03-8.53946E-06-2.90809E-03
 -1        31 0.00000E+00 0.00000E+00-2.91101E-03
 -1        32-1.89501E-03 8.53946E-06-2.90809E-03
 -1        33-3.77942E-03-9.52870E-06-1.00080E-03
 -1        34-3.77942E-03 9.52870E-06-1.00080E-03
 -1        35 0.00000E+00 0.00000E+00-1.00961E-03
 -1        36 0.00000E+00 0.00000E+00-1.00961E-03
 -1        37-3.76637E-03 1.25435E-16 8.83008E-04
 -1        38-1.88449E-03 2.33299E-06 8.86306E-04
 -1        39 0.00000E+00 0.00000E+00 8.78485E-04
 -1        40-1.88449E-03-2.33299E-06 8.86306E-04
 -3
    1PSTEP                         2           1           1          
  100CL  101 3.12500E-02          40                     0    1           1
 -4  FORC        4    1
 -5  F1          1    2    1    0
 -5  F2          1    2    2    0
 -5  F3          1    2    3    0
 -5  ALL         1    2    0    0    1ALL
 -1         1 0.00000E+00 0.00000E+00 0.00000E+00
 -1         2 0.00000E+00 0.00000E+00 0.00000E+00
 -1         3 1.49282E-06-6.46696E-08 1.16292E-03
 -1         4 1.49282E-06 6.46696E-08 1.16292E-03
 -1         5 0.00000E+00 0.00000E+00 0.00000E+00
 -1         6 0.00000E+00 0.00000E+00 0.00000E+00
 -1         7 1.11711E-06 1.24041E-07 1.12359E-03
 -1         8 1.11711E-06-1.24041E-07 1.12359E-03
 -1         9 0.00000E+00 0.00000E+00 0.00000E+00
 -1        10-2.28820E-06 2.59029E-09 1.12859E-06
 -1        11-8.34444E-07 9.46134E-16-1.85870E-03
 -1        12-2.28820E-06-2.59029E-09 1.12859E-06
 -1        13 0.00000E+00 0.00000E+00 0.00000E+00
 -1        14 0.00000E+00 0.00000E+00 0.00000E+00
 -1        15-8.41245E-07 3.95355E-07-2.44997E-03
 -1        16-8.41245E-07-3.95355E-07-2.44997E-03
 -1        17 0.00000E+00 0.00000E+00 0.00000E+00
 -1        18 3.78170E-07 3.04862E-07 3.24096E-06
 -1        19 2.18885E-06 3.17071E-16-3.02471E-03
 -1        20 3.78170E-07-3.04862E-07 3.24096E-06
 -1        21 4.31579E-04-1.59789E-06-1.27392E-03
 -1        22 4.31579E-04 1.59789E-06-1.27392E-03
 -1        23 0.00000E+00 0.00000E+00 4.33051E-04
 -1        24 0.00000E+00 0.00000E+00 4.33051E-04
 -1        25-4.47920E-04-1.38659E-07 2.40336E-01
 -1        26-4.47920E-04 1.38659E-07 2.40336E-01
 -1        27 0.00000E+00 0.00000E+00 4.48110E-04
 -1        28 0.00000E+00 0.00000E+00 4.48110E-04
 -1        29-1.74429E-03-1.85448E-15-1.15825E+00
 -1        30-1.75577E-03 1.02894E-06 2.12985E-05
 -1        31 0.00000E+00 0.00000E+00-1.74970E-03
 -1        32-1.75577E-03-1.02894E-06 2.12985E-05
 -1        33 1.58835E-05 1.79874E-06-5.92805E-01
 -1        34 1.58835E-05-1.79874E-06-5.92805E-01
 -1        35 0.00000E+00 0.00000E+00-1.76126E-03
 -1        36 0.00000E+00 0.00000E+00-1.76126E-03
 -1        37 1.77574E-03 2.12147E-15-2.72169E-01
 -1        38 1.76614E-03-9.19641E-07-2.15122E-05
 -1        39 0.00000E+00 0.00000E+00-1.77276E-03
 -1        40 1.76614E-03 9.19641E-07-2.15122E-05
 -3
