    1C
    1UUSER                                                              
    1UDATE              01.august.2019                                  
    1UTIME              09:27:49                                        
    1UHOST                                                              
    1UPGM               CalculiX                                        
    1UVERSION           Version 2.15                             
    1UCOMPILETIME       Fri 15 Mar 11:57:46 CET 2019                    
    1UDIR                                                               
    1UDBN                                                               
    1UMAT    1EL                                                        
    1UMAT    2SI1                                                       
    2C                           522                                     1
 -1         1 1.00000E+00 1.00000E+00-5.96046E-08
 -1         2 1.00000E+00 5.00000E-01-5.96046E-08
 -1         3 1.00000E+00 5.00000E-01 1.00000E+00
 -1         4 1.00000E+00 1.00000E+00 1.00000E+00
 -1         5 5.00000E-01 1.00000E+00-5.96046E-08
 -1         6 5.00000E-01 5.00000E-01-5.96046E-08
 -1         7 5.00000E-01 5.00000E-01 1.00000E+00
 -1         8 5.00000E-01 1.00000E+00 1.00000E+00
 -1         9 1.00000E+00 7.50000E-01-5.96046E-08
 -1        10 1.00000E+00 5.00000E-01 5.00000E-01
 -1        11 1.00000E+00 7.50000E-01 1.00000E+00
 -1        12 1.00000E+00 1.00000E+00 5.00000E-01
 -1        13 7.50000E-01 1.00000E+00-5.96046E-08
 -1        14 7.50000E-01 5.00000E-01-5.96046E-08
 -1        15 7.50000E-01 5.00000E-01 1.00000E+00
 -1        16 7.50000E-01 1.00000E+00 1.00000E+00
 -1        17 5.00000E-01 7.50000E-01-5.96046E-08
 -1        18 5.00000E-01 5.00000E-01 5.00000E-01
 -1        19 5.00000E-01 7.50000E-01 1.00000E+00
 -1        20 5.00000E-01 1.00000E+00 5.00000E-01
 -1        21 1.00000E+00-1.49012E-08-5.96046E-08
 -1        22 1.00000E+00-1.49012E-08 1.00000E+00
 -1        23 5.00000E-01-1.49012E-08-5.96046E-08
 -1        24 5.00000E-01-1.49012E-08 1.00000E+00
 -1        25 1.00000E+00 2.50000E-01-5.96046E-08
 -1        26 1.00000E+00-1.49012E-08 5.00000E-01
 -1        27 1.00000E+00 2.50000E-01 1.00000E+00
 -1        28 7.50000E-01-1.49012E-08-5.96046E-08
 -1        29 7.50000E-01-1.49012E-08 1.00000E+00
 -1        30 5.00000E-01 2.50000E-01-5.96046E-08
 -1        31 5.00000E-01-1.49012E-08 5.00000E-01
 -1        32 5.00000E-01 2.50000E-01 1.00000E+00
 -1        33-7.45058E-09 1.00000E+00-5.96046E-08
 -1        34-7.45058E-09 5.00000E-01-5.96046E-08
 -1        35-7.45058E-09 5.00000E-01 1.00000E+00
 -1        36-7.45058E-09 1.00000E+00 1.00000E+00
 -1        37 2.50000E-01 1.00000E+00-5.96046E-08
 -1        38 2.50000E-01 5.00000E-01-5.96046E-08
 -1        39 2.50000E-01 5.00000E-01 1.00000E+00
 -1        40 2.50000E-01 1.00000E+00 1.00000E+00
 -1        41-7.45058E-09 7.50000E-01-5.96046E-08
 -1        42-7.45058E-09 5.00000E-01 5.00000E-01
 -1        43-7.45058E-09 7.50000E-01 1.00000E+00
 -1        44-7.45058E-09 1.00000E+00 5.00000E-01
 -1        45-7.45058E-09-1.49012E-08-5.96046E-08
 -1        46-7.45058E-09-1.49012E-08 1.00000E+00
 -1        47 2.50000E-01-1.49012E-08-5.96046E-08
 -1        48 2.50000E-01-1.49012E-08 1.00000E+00
 -1        49-7.45058E-09 2.50000E-01-5.96046E-08
 -1        50-7.45058E-09-1.49012E-08 5.00000E-01
 -1        51-7.45058E-09 2.50000E-01 1.00000E+00
 -1        52 1.00000E+00 5.00000E-01 2.00000E+00
 -1        53 1.00000E+00 1.00000E+00 2.00000E+00
 -1        54 5.00000E-01 5.00000E-01 2.00000E+00
 -1        55 5.00000E-01 1.00000E+00 2.00000E+00
 -1        56 1.00000E+00 5.00000E-01 1.50000E+00
 -1        57 1.00000E+00 7.50000E-01 2.00000E+00
 -1        58 1.00000E+00 1.00000E+00 1.50000E+00
 -1        59 7.50000E-01 5.00000E-01 2.00000E+00
 -1        60 7.50000E-01 1.00000E+00 2.00000E+00
 -1        61 5.00000E-01 5.00000E-01 1.50000E+00
 -1        62 5.00000E-01 7.50000E-01 2.00000E+00
 -1        63 5.00000E-01 1.00000E+00 1.50000E+00
 -1        64 1.00000E+00-1.49012E-08 2.00000E+00
 -1        65 5.00000E-01-1.49012E-08 2.00000E+00
 -1        66 1.00000E+00-1.49012E-08 1.50000E+00
 -1        67 1.00000E+00 2.50000E-01 2.00000E+00
 -1        68 7.50000E-01-1.49012E-08 2.00000E+00
 -1        69 5.00000E-01-1.49012E-08 1.50000E+00
 -1        70 5.00000E-01 2.50000E-01 2.00000E+00
 -1        71-7.45058E-09 5.00000E-01 2.00000E+00
 -1        72-7.45058E-09 1.00000E+00 2.00000E+00
 -1        73 2.50000E-01 5.00000E-01 2.00000E+00
 -1        74 2.50000E-01 1.00000E+00 2.00000E+00
 -1        75-7.45058E-09 5.00000E-01 1.50000E+00
 -1        76-7.45058E-09 7.50000E-01 2.00000E+00
 -1        77-7.45058E-09 1.00000E+00 1.50000E+00
 -1        78-7.45058E-09-1.49012E-08 2.00000E+00
 -1        79 2.50000E-01-1.49012E-08 2.00000E+00
 -1        80-7.45058E-09-1.49012E-08 1.50000E+00
 -1        81-7.45058E-09 2.50000E-01 2.00000E+00
 -1        82 1.00000E+00 5.00000E-01 3.00000E+00
 -1        83 1.00000E+00 1.00000E+00 3.00000E+00
 -1        84 5.00000E-01 5.00000E-01 3.00000E+00
 -1        85 5.00000E-01 1.00000E+00 3.00000E+00
 -1        86 1.00000E+00 5.00000E-01 2.50000E+00
 -1        87 1.00000E+00 7.50000E-01 3.00000E+00
 -1        88 1.00000E+00 1.00000E+00 2.50000E+00
 -1        89 7.50000E-01 5.00000E-01 3.00000E+00
 -1        90 7.50000E-01 1.00000E+00 3.00000E+00
 -1        91 5.00000E-01 5.00000E-01 2.50000E+00
 -1        92 5.00000E-01 7.50000E-01 3.00000E+00
 -1        93 5.00000E-01 1.00000E+00 2.50000E+00
 -1        94 1.00000E+00-1.49012E-08 3.00000E+00
 -1        95 5.00000E-01-1.49012E-08 3.00000E+00
 -1        96 1.00000E+00-1.49012E-08 2.50000E+00
 -1        97 1.00000E+00 2.50000E-01 3.00000E+00
 -1        98 7.50000E-01-1.49012E-08 3.00000E+00
 -1        99 5.00000E-01-1.49012E-08 2.50000E+00
 -1       100 5.00000E-01 2.50000E-01 3.00000E+00
 -1       101-7.45058E-09 5.00000E-01 3.00000E+00
 -1       102-7.45058E-09 1.00000E+00 3.00000E+00
 -1       103 2.50000E-01 5.00000E-01 3.00000E+00
 -1       104 2.50000E-01 1.00000E+00 3.00000E+00
 -1       105-7.45058E-09 5.00000E-01 2.50000E+00
 -1       106-7.45058E-09 7.50000E-01 3.00000E+00
 -1       107-7.45058E-09 1.00000E+00 2.50000E+00
 -1       108-7.45058E-09-1.49012E-08 3.00000E+00
 -1       109 2.50000E-01-1.49012E-08 3.00000E+00
 -1       110-7.45058E-09-1.49012E-08 2.50000E+00
 -1       111-7.45058E-09 2.50000E-01 3.00000E+00
 -1       112 1.00000E+00 5.00000E-01 4.00000E+00
 -1       113 1.00000E+00 1.00000E+00 4.00000E+00
 -1       114 5.00000E-01 5.00000E-01 4.00000E+00
 -1       115 5.00000E-01 1.00000E+00 4.00000E+00
 -1       116 1.00000E+00 5.00000E-01 3.50000E+00
 -1       117 1.00000E+00 7.50000E-01 4.00000E+00
 -1       118 1.00000E+00 1.00000E+00 3.50000E+00
 -1       119 7.50000E-01 5.00000E-01 4.00000E+00
 -1       120 7.50000E-01 1.00000E+00 4.00000E+00
 -1       121 5.00000E-01 5.00000E-01 3.50000E+00
 -1       122 5.00000E-01 7.50000E-01 4.00000E+00
 -1       123 5.00000E-01 1.00000E+00 3.50000E+00
 -1       124 1.00000E+00-1.49012E-08 4.00000E+00
 -1       125 5.00000E-01-1.49012E-08 4.00000E+00
 -1       126 1.00000E+00-1.49012E-08 3.50000E+00
 -1       127 1.00000E+00 2.50000E-01 4.00000E+00
 -1       128 7.50000E-01-1.49012E-08 4.00000E+00
 -1       129 5.00000E-01-1.49012E-08 3.50000E+00
 -1       130 5.00000E-01 2.50000E-01 4.00000E+00
 -1       131-7.45058E-09 5.00000E-01 4.00000E+00
 -1       132-7.45058E-09 1.00000E+00 4.00000E+00
 -1       133 2.50000E-01 5.00000E-01 4.00000E+00
 -1       134 2.50000E-01 1.00000E+00 4.00000E+00
 -1       135-7.45058E-09 5.00000E-01 3.50000E+00
 -1       136-7.45058E-09 7.50000E-01 4.00000E+00
 -1       137-7.45058E-09 1.00000E+00 3.50000E+00
 -1       138-7.45058E-09-1.49012E-08 4.00000E+00
 -1       139 2.50000E-01-1.49012E-08 4.00000E+00
 -1       140-7.45058E-09-1.49012E-08 3.50000E+00
 -1       141-7.45058E-09 2.50000E-01 4.00000E+00
 -1       142 1.00000E+00 5.00000E-01 5.00000E+00
 -1       143 1.00000E+00 1.00000E+00 5.00000E+00
 -1       144 5.00000E-01 5.00000E-01 5.00000E+00
 -1       145 5.00000E-01 1.00000E+00 5.00000E+00
 -1       146 1.00000E+00 5.00000E-01 4.50000E+00
 -1       147 1.00000E+00 7.50000E-01 5.00000E+00
 -1       148 1.00000E+00 1.00000E+00 4.50000E+00
 -1       149 7.50000E-01 5.00000E-01 5.00000E+00
 -1       150 7.50000E-01 1.00000E+00 5.00000E+00
 -1       151 5.00000E-01 5.00000E-01 4.50000E+00
 -1       152 5.00000E-01 7.50000E-01 5.00000E+00
 -1       153 5.00000E-01 1.00000E+00 4.50000E+00
 -1       154 1.00000E+00-1.49012E-08 5.00000E+00
 -1       155 5.00000E-01-1.49012E-08 5.00000E+00
 -1       156 1.00000E+00-1.49012E-08 4.50000E+00
 -1       157 1.00000E+00 2.50000E-01 5.00000E+00
 -1       158 7.50000E-01-1.49012E-08 5.00000E+00
 -1       159 5.00000E-01-1.49012E-08 4.50000E+00
 -1       160 5.00000E-01 2.50000E-01 5.00000E+00
 -1       161-7.45058E-09 5.00000E-01 5.00000E+00
 -1       162-7.45058E-09 1.00000E+00 5.00000E+00
 -1       163 2.50000E-01 5.00000E-01 5.00000E+00
 -1       164 2.50000E-01 1.00000E+00 5.00000E+00
 -1       165-7.45058E-09 5.00000E-01 4.50000E+00
 -1       166-7.45058E-09 7.50000E-01 5.00000E+00
 -1       167-7.45058E-09 1.00000E+00 4.50000E+00
 -1       168-7.45058E-09-1.49012E-08 5.00000E+00
 -1       169 2.50000E-01-1.49012E-08 5.00000E+00
 -1       170-7.45058E-09-1.49012E-08 4.50000E+00
 -1       171-7.45058E-09 2.50000E-01 5.00000E+00
 -1       172 1.00000E+00 5.00000E-01 6.00000E+00
 -1       173 1.00000E+00 1.00000E+00 6.00000E+00
 -1       174 5.00000E-01 5.00000E-01 6.00000E+00
 -1       175 5.00000E-01 1.00000E+00 6.00000E+00
 -1       176 1.00000E+00 5.00000E-01 5.50000E+00
 -1       177 1.00000E+00 7.50000E-01 6.00000E+00
 -1       178 1.00000E+00 1.00000E+00 5.50000E+00
 -1       179 7.50000E-01 5.00000E-01 6.00000E+00
 -1       180 7.50000E-01 1.00000E+00 6.00000E+00
 -1       181 5.00000E-01 5.00000E-01 5.50000E+00
 -1       182 5.00000E-01 7.50000E-01 6.00000E+00
 -1       183 5.00000E-01 1.00000E+00 5.50000E+00
 -1       184 1.00000E+00-1.49012E-08 6.00000E+00
 -1       185 5.00000E-01-1.49012E-08 6.00000E+00
 -1       186 1.00000E+00-1.49012E-08 5.50000E+00
 -1       187 1.00000E+00 2.50000E-01 6.00000E+00
 -1       188 7.50000E-01-1.49012E-08 6.00000E+00
 -1       189 5.00000E-01-1.49012E-08 5.50000E+00
 -1       190 5.00000E-01 2.50000E-01 6.00000E+00
 -1       191-7.45058E-09 5.00000E-01 6.00000E+00
 -1       192-7.45058E-09 1.00000E+00 6.00000E+00
 -1       193 2.50000E-01 5.00000E-01 6.00000E+00
 -1       194 2.50000E-01 1.00000E+00 6.00000E+00
 -1       195-7.45058E-09 5.00000E-01 5.50000E+00
 -1       196-7.45058E-09 7.50000E-01 6.00000E+00
 -1       197-7.45058E-09 1.00000E+00 5.50000E+00
 -1       198-7.45058E-09-1.49012E-08 6.00000E+00
 -1       199 2.50000E-01-1.49012E-08 6.00000E+00
 -1       200-7.45058E-09-1.49012E-08 5.50000E+00
 -1       201-7.45058E-09 2.50000E-01 6.00000E+00
 -1       202 1.00000E+00 5.00000E-01 7.00000E+00
 -1       203 1.00000E+00 1.00000E+00 7.00000E+00
 -1       204 5.00000E-01 5.00000E-01 7.00000E+00
 -1       205 5.00000E-01 1.00000E+00 7.00000E+00
 -1       206 1.00000E+00 5.00000E-01 6.50000E+00
 -1       207 1.00000E+00 7.50000E-01 7.00000E+00
 -1       208 1.00000E+00 1.00000E+00 6.50000E+00
 -1       209 7.50000E-01 5.00000E-01 7.00000E+00
 -1       210 7.50000E-01 1.00000E+00 7.00000E+00
 -1       211 5.00000E-01 5.00000E-01 6.50000E+00
 -1       212 5.00000E-01 7.50000E-01 7.00000E+00
 -1       213 5.00000E-01 1.00000E+00 6.50000E+00
 -1       214 1.00000E+00-1.49012E-08 7.00000E+00
 -1       215 5.00000E-01-1.49012E-08 7.00000E+00
 -1       216 1.00000E+00-1.49012E-08 6.50000E+00
 -1       217 1.00000E+00 2.50000E-01 7.00000E+00
 -1       218 7.50000E-01-1.49012E-08 7.00000E+00
 -1       219 5.00000E-01-1.49012E-08 6.50000E+00
 -1       220 5.00000E-01 2.50000E-01 7.00000E+00
 -1       221-7.45058E-09 5.00000E-01 7.00000E+00
 -1       222-7.45058E-09 1.00000E+00 7.00000E+00
 -1       223 2.50000E-01 5.00000E-01 7.00000E+00
 -1       224 2.50000E-01 1.00000E+00 7.00000E+00
 -1       225-7.45058E-09 5.00000E-01 6.50000E+00
 -1       226-7.45058E-09 7.50000E-01 7.00000E+00
 -1       227-7.45058E-09 1.00000E+00 6.50000E+00
 -1       228-7.45058E-09-1.49012E-08 7.00000E+00
 -1       229 2.50000E-01-1.49012E-08 7.00000E+00
 -1       230-7.45058E-09-1.49012E-08 6.50000E+00
 -1       231-7.45058E-09 2.50000E-01 7.00000E+00
 -1       232 1.00000E+00 5.00000E-01 8.00000E+00
 -1       233 1.00000E+00 1.00000E+00 8.00000E+00
 -1       234 5.00000E-01 5.00000E-01 8.00000E+00
 -1       235 5.00000E-01 1.00000E+00 8.00000E+00
 -1       236 1.00000E+00 5.00000E-01 7.50000E+00
 -1       237 1.00000E+00 7.50000E-01 8.00000E+00
 -1       238 1.00000E+00 1.00000E+00 7.50000E+00
 -1       239 7.50000E-01 5.00000E-01 8.00000E+00
 -1       240 7.50000E-01 1.00000E+00 8.00000E+00
 -1       241 5.00000E-01 5.00000E-01 7.50000E+00
 -1       242 5.00000E-01 7.50000E-01 8.00000E+00
 -1       243 5.00000E-01 1.00000E+00 7.50000E+00
 -1       244 1.00000E+00-1.49012E-08 8.00000E+00
 -1       245 5.00000E-01-1.49012E-08 8.00000E+00
 -1       246 1.00000E+00-1.49012E-08 7.50000E+00
 -1       247 1.00000E+00 2.50000E-01 8.00000E+00
 -1       248 7.50000E-01-1.49012E-08 8.00000E+00
 -1       249 5.00000E-01-1.49012E-08 7.50000E+00
 -1       250 5.00000E-01 2.50000E-01 8.00000E+00
 -1       251-7.45058E-09 5.00000E-01 8.00000E+00
 -1       252-7.45058E-09 1.00000E+00 8.00000E+00
 -1       253 2.50000E-01 5.00000E-01 8.00000E+00
 -1       254 2.50000E-01 1.00000E+00 8.00000E+00
 -1       255-7.45058E-09 5.00000E-01 7.50000E+00
 -1       256-7.45058E-09 7.50000E-01 8.00000E+00
 -1       257-7.45058E-09 1.00000E+00 7.50000E+00
 -1       258-7.45058E-09-1.49012E-08 8.00000E+00
 -1       259 2.50000E-01-1.49012E-08 8.00000E+00
 -1       260-7.45058E-09-1.49012E-08 7.50000E+00
 -1       261-7.45058E-09 2.50000E-01 8.00000E+00
 -1       262 1.00000E+00 2.50000E+00-5.96046E-08
 -1       263 1.00000E+00 2.00000E+00-5.96046E-08
 -1       264 1.00000E+00 2.00000E+00 1.00000E+00
 -1       265 1.00000E+00 2.50000E+00 1.00000E+00
 -1       266 5.00000E-01 2.50000E+00-5.96046E-08
 -1       267 5.00000E-01 2.00000E+00-5.96046E-08
 -1       268 5.00000E-01 2.00000E+00 1.00000E+00
 -1       269 5.00000E-01 2.50000E+00 1.00000E+00
 -1       270 1.00000E+00 2.25000E+00-5.96046E-08
 -1       271 1.00000E+00 2.00000E+00 5.00000E-01
 -1       272 1.00000E+00 2.25000E+00 1.00000E+00
 -1       273 1.00000E+00 2.50000E+00 5.00000E-01
 -1       274 7.50000E-01 2.50000E+00-5.96046E-08
 -1       275 7.50000E-01 2.00000E+00-5.96046E-08
 -1       276 7.50000E-01 2.00000E+00 1.00000E+00
 -1       277 7.50000E-01 2.50000E+00 1.00000E+00
 -1       278 5.00000E-01 2.25000E+00-5.96046E-08
 -1       279 5.00000E-01 2.00000E+00 5.00000E-01
 -1       280 5.00000E-01 2.25000E+00 1.00000E+00
 -1       281 5.00000E-01 2.50000E+00 5.00000E-01
 -1       282 1.00000E+00 1.50000E+00-5.96046E-08
 -1       283 1.00000E+00 1.50000E+00 1.00000E+00
 -1       284 5.00000E-01 1.50000E+00-5.96046E-08
 -1       285 5.00000E-01 1.50000E+00 1.00000E+00
 -1       286 1.00000E+00 1.75000E+00-5.96046E-08
 -1       287 1.00000E+00 1.50000E+00 5.00000E-01
 -1       288 1.00000E+00 1.75000E+00 1.00000E+00
 -1       289 7.50000E-01 1.50000E+00-5.96046E-08
 -1       290 7.50000E-01 1.50000E+00 1.00000E+00
 -1       291 5.00000E-01 1.75000E+00-5.96046E-08
 -1       292 5.00000E-01 1.50000E+00 5.00000E-01
 -1       293 5.00000E-01 1.75000E+00 1.00000E+00
 -1       294-7.45058E-09 2.50000E+00-5.96046E-08
 -1       295-7.45058E-09 2.00000E+00-5.96046E-08
 -1       296-7.45058E-09 2.00000E+00 1.00000E+00
 -1       297-7.45058E-09 2.50000E+00 1.00000E+00
 -1       298 2.50000E-01 2.50000E+00-5.96046E-08
 -1       299 2.50000E-01 2.00000E+00-5.96046E-08
 -1       300 2.50000E-01 2.00000E+00 1.00000E+00
 -1       301 2.50000E-01 2.50000E+00 1.00000E+00
 -1       302-7.45058E-09 2.25000E+00-5.96046E-08
 -1       303-7.45058E-09 2.00000E+00 5.00000E-01
 -1       304-7.45058E-09 2.25000E+00 1.00000E+00
 -1       305-7.45058E-09 2.50000E+00 5.00000E-01
 -1       306-7.45058E-09 1.50000E+00-5.96046E-08
 -1       307-7.45058E-09 1.50000E+00 1.00000E+00
 -1       308 2.50000E-01 1.50000E+00-5.96046E-08
 -1       309 2.50000E-01 1.50000E+00 1.00000E+00
 -1       310-7.45058E-09 1.75000E+00-5.96046E-08
 -1       311-7.45058E-09 1.50000E+00 5.00000E-01
 -1       312-7.45058E-09 1.75000E+00 1.00000E+00
 -1       313 1.00000E+00 2.00000E+00 2.00000E+00
 -1       314 1.00000E+00 2.50000E+00 2.00000E+00
 -1       315 5.00000E-01 2.00000E+00 2.00000E+00
 -1       316 5.00000E-01 2.50000E+00 2.00000E+00
 -1       317 1.00000E+00 2.00000E+00 1.50000E+00
 -1       318 1.00000E+00 2.25000E+00 2.00000E+00
 -1       319 1.00000E+00 2.50000E+00 1.50000E+00
 -1       320 7.50000E-01 2.00000E+00 2.00000E+00
 -1       321 7.50000E-01 2.50000E+00 2.00000E+00
 -1       322 5.00000E-01 2.00000E+00 1.50000E+00
 -1       323 5.00000E-01 2.25000E+00 2.00000E+00
 -1       324 5.00000E-01 2.50000E+00 1.50000E+00
 -1       325 1.00000E+00 1.50000E+00 2.00000E+00
 -1       326 5.00000E-01 1.50000E+00 2.00000E+00
 -1       327 1.00000E+00 1.50000E+00 1.50000E+00
 -1       328 1.00000E+00 1.75000E+00 2.00000E+00
 -1       329 7.50000E-01 1.50000E+00 2.00000E+00
 -1       330 5.00000E-01 1.50000E+00 1.50000E+00
 -1       331 5.00000E-01 1.75000E+00 2.00000E+00
 -1       332-7.45058E-09 2.00000E+00 2.00000E+00
 -1       333-7.45058E-09 2.50000E+00 2.00000E+00
 -1       334 2.50000E-01 2.00000E+00 2.00000E+00
 -1       335 2.50000E-01 2.50000E+00 2.00000E+00
 -1       336-7.45058E-09 2.00000E+00 1.50000E+00
 -1       337-7.45058E-09 2.25000E+00 2.00000E+00
 -1       338-7.45058E-09 2.50000E+00 1.50000E+00
 -1       339-7.45058E-09 1.50000E+00 2.00000E+00
 -1       340 2.50000E-01 1.50000E+00 2.00000E+00
 -1       341-7.45058E-09 1.50000E+00 1.50000E+00
 -1       342-7.45058E-09 1.75000E+00 2.00000E+00
 -1       343 1.00000E+00 2.00000E+00 3.00000E+00
 -1       344 1.00000E+00 2.50000E+00 3.00000E+00
 -1       345 5.00000E-01 2.00000E+00 3.00000E+00
 -1       346 5.00000E-01 2.50000E+00 3.00000E+00
 -1       347 1.00000E+00 2.00000E+00 2.50000E+00
 -1       348 1.00000E+00 2.25000E+00 3.00000E+00
 -1       349 1.00000E+00 2.50000E+00 2.50000E+00
 -1       350 7.50000E-01 2.00000E+00 3.00000E+00
 -1       351 7.50000E-01 2.50000E+00 3.00000E+00
 -1       352 5.00000E-01 2.00000E+00 2.50000E+00
 -1       353 5.00000E-01 2.25000E+00 3.00000E+00
 -1       354 5.00000E-01 2.50000E+00 2.50000E+00
 -1       355 1.00000E+00 1.50000E+00 3.00000E+00
 -1       356 5.00000E-01 1.50000E+00 3.00000E+00
 -1       357 1.00000E+00 1.50000E+00 2.50000E+00
 -1       358 1.00000E+00 1.75000E+00 3.00000E+00
 -1       359 7.50000E-01 1.50000E+00 3.00000E+00
 -1       360 5.00000E-01 1.50000E+00 2.50000E+00
 -1       361 5.00000E-01 1.75000E+00 3.00000E+00
 -1       362-7.45058E-09 2.00000E+00 3.00000E+00
 -1       363-7.45058E-09 2.50000E+00 3.00000E+00
 -1       364 2.50000E-01 2.00000E+00 3.00000E+00
 -1       365 2.50000E-01 2.50000E+00 3.00000E+00
 -1       366-7.45058E-09 2.00000E+00 2.50000E+00
 -1       367-7.45058E-09 2.25000E+00 3.00000E+00
 -1       368-7.45058E-09 2.50000E+00 2.50000E+00
 -1       369-7.45058E-09 1.50000E+00 3.00000E+00
 -1       370 2.50000E-01 1.50000E+00 3.00000E+00
 -1       371-7.45058E-09 1.50000E+00 2.50000E+00
 -1       372-7.45058E-09 1.75000E+00 3.00000E+00
 -1       373 1.00000E+00 2.00000E+00 4.00000E+00
 -1       374 1.00000E+00 2.50000E+00 4.00000E+00
 -1       375 5.00000E-01 2.00000E+00 4.00000E+00
 -1       376 5.00000E-01 2.50000E+00 4.00000E+00
 -1       377 1.00000E+00 2.00000E+00 3.50000E+00
 -1       378 1.00000E+00 2.25000E+00 4.00000E+00
 -1       379 1.00000E+00 2.50000E+00 3.50000E+00
 -1       380 7.50000E-01 2.00000E+00 4.00000E+00
 -1       381 7.50000E-01 2.50000E+00 4.00000E+00
 -1       382 5.00000E-01 2.00000E+00 3.50000E+00
 -1       383 5.00000E-01 2.25000E+00 4.00000E+00
 -1       384 5.00000E-01 2.50000E+00 3.50000E+00
 -1       385 1.00000E+00 1.50000E+00 4.00000E+00
 -1       386 5.00000E-01 1.50000E+00 4.00000E+00
 -1       387 1.00000E+00 1.50000E+00 3.50000E+00
 -1       388 1.00000E+00 1.75000E+00 4.00000E+00
 -1       389 7.50000E-01 1.50000E+00 4.00000E+00
 -1       390 5.00000E-01 1.50000E+00 3.50000E+00
 -1       391 5.00000E-01 1.75000E+00 4.00000E+00
 -1       392-7.45058E-09 2.00000E+00 4.00000E+00
 -1       393-7.45058E-09 2.50000E+00 4.00000E+00
 -1       394 2.50000E-01 2.00000E+00 4.00000E+00
 -1       395 2.50000E-01 2.50000E+00 4.00000E+00
 -1       396-7.45058E-09 2.00000E+00 3.50000E+00
 -1       397-7.45058E-09 2.25000E+00 4.00000E+00
 -1       398-7.45058E-09 2.50000E+00 3.50000E+00
 -1       399-7.45058E-09 1.50000E+00 4.00000E+00
 -1       400 2.50000E-01 1.50000E+00 4.00000E+00
 -1       401-7.45058E-09 1.50000E+00 3.50000E+00
 -1       402-7.45058E-09 1.75000E+00 4.00000E+00
 -1       403 1.00000E+00 2.00000E+00 5.00000E+00
 -1       404 1.00000E+00 2.50000E+00 5.00000E+00
 -1       405 5.00000E-01 2.00000E+00 5.00000E+00
 -1       406 5.00000E-01 2.50000E+00 5.00000E+00
 -1       407 1.00000E+00 2.00000E+00 4.50000E+00
 -1       408 1.00000E+00 2.25000E+00 5.00000E+00
 -1       409 1.00000E+00 2.50000E+00 4.50000E+00
 -1       410 7.50000E-01 2.00000E+00 5.00000E+00
 -1       411 7.50000E-01 2.50000E+00 5.00000E+00
 -1       412 5.00000E-01 2.00000E+00 4.50000E+00
 -1       413 5.00000E-01 2.25000E+00 5.00000E+00
 -1       414 5.00000E-01 2.50000E+00 4.50000E+00
 -1       415 1.00000E+00 1.50000E+00 5.00000E+00
 -1       416 5.00000E-01 1.50000E+00 5.00000E+00
 -1       417 1.00000E+00 1.50000E+00 4.50000E+00
 -1       418 1.00000E+00 1.75000E+00 5.00000E+00
 -1       419 7.50000E-01 1.50000E+00 5.00000E+00
 -1       420 5.00000E-01 1.50000E+00 4.50000E+00
 -1       421 5.00000E-01 1.75000E+00 5.00000E+00
 -1       422-7.45058E-09 2.00000E+00 5.00000E+00
 -1       423-7.45058E-09 2.50000E+00 5.00000E+00
 -1       424 2.50000E-01 2.00000E+00 5.00000E+00
 -1       425 2.50000E-01 2.50000E+00 5.00000E+00
 -1       426-7.45058E-09 2.00000E+00 4.50000E+00
 -1       427-7.45058E-09 2.25000E+00 5.00000E+00
 -1       428-7.45058E-09 2.50000E+00 4.50000E+00
 -1       429-7.45058E-09 1.50000E+00 5.00000E+00
 -1       430 2.50000E-01 1.50000E+00 5.00000E+00
 -1       431-7.45058E-09 1.50000E+00 4.50000E+00
 -1       432-7.45058E-09 1.75000E+00 5.00000E+00
 -1       433 1.00000E+00 2.00000E+00 6.00000E+00
 -1       434 1.00000E+00 2.50000E+00 6.00000E+00
 -1       435 5.00000E-01 2.00000E+00 6.00000E+00
 -1       436 5.00000E-01 2.50000E+00 6.00000E+00
 -1       437 1.00000E+00 2.00000E+00 5.50000E+00
 -1       438 1.00000E+00 2.25000E+00 6.00000E+00
 -1       439 1.00000E+00 2.50000E+00 5.50000E+00
 -1       440 7.50000E-01 2.00000E+00 6.00000E+00
 -1       441 7.50000E-01 2.50000E+00 6.00000E+00
 -1       442 5.00000E-01 2.00000E+00 5.50000E+00
 -1       443 5.00000E-01 2.25000E+00 6.00000E+00
 -1       444 5.00000E-01 2.50000E+00 5.50000E+00
 -1       445 1.00000E+00 1.50000E+00 6.00000E+00
 -1       446 5.00000E-01 1.50000E+00 6.00000E+00
 -1       447 1.00000E+00 1.50000E+00 5.50000E+00
 -1       448 1.00000E+00 1.75000E+00 6.00000E+00
 -1       449 7.50000E-01 1.50000E+00 6.00000E+00
 -1       450 5.00000E-01 1.50000E+00 5.50000E+00
 -1       451 5.00000E-01 1.75000E+00 6.00000E+00
 -1       452-7.45058E-09 2.00000E+00 6.00000E+00
 -1       453-7.45058E-09 2.50000E+00 6.00000E+00
 -1       454 2.50000E-01 2.00000E+00 6.00000E+00
 -1       455 2.50000E-01 2.50000E+00 6.00000E+00
 -1       456-7.45058E-09 2.00000E+00 5.50000E+00
 -1       457-7.45058E-09 2.25000E+00 6.00000E+00
 -1       458-7.45058E-09 2.50000E+00 5.50000E+00
 -1       459-7.45058E-09 1.50000E+00 6.00000E+00
 -1       460 2.50000E-01 1.50000E+00 6.00000E+00
 -1       461-7.45058E-09 1.50000E+00 5.50000E+00
 -1       462-7.45058E-09 1.75000E+00 6.00000E+00
 -1       463 1.00000E+00 2.00000E+00 7.00000E+00
 -1       464 1.00000E+00 2.50000E+00 7.00000E+00
 -1       465 5.00000E-01 2.00000E+00 7.00000E+00
 -1       466 5.00000E-01 2.50000E+00 7.00000E+00
 -1       467 1.00000E+00 2.00000E+00 6.50000E+00
 -1       468 1.00000E+00 2.25000E+00 7.00000E+00
 -1       469 1.00000E+00 2.50000E+00 6.50000E+00
 -1       470 7.50000E-01 2.00000E+00 7.00000E+00
 -1       471 7.50000E-01 2.50000E+00 7.00000E+00
 -1       472 5.00000E-01 2.00000E+00 6.50000E+00
 -1       473 5.00000E-01 2.25000E+00 7.00000E+00
 -1       474 5.00000E-01 2.50000E+00 6.50000E+00
 -1       475 1.00000E+00 1.50000E+00 7.00000E+00
 -1       476 5.00000E-01 1.50000E+00 7.00000E+00
 -1       477 1.00000E+00 1.50000E+00 6.50000E+00
 -1       478 1.00000E+00 1.75000E+00 7.00000E+00
 -1       479 7.50000E-01 1.50000E+00 7.00000E+00
 -1       480 5.00000E-01 1.50000E+00 6.50000E+00
 -1       481 5.00000E-01 1.75000E+00 7.00000E+00
 -1       482-7.45058E-09 2.00000E+00 7.00000E+00
 -1       483-7.45058E-09 2.50000E+00 7.00000E+00
 -1       484 2.50000E-01 2.00000E+00 7.00000E+00
 -1       485 2.50000E-01 2.50000E+00 7.00000E+00
 -1       486-7.45058E-09 2.00000E+00 6.50000E+00
 -1       487-7.45058E-09 2.25000E+00 7.00000E+00
 -1       488-7.45058E-09 2.50000E+00 6.50000E+00
 -1       489-7.45058E-09 1.50000E+00 7.00000E+00
 -1       490 2.50000E-01 1.50000E+00 7.00000E+00
 -1       491-7.45058E-09 1.50000E+00 6.50000E+00
 -1       492-7.45058E-09 1.75000E+00 7.00000E+00
 -1       493 1.00000E+00 2.00000E+00 8.00000E+00
 -1       494 1.00000E+00 2.50000E+00 8.00000E+00
 -1       495 5.00000E-01 2.00000E+00 8.00000E+00
 -1       496 5.00000E-01 2.50000E+00 8.00000E+00
 -1       497 1.00000E+00 2.00000E+00 7.50000E+00
 -1       498 1.00000E+00 2.25000E+00 8.00000E+00
 -1       499 1.00000E+00 2.50000E+00 7.50000E+00
 -1       500 7.50000E-01 2.00000E+00 8.00000E+00
 -1       501 7.50000E-01 2.50000E+00 8.00000E+00
 -1       502 5.00000E-01 2.00000E+00 7.50000E+00
 -1       503 5.00000E-01 2.25000E+00 8.00000E+00
 -1       504 5.00000E-01 2.50000E+00 7.50000E+00
 -1       505 1.00000E+00 1.50000E+00 8.00000E+00
 -1       506 5.00000E-01 1.50000E+00 8.00000E+00
 -1       507 1.00000E+00 1.50000E+00 7.50000E+00
 -1       508 1.00000E+00 1.75000E+00 8.00000E+00
 -1       509 7.50000E-01 1.50000E+00 8.00000E+00
 -1       510 5.00000E-01 1.50000E+00 7.50000E+00
 -1       511 5.00000E-01 1.75000E+00 8.00000E+00
 -1       512-7.45058E-09 2.00000E+00 8.00000E+00
 -1       513-7.45058E-09 2.50000E+00 8.00000E+00
 -1       514 2.50000E-01 2.00000E+00 8.00000E+00
 -1       515 2.50000E-01 2.50000E+00 8.00000E+00
 -1       516-7.45058E-09 2.00000E+00 7.50000E+00
 -1       517-7.45058E-09 2.25000E+00 8.00000E+00
 -1       518-7.45058E-09 2.50000E+00 7.50000E+00
 -1       519-7.45058E-09 1.50000E+00 8.00000E+00
 -1       520 2.50000E-01 1.50000E+00 8.00000E+00
 -1       521-7.45058E-09 1.50000E+00 7.50000E+00
 -1       522-7.45058E-09 1.75000E+00 8.00000E+00
 -3
    3C                            64                                     1
 -1         1    4    0    1
 -2         1         2         3         4         5         6         7         8         9        10
 -2        11        12        13        14        15        16        17        18        19        20
 -1         2    4    0    1
 -2         2        21        22         3         6        23        24         7        25        26
 -2        27        10        14        28        29        15        30        31        32        18
 -1         3    4    0    1
 -2         5         6         7         8        33        34        35        36        17        18
 -2        19        20        37        38        39        40        41        42        43        44
 -1         4    4    0    1
 -2         6        23        24         7        34        45        46        35        30        31
 -2        32        18        38        47        48        39        49        50        51        42
 -1         5    4    0    1
 -2         4         3        52        53         8         7        54        55        11        56
 -2        57        58        16        15        59        60        19        61        62        63
 -1         6    4    0    1
 -2         3        22        64        52         7        24        65        54        27        66
 -2        67        56        15        29        68        59        32        69        70        61
 -1         7    4    0    1
 -2         8         7        54        55        36        35        71        72        19        61
 -2        62        63        40        39        73        74        43        75        76        77
 -1         8    4    0    1
 -2         7        24        65        54        35        46        78        71        32        69
 -2        70        61        39        48        79        73        51        80        81        75
 -1         9    4    0    1
 -2        53        52        82        83        55        54        84        85        57        86
 -2        87        88        60        59        89        90        62        91        92        93
 -1        10    4    0    1
 -2        52        64        94        82        54        65        95        84        67        96
 -2        97        86        59        68        98        89        70        99       100        91
 -1        11    4    0    1
 -2        55        54        84        85        72        71       101       102        62        91
 -2        92        93        74        73       103       104        76       105       106       107
 -1        12    4    0    1
 -2        54        65        95        84        71        78       108       101        70        99
 -2       100        91        73        79       109       103        81       110       111       105
 -1        13    4    0    1