<?xml version="1.0"?>
<VTKFile type="UnstructuredGrid" version="0.1" byte_order="LittleEndian">
	<UnstructuredGrid>
		<Piece NumberOfPoints="28" NumberOfCells="2">
			<Points>
				<DataArray type="Float64" NumberOfComponents="3" format="ascii">
					 1.00000000E+00	 1.00000000E+00	-1.49012000E-08
					 1.00000000E+00	 0.00000000E+00	-1.49012000E-08
					 1.00000000E+00	 0.00000000E+00	 1.00000000E+00
					 1.00000000E+00	 1.00000000E+00	 1.00000000E+00
					-7.45058000E-09	 1.00000000E+00	-1.49012000E-08
					-7.45058000E-09	 0.00000000E+00	-1.49012000E-08
					-7.45058000E-09	 0.00000000E+00	 1.00000000E+00
					-7.45058000E-09	 1.00000000E+00	 1.00000000E+00
					 6.41422000E-01	 5.00000000E-01	 1.20000000E+00
					 5.00000000E-01	 3.58578000E-01	 1.20000000E+00
					 5.00000000E-01	 3.58578000E-01	 1.00000000E+00
					 6.41422000E-01	 5.00000000E-01	 1.00000000E+00
					 5.70711000E-01	 4.29289000E-01	 1.20000000E+00
					 5.00000000E-01	 3.58578000E-01	 1.10000000E+00
					 5.70711000E-01	 4.29289000E-01	 1.00000000E+00
					 6.41422000E-01	 5.00000000E-01	 1.10000000E+00
					 5.00000000E-01	 6.41422000E-01	 1.20000000E+00
					 3.58578000E-01	 5.00000000E-01	 1.20000000E+00
					 3.58578000E-01	 5.00000000E-01	 1.00000000E+00
					 5.00000000E-01	 6.41422000E-01	 1.00000000E+00
					 4.29289000E-01	 5.70711000E-01	 1.20000000E+00
					 3.58578000E-01	 5.00000000E-01	 1.10000000E+00
					 4.29289000E-01	 5.70711000E-01	 1.00000000E+00
					 5.00000000E-01	 6.41422000E-01	 1.10000000E+00
					 5.70711000E-01	 5.70711000E-01	 1.20000000E+00
					 4.29289000E-01	 4.29289000E-01	 1.20000000E+00
					 4.29289000E-01	 4.29289000E-01	 1.00000000E+00
					 5.70711000E-01	 5.70711000E-01	 1.00000000E+00

				</DataArray>
			</Points>
			<Cells>
				<DataArray type="Int32" Name="connectivity" format="ascii">
					0 1 2 3 4 5 6 7 16 8 9 17 19 11 10 18 24 12 25 20 27 14 26 22 23 15 13 21 
				</DataArray>
				<DataArray type="Int32" Name="offsets" format="ascii">
					8 28 
				</DataArray>
				<DataArray type="UInt8" Name="types" format="ascii">
					12 25 
				</DataArray>
			</Cells>
			<PointData>
				<DataArray type="Float32" Name="U" NumberOfComponents="3" ComponentName0="D1" ComponentName1="D2" ComponentName2="D3" format="ascii">
					 0.00000000E+00	 0.00000000E+00	 0.00000000E+00
					 0.00000000E+00	 0.00000000E+00	 0.00000000E+00
					 0.00000000E+00	 0.00000000E+00	-1.00468000E-05
					 0.00000000E+00	 0.00000000E+00	-1.00014000E-05
					 0.00000000E+00	 0.00000000E+00	 0.00000000E+00
					 0.00000000E+00	 0.00000000E+00	 0.00000000E+00
					 0.00000000E+00	 0.00000000E+00	-1.45592000E-05
					 0.00000000E+00	 0.00000000E+00	-1.45015000E-05
					-3.12464000E-03	-2.78737000E-05	 3.97938000E-03
					-2.96911000E-03	-5.89801000E-05	-4.80512000E-04
					 3.14170000E-03	 3.68791000E-05	-3.43432000E-04
					 2.95206000E-03	 4.99746000E-05	 3.91299000E-03
					-3.05840000E-03	-2.89708000E-05	 1.72727000E-03
					 2.22536000E-05	 5.63347000E-06	-4.01624000E-04
					 3.02620000E-03	 5.09768000E-05	 1.85224000E-03
					-4.44488000E-05	-7.05605000E-06	 3.93922000E-03
					-3.07033000E-03	-4.22045000E-05	-3.01977000E-04
					-3.00315000E-03	-1.52502000E-05	-4.75066000E-03
					 3.02825000E-03	 6.59291000E-05	-4.42192000E-03
					 3.04523000E-03	-8.47443000E-06	-3.60132000E-04
					-3.02229000E-03	-4.08847000E-05	-2.50764000E-03
					 8.07731000E-05	-1.05582000E-05	-4.59846000E-03
					 3.05507000E-03	 1.82087000E-05	-2.43437000E-03
					-5.88746000E-05	 1.23346000E-05	-3.18597000E-04
					-3.07677000E-03	-1.86290000E-05	 1.75271000E-03
					-2.99658000E-03	-4.64704000E-05	-2.52868000E-03
					 3.07445000E-03	 2.83573000E-05	-2.50802000E-03
					 2.99890000E-03	 3.67421000E-05	 1.92106000E-03
				</DataArray>
				<DataArray type="Float32" Name="RF" NumberOfComponents="3" ComponentName0="F1" ComponentName1="F2" ComponentName2="F3" format="ascii">
					 0.00000000E+00	 0.00000000E+00	 0.00000000E+00
					 0.00000000E+00	 0.00000000E+00	 0.00000000E+00
					 0.00000000E+00	 0.00000000E+00	 0.00000000E+00
					 0.00000000E+00	 0.00000000E+00	 0.00000000E+00
					 0.00000000E+00	 0.00000000E+00	 0.00000000E+00
					 0.00000000E+00	 0.00000000E+00	 0.00000000E+00
					 0.00000000E+00	 0.00000000E+00	 0.00000000E+00
					 0.00000000E+00	 0.00000000E+00	 0.00000000E+00
					 0.00000000E+00	 0.00000000E+00	 3.19161000E-06
					-4.35121000E-06	-2.67862000E-06	 3.13053000E-06
					-4.26520000E-06	-2.51710000E-06	-2.91372000E-06
					 2.18930000E-07	-4.03379000E-08	-2.91176000E-06
					-8.20133000E-06	 5.03662000E-06	-1.24420000E-05
					 1.96814000E-07	 1.03353000E-05	-1.32574000E-07
					-9.02890000E-06	 5.07012000E-06	 1.19357000E-05
					-1.72640000E-05	-1.60928000E-07	-5.26190000E-07
					 0.00000000E+00	 0.00000000E+00	 3.04853000E-06
					-4.28922000E-06	-2.61650000E-06	 2.83094000E-06
					-4.43258000E-06	-2.60326000E-06	-3.34172000E-06
					 1.17880000E-07	-5.58283000E-08	-2.99696000E-06
					 8.83784000E-06	-5.16712000E-06	-1.19309000E-05
					 1.72031000E-05	 1.57781000E-07	 7.54885000E-07
					 8.35622000E-06	-4.97407000E-06	-3.00820000E-03
					-1.16995000E-07	-1.03379000E-05	-1.25665000E-07
					 0.00000000E+00	 0.00000000E+00	-1.24817000E-05
					 1.73119000E-05	 1.05571000E-05	-1.18869000E-05
					 1.69867000E-05	 1.04579000E-05	-3.10566000E-03
					-7.29982000E-07	 1.71489000E-07	 1.18817000E-05
				</DataArray>
			</PointData>
		</Piece>
	</UnstructuredGrid>
</VTKFile>