<?xml version="1.0"?>
<VTKFile type="UnstructuredGrid" version="0.1" byte_order="LittleEndian">
	<UnstructuredGrid>
		<Piece NumberOfPoints="2960" NumberOfCells="632">
			<Points>
				<DataArray type="Float64" NumberOfComponents="3" format="ascii">
					 0.00000000E+00	 0.00000000E+00	 0.00000000E+00
					 1.25000000E-01	 0.00000000E+00	 0.00000000E+00
					 2.50000000E-01	 0.00000000E+00	 0.00000000E+00
					 3.75000000E-01	 0.00000000E+00	 0.00000000E+00
					 5.00000000E-01	 0.00000000E+00	 0.00000000E+00
					 6.25000000E-01	 0.00000000E+00	 0.00000000E+00
					 7.50000000E-01	 0.00000000E+00	 0.00000000E+00
					 8.75000000E-01	 0.00000000E+00	 0.00000000E+00
					 1.00000000E+00	 0.00000000E+00	 0.00000000E+00
					 1.00000000E+00	 0.00000000E+00	 1.25000000E-01
					 1.00000000E+00	 0.00000000E+00	 2.50000000E-01
					 1.00000000E+00	 0.00000000E+00	 3.75000000E-01
					 1.00000000E+00	 0.00000000E+00	 5.00000000E-01
					 1.00000000E+00	 0.00000000E+00	 6.25000000E-01
					 1.00000000E+00	 0.00000000E+00	 7.50000000E-01
					 1.00000000E+00	 0.00000000E+00	 8.75000000E-01
					 1.00000000E+00	 0.00000000E+00	 1.00000000E+00
					 8.75000000E-01	 0.00000000E+00	 1.00000000E+00
					 7.50000000E-01	 0.00000000E+00	 1.00000000E+00
					 6.25000000E-01	 0.00000000E+00	 1.00000000E+00
					 5.00000000E-01	 0.00000000E+00	 1.00000000E+00
					 3.75000000E-01	 0.00000000E+00	 1.00000000E+00
					 2.50000000E-01	 0.00000000E+00	 1.00000000E+00
					 1.25000000E-01	 0.00000000E+00	 1.00000000E+00
					 0.00000000E+00	 0.00000000E+00	 1.00000000E+00
					 0.00000000E+00	 0.00000000E+00	 8.75000000E-01
					 0.00000000E+00	 0.00000000E+00	 7.50000000E-01
					 0.00000000E+00	 0.00000000E+00	 6.25000000E-01
					 0.00000000E+00	 0.00000000E+00	 5.00000000E-01
					 0.00000000E+00	 0.00000000E+00	 3.75000000E-01
					 0.00000000E+00	 0.00000000E+00	 2.50000000E-01
					 0.00000000E+00	 0.00000000E+00	 1.25000000E-01
					 5.00000000E-01	 0.00000000E+00	 8.75000000E-01
					 5.00000000E-01	 0.00000000E+00	 7.50000000E-01
					 5.00000000E-01	 0.00000000E+00	 6.25000000E-01
					 5.00000000E-01	 0.00000000E+00	 5.00000000E-01
					 5.00000000E-01	 0.00000000E+00	 3.75000000E-01
					 5.00000000E-01	 0.00000000E+00	 2.50000000E-01
					 5.00000000E-01	 0.00000000E+00	 1.25000000E-01
					 6.25000000E-01	 0.00000000E+00	 5.00000000E-01
					 7.50000000E-01	 0.00000000E+00	 5.00000000E-01
					 8.75000000E-01	 0.00000000E+00	 5.00000000E-01
					 7.50000000E-01	 0.00000000E+00	 6.25000000E-01
					 7.50000000E-01	 0.00000000E+00	 7.50000000E-01
					 7.50000000E-01	 0.00000000E+00	 8.75000000E-01
					 6.25000000E-01	 0.00000000E+00	 7.50000000E-01
					 6.25000000E-01	 0.00000000E+00	 6.25000000E-01
					 6.25000000E-01	 0.00000000E+00	 8.75000000E-01
					 8.75000000E-01	 0.00000000E+00	 7.50000000E-01
					 8.75000000E-01	 0.00000000E+00	 6.25000000E-01
					 8.75000000E-01	 0.00000000E+00	 8.75000000E-01
					 7.50000000E-01	 0.00000000E+00	 1.25000000E-01
					 7.50000000E-01	 0.00000000E+00	 2.50000000E-01
					 7.50000000E-01	 0.00000000E+00	 3.75000000E-01
					 6.25000000E-01	 0.00000000E+00	 2.50000000E-01
					 6.25000000E-01	 0.00000000E+00	 1.25000000E-01
					 6.25000000E-01	 0.00000000E+00	 3.75000000E-01
					 8.75000000E-01	 0.00000000E+00	 2.50000000E-01
					 8.75000000E-01	 0.00000000E+00	 1.25000000E-01
					 8.75000000E-01	 0.00000000E+00	 3.75000000E-01
					 1.25000000E-01	 0.00000000E+00	 5.00000000E-01
					 2.50000000E-01	 0.00000000E+00	 5.00000000E-01
					 3.75000000E-01	 0.00000000E+00	 5.00000000E-01
					 2.50000000E-01	 0.00000000E+00	 6.25000000E-01
					 2.50000000E-01	 0.00000000E+00	 7.50000000E-01
					 2.50000000E-01	 0.00000000E+00	 8.75000000E-01
					 1.25000000E-01	 0.00000000E+00	 7.50000000E-01
					 1.25000000E-01	 0.00000000E+00	 6.25000000E-01
					 1.25000000E-01	 0.00000000E+00	 8.75000000E-01
					 3.75000000E-01	 0.00000000E+00	 7.50000000E-01
					 3.75000000E-01	 0.00000000E+00	 6.25000000E-01
					 3.75000000E-01	 0.00000000E+00	 8.75000000E-01
					 2.50000000E-01	 0.00000000E+00	 1.25000000E-01
					 2.50000000E-01	 0.00000000E+00	 2.50000000E-01
					 2.50000000E-01	 0.00000000E+00	 3.75000000E-01
					 1.25000000E-01	 0.00000000E+00	 2.50000000E-01
					 1.25000000E-01	 0.00000000E+00	 1.25000000E-01
					 1.25000000E-01	 0.00000000E+00	 3.75000000E-01
					 3.75000000E-01	 0.00000000E+00	 2.50000000E-01
					 3.75000000E-01	 0.00000000E+00	 1.25000000E-01
					 3.75000000E-01	 0.00000000E+00	 3.75000000E-01
					 7.50000000E-01	 1.25000000E-01	 7.50000000E-01
					 6.25000000E-01	 1.25000000E-01	 7.50000000E-01
					 6.25000000E-01	 1.25000000E-01	 6.25000000E-01
					 7.50000000E-01	 1.25000000E-01	 6.25000000E-01
					 7.50000000E-01	 2.50000000E-01	 7.50000000E-01
					 6.25000000E-01	 2.50000000E-01	 7.50000000E-01
					 6.25000000E-01	 2.50000000E-01	 6.25000000E-01
					 7.50000000E-01	 2.50000000E-01	 6.25000000E-01
					 7.50000000E-01	 3.75000000E-01	 7.50000000E-01
					 6.25000000E-01	 3.75000000E-01	 7.50000000E-01
					 6.25000000E-01	 3.75000000E-01	 6.25000000E-01
					 7.50000000E-01	 3.75000000E-01	 6.25000000E-01
					 7.50000000E-01	 5.00000000E-01	 7.50000000E-01
					 6.25000000E-01	 5.00000000E-01	 7.50000000E-01
					 6.25000000E-01	 5.00000000E-01	 6.25000000E-01
					 7.50000000E-01	 5.00000000E-01	 6.25000000E-01
					 7.50000000E-01	 6.25000000E-01	 7.50000000E-01
					 6.25000000E-01	 6.25000000E-01	 7.50000000E-01
					 6.25000000E-01	 6.25000000E-01	 6.25000000E-01
					 7.50000000E-01	 6.25000000E-01	 6.25000000E-01
					 7.50000000E-01	 7.50000000E-01	 7.50000000E-01
					 6.25000000E-01	 7.50000000E-01	 7.50000000E-01
					 6.25000000E-01	 7.50000000E-01	 6.25000000E-01
					 7.50000000E-01	 7.50000000E-01	 6.25000000E-01
					 7.50000000E-01	 8.75000000E-01	 7.50000000E-01
					 6.25000000E-01	 8.75000000E-01	 7.50000000E-01
					 6.25000000E-01	 8.75000000E-01	 6.25000000E-01
					 7.50000000E-01	 8.75000000E-01	 6.25000000E-01
					 7.50000000E-01	 1.00000000E+00	 7.50000000E-01
					 6.25000000E-01	 1.00000000E+00	 7.50000000E-01
					 6.25000000E-01	 1.00000000E+00	 6.25000000E-01
					 7.50000000E-01	 1.00000000E+00	 6.25000000E-01
					 6.25000000E-01	 1.25000000E-01	 5.00000000E-01
					 7.50000000E-01	 1.25000000E-01	 5.00000000E-01
					 6.25000000E-01	 2.50000000E-01	 5.00000000E-01
					 7.50000000E-01	 2.50000000E-01	 5.00000000E-01
					 6.25000000E-01	 3.75000000E-01	 5.00000000E-01
					 7.50000000E-01	 3.75000000E-01	 5.00000000E-01
					 6.25000000E-01	 5.00000000E-01	 5.00000000E-01
					 7.50000000E-01	 5.00000000E-01	 5.00000000E-01
					 6.25000000E-01	 6.25000000E-01	 5.00000000E-01
					 7.50000000E-01	 6.25000000E-01	 5.00000000E-01
					 6.25000000E-01	 7.50000000E-01	 5.00000000E-01
					 7.50000000E-01	 7.50000000E-01	 5.00000000E-01
					 6.25000000E-01	 8.75000000E-01	 5.00000000E-01
					 7.50000000E-01	 8.75000000E-01	 5.00000000E-01
					 6.25000000E-01	 1.00000000E+00	 5.00000000E-01
					 7.50000000E-01	 1.00000000E+00	 5.00000000E-01
					 5.00000000E-01	 1.25000000E-01	 7.50000000E-01
					 5.00000000E-01	 1.25000000E-01	 6.25000000E-01
					 5.00000000E-01	 2.50000000E-01	 7.50000000E-01
					 5.00000000E-01	 2.50000000E-01	 6.25000000E-01
					 5.00000000E-01	 3.75000000E-01	 7.50000000E-01
					 5.00000000E-01	 3.75000000E-01	 6.25000000E-01
					 5.00000000E-01	 5.00000000E-01	 7.50000000E-01
					 5.00000000E-01	 5.00000000E-01	 6.25000000E-01
					 5.00000000E-01	 6.25000000E-01	 7.50000000E-01
					 5.00000000E-01	 6.25000000E-01	 6.25000000E-01
					 5.00000000E-01	 7.50000000E-01	 7.50000000E-01
					 5.00000000E-01	 7.50000000E-01	 6.25000000E-01
					 5.00000000E-01	 8.75000000E-01	 7.50000000E-01
					 5.00000000E-01	 8.75000000E-01	 6.25000000E-01
					 5.00000000E-01	 1.00000000E+00	 7.50000000E-01
					 5.00000000E-01	 1.00000000E+00	 6.25000000E-01
					 5.00000000E-01	 1.25000000E-01	 5.00000000E-01
					 5.00000000E-01	 2.50000000E-01	 5.00000000E-01
					 5.00000000E-01	 3.75000000E-01	 5.00000000E-01
					 5.00000000E-01	 5.00000000E-01	 5.00000000E-01
					 5.00000000E-01	 6.25000000E-01	 5.00000000E-01
					 5.00000000E-01	 7.50000000E-01	 5.00000000E-01
					 5.00000000E-01	 8.75000000E-01	 5.00000000E-01
					 5.00000000E-01	 1.00000000E+00	 5.00000000E-01
					 6.25000000E-01	 1.25000000E-01	 3.75000000E-01
					 7.50000000E-01	 1.25000000E-01	 3.75000000E-01
					 6.25000000E-01	 2.50000000E-01	 3.75000000E-01
					 7.50000000E-01	 2.50000000E-01	 3.75000000E-01
					 6.25000000E-01	 3.75000000E-01	 3.75000000E-01
					 7.50000000E-01	 3.75000000E-01	 3.75000000E-01
					 6.25000000E-01	 5.00000000E-01	 3.75000000E-01
					 7.50000000E-01	 5.00000000E-01	 3.75000000E-01
					 6.25000000E-01	 6.25000000E-01	 3.75000000E-01
					 7.50000000E-01	 6.25000000E-01	 3.75000000E-01
					 6.25000000E-01	 7.50000000E-01	 3.75000000E-01
					 7.50000000E-01	 7.50000000E-01	 3.75000000E-01
					 6.25000000E-01	 8.75000000E-01	 3.75000000E-01
					 7.50000000E-01	 8.75000000E-01	 3.75000000E-01
					 6.25000000E-01	 1.00000000E+00	 3.75000000E-01
					 7.50000000E-01	 1.00000000E+00	 3.75000000E-01
					 1.25000000E-01	 1.25000000E-01	 7.50000000E-01
					 0.00000000E+00	 1.25000000E-01	 7.50000000E-01
					 0.00000000E+00	 1.25000000E-01	 6.25000000E-01
					 1.25000000E-01	 1.25000000E-01	 6.25000000E-01
					 1.25000000E-01	 2.50000000E-01	 7.50000000E-01
					 0.00000000E+00	 2.50000000E-01	 7.50000000E-01
					 0.00000000E+00	 2.50000000E-01	 6.25000000E-01
					 1.25000000E-01	 2.50000000E-01	 6.25000000E-01
					 1.25000000E-01	 3.75000000E-01	 7.50000000E-01
					 0.00000000E+00	 3.75000000E-01	 7.50000000E-01
					 0.00000000E+00	 3.75000000E-01	 6.25000000E-01
					 1.25000000E-01	 3.75000000E-01	 6.25000000E-01
					 1.25000000E-01	 5.00000000E-01	 7.50000000E-01
					 0.00000000E+00	 5.00000000E-01	 7.50000000E-01
[...]
			<PointData>
				<DataArray type="Float32" Name="U" NumberOfComponents="3" ComponentName0="D1" ComponentName1="D2" ComponentName2="D3" format="ascii">
					 0.00000000E+00	 0.00000000E+00	 0.00000000E+00
					 0.00000000E+00	 0.00000000E+00	 0.00000000E+00
					 0.00000000E+00	 0.00000000E+00	 0.00000000E+00
					 0.00000000E+00	 0.00000000E+00	 0.00000000E+00
					 0.00000000E+00	 0.00000000E+00	 0.00000000E+00
					 0.00000000E+00	 0.00000000E+00	 0.00000000E+00
					 0.00000000E+00	 0.00000000E+00	 0.00000000E+00
					 0.00000000E+00	 0.00000000E+00	 0.00000000E+00
					 0.00000000E+00	 0.00000000E+00	 0.00000000E+00
					 1.12597000E-05	-1.19387000E-05	-2.20478000E-05
					 2.42466000E-05	-1.47831000E-05	-3.66730000E-05
					 4.19307000E-05	-1.41906000E-05	-4.94066000E-05
					 6.37729000E-05	-1.16282000E-05	-6.07066000E-05
					 8.92974000E-05	-7.85381000E-06	-7.03522000E-05
					 1.18008000E-04	-3.16865000E-06	-7.84169000E-05
					 1.50038000E-04	 2.35139000E-06	-8.51629000E-05
					 1.88162000E-04	 9.44571000E-06	-9.03879000E-05
					 1.84788000E-04	 1.25805000E-05	-5.60263000E-05
					 1.81558000E-04	 1.43608000E-05	-2.86034000E-05
					 1.79704000E-04	 1.55293000E-05	-4.27870000E-06
					 1.79440000E-04	 1.63783000E-05	 1.87230000E-05
					 1.80871000E-04	 1.71191000E-05	 4.17496000E-05
					 1.83918000E-04	 1.79475000E-05	 6.61481000E-05
					 1.88361000E-04	 1.91077000E-05	 9.35970000E-05
					 1.93032000E-04	 2.12584000E-05	 1.27593000E-04
					 1.55591000E-04	 2.08697000E-05	 1.17486000E-04
					 1.23756000E-04	 1.98649000E-05	 1.05915000E-04
					 9.50195000E-05	 1.91766000E-05	 9.30386000E-05
					 6.93031000E-05	 1.87549000E-05	 7.86780000E-05
					 4.70698000E-05	 1.82936000E-05	 6.28071000E-05
					 2.86530000E-05	 1.69759000E-05	 4.57442000E-05
					 1.42665000E-05	 1.32322000E-05	 2.70088000E-05
					 1.47547000E-04	 1.28186000E-05	 1.62514000E-05
					 1.15761000E-04	 9.61024000E-06	 1.37640000E-05
					 8.59296000E-05	 6.91676000E-06	 1.12695000E-05
					 5.90902000E-05	 4.76609000E-06	 8.81101000E-06
					 3.60321000E-05	 3.14631000E-06	 6.42303000E-06
					 1.76415000E-05	 1.99642000E-06	 4.16330000E-06
					 5.05735000E-06	 1.17889000E-06	 2.09183000E-06
					 5.88588000E-05	 8.86919000E-07	-5.52355000E-06
					 5.95215000E-05	-3.12741000E-06	-2.11189000E-05
					 6.11491000E-05	-7.27982000E-06	-3.91577000E-05
					 8.59499000E-05	-3.93492000E-09	-2.42914000E-05
					 1.15566000E-04	 3.97093000E-06	-2.64398000E-05
					 1.47866000E-04	 8.79286000E-06	-2.76679000E-05
					 1.15378000E-04	 6.93872000E-06	-5.57711000E-06
					 8.55816000E-05	 3.56121000E-06	-5.80993000E-06
					 1.47336000E-04	 1.09828000E-05	-4.95814000E-06
					 1.16350000E-04	 5.87191000E-07	-5.03695000E-05
					 8.71380000E-05	-3.81287000E-06	-4.54626000E-05
					 1.48740000E-04	 5.97594000E-06	-5.36867000E-05
					 5.53331000E-06	-5.31200000E-06	-7.02025000E-06
					 1.85345000E-05	-6.29598000E-06	-1.22446000E-05
					 3.68349000E-05	-5.33265000E-06	-1.70399000E-05
					 1.76107000E-05	-2.12226000E-06	-3.61780000E-06
					 5.01348000E-06	-2.02738000E-06	-2.26009000E-06
					 3.59234000E-05	-1.05348000E-06	-4.74807000E-06
					 2.07601000E-05	-1.04563000E-05	-2.28260000E-05
					 7.50303000E-06	-8.72001000E-06	-1.31342000E-05
					 3.88477000E-05	-9.66948000E-06	-3.15903000E-05
					 6.52651000E-05	 1.54934000E-05	 5.69308000E-05
					 6.22273000E-05	 1.20885000E-05	 3.87918000E-05
					 6.01943000E-05	 8.50519000E-06	 2.31555000E-05
					 8.87700000E-05	 1.32356000E-05	 4.68649000E-05
					 1.18374000E-04	 1.46473000E-05	 5.39973000E-05
					 1.50518000E-04	 1.62833000E-05	 6.02286000E-05
					 1.20626000E-04	 1.72439000E-05	 7.79182000E-05
					 9.14106000E-05	 1.62630000E-05	 6.80772000E-05
					 1.52822000E-04	 1.83492000E-05	 8.62323000E-05
					 1.16764000E-04	 1.21340000E-05	 3.31155000E-05
					 8.69778000E-05	 1.01242000E-05	 2.83579000E-05
					 1.48640000E-04	 1.45177000E-05	 3.74794000E-05
					 6.63801000E-06	 7.46041000E-06	 1.11249000E-05
					 2.04710000E-05	 9.89904000E-06	 2.05663000E-05
					 3.92746000E-05	 1.11193000E-05	 2.99352000E-05
					 2.38695000E-05	 1.35058000E-05	 3.12926000E-05
					 9.43677000E-06	 1.05722000E-05	 1.73191000E-05
					 4.26207000E-05	 1.47776000E-05	 4.46385000E-05
					 1.85375000E-05	 6.02242000E-06	 1.19363000E-05
					 5.53583000E-06	 4.33713000E-06	 6.42148000E-06
					 3.71126000E-05	 7.22324000E-06	 1.75997000E-05
					 1.18309000E-04	 4.56922000E-06	-3.04692000E-05
					 1.17834000E-04	 6.85898000E-06	-9.12010000E-06
					 8.84875000E-05	 3.67271000E-06	-8.68710000E-06
					 8.90834000E-05	 9.41353000E-07	-2.75320000E-05
					 1.20296000E-04	 5.37713000E-06	-3.40149000E-05
					 1.19620000E-04	 6.97420000E-06	-1.24578000E-05
					 9.04447000E-05	 3.97727000E-06	-1.13872000E-05
					 9.12539000E-05	 2.09595000E-06	-3.03725000E-05
					 1.21596000E-04	 6.39204000E-06	-3.73472000E-05
					 1.20747000E-04	 7.29251000E-06	-1.57240000E-05
					 9.16198000E-05	 4.46430000E-06	-1.40329000E-05
					 9.26247000E-05	 3.42822000E-06	-3.30581000E-05
					 1.22247000E-04	 7.59951000E-06	-4.06030000E-05
					 1.21229000E-04	 7.80581000E-06	-1.89663000E-05
					 9.21114000E-05	 5.13231000E-06	-1.66712000E-05
					 9.32936000E-05	 4.93002000E-06	-3.57070000E-05
					 1.22259000E-04	 8.98487000E-06	-4.37982000E-05
					 1.21074000E-04	 8.50071000E-06	-2.21720000E-05
					 9.19500000E-05	 5.98523000E-06	-1.92945000E-05
					 9.32885000E-05	 6.61284000E-06	-3.83332000E-05
					 1.21608000E-04	 1.05376000E-05	-4.68359000E-05
					 1.20269000E-04	 9.36776000E-06	-2.52716000E-05
					 9.10992000E-05	 7.02199000E-06	-2.18477000E-05
					 9.25690000E-05	 8.48337000E-06	-4.08572000E-05
					 1.20252000E-04	 1.22450000E-05	-4.94964000E-05
					 1.18797000E-04	 1.03986000E-05	-2.81335000E-05
					 8.94577000E-05	 8.22565000E-06	-2.42235000E-05
					 9.10312000E-05	 1.05200000E-05	-4.30974000E-05
					 1.18128000E-04	 1.40863000E-05	-5.14810000E-05
					 1.16650000E-04	 1.15792000E-05	-3.05957000E-05
					 8.68592000E-05	 9.56979000E-06	-2.62623000E-05
					 8.85166000E-05	 1.26785000E-05	-4.47654000E-05
					 6.20710000E-05	 1.15026000E-06	-7.69991000E-06
					 6.29169000E-05	-1.90088000E-06	-2.35075000E-05
					 6.40953000E-05	 1.60866000E-06	-9.73983000E-06
					 6.51645000E-05	-4.61213000E-07	-2.55891000E-05
					 6.52550000E-05	 2.22583000E-06	-1.17620000E-05
					 6.65344000E-05	 1.11171000E-06	-2.76114000E-05
					 6.57293000E-05	 3.00479000E-06	-1.38022000E-05
					 6.71876000E-05	 2.81887000E-06	-2.96573000E-05
					 6.55719000E-05	 3.96878000E-06	-1.58564000E-05
					 6.71723000E-05	 4.70690000E-06	-3.17323000E-05
					 6.47224000E-05	 5.13356000E-06	-1.78928000E-05
					 6.64268000E-05	 6.81498000E-06	-3.37886000E-05
					 6.29985000E-05	 6.48189000E-06	-1.98299000E-05
					 6.47835000E-05	 9.12538000E-06	-3.56885000E-05
					 6.00761000E-05	 7.96054000E-06	-2.14856000E-05
					 6.19759000E-05	 1.15446000E-05	-3.71103000E-05
					 1.18020000E-04	 8.91304000E-06	 1.07680000E-05
					 8.86585000E-05	 6.23280000E-06	 8.80817000E-06
					 1.19635000E-04	 8.38485000E-06	 7.67464000E-06
					 9.04419000E-05	 5.71234000E-06	 6.26894000E-06
					 1.20599000E-04	 8.03924000E-06	 4.49579000E-06
					 9.14455000E-05	 5.36540000E-06	 3.67017000E-06
					 1.20918000E-04	 7.87825000E-06	 1.27408000E-06
					 9.17693000E-05	 5.20170000E-06	 1.04160000E-06
					 1.20599000E-04	 7.90050000E-06	-1.94860000E-06
					 9.14469000E-05	 5.22444000E-06	-1.58574000E-06
					 1.19637000E-04	 8.10774000E-06	-5.13149000E-06
					 9.04461000E-05	 5.43143000E-06	-4.18132000E-06
					 1.18027000E-04	 8.50003000E-06	-8.23390000E-06
					 8.86682000E-05	 5.81572000E-06	-6.71673000E-06
					 1.15780000E-04	 9.06761000E-06	-1.12414000E-05
					 8.59483000E-05	 6.37054000E-06	-9.17545000E-06
					 6.21491000E-05	 4.09012000E-06	 6.88144000E-06
					 6.40032000E-05	 3.57401000E-06	 4.88415000E-06
					 6.49921000E-05	 3.22915000E-06	 2.85243000E-06
					 6.53031000E-05	 3.06727000E-06	 8.07771000E-07
					 6.49943000E-05	 3.09201000E-06	-1.23336000E-06
					 6.40084000E-05	 3.29929000E-06	-3.25419000E-06
					 6.21590000E-05	 3.67962000E-06	-5.23386000E-06
					 5.91071000E-05	 4.22641000E-06	-7.14590000E-06
					 3.92181000E-05	-6.54486000E-07	-6.17361000E-06
					 4.02813000E-05	-3.84141000E-06	-1.84526000E-05
					 4.11254000E-05	-8.18216000E-08	-7.54334000E-06
					 4.24176000E-05	-2.18262000E-06	-1.97355000E-05
					 4.21623000E-05	 5.98784000E-07	-8.95437000E-06
					 4.36678000E-05	-4.97709000E-07	-2.11044000E-05
					 4.25792000E-05	 1.40518000E-06	-1.04096000E-05
					 4.42561000E-05	 1.24891000E-06	-2.25617000E-05
					 4.24461000E-05	 2.39518000E-06	-1.19020000E-05
					 4.42470000E-05	 3.17488000E-06	-2.40882000E-05
					 4.16858000E-05	 3.62431000E-06	-1.34348000E-05
					 4.35604000E-05	 5.39491000E-06	-2.56904000E-05
					 4.00439000E-05	 5.09177000E-06	-1.49811000E-05
					 4.19640000E-05	 7.92653000E-06	-2.73268000E-05
					 3.70029000E-05	 6.70207000E-06	-1.63492000E-05
					 3.90397000E-05	 1.06021000E-05	-2.86677000E-05
					 1.22758000E-04	 1.45147000E-05	 7.62638000E-05
					 1.25849000E-04	 1.62427000E-05	 1.04306000E-04
					 9.74009000E-05	 1.51150000E-05	 9.16717000E-05
					 9.38604000E-05	 1.31199000E-05	 6.66709000E-05
					 1.24013000E-04	 1.19231000E-05	 7.37208000E-05
					 1.27013000E-04	 1.28192000E-05	 1.01667000E-04
					 9.88091000E-05	 1.11812000E-05	 8.94064000E-05
					 9.53279000E-05	 1.00922000E-05	 6.44980000E-05
					 1.24519000E-04	 9.50934000E-06	 7.07027000E-05
					 1.27387000E-04	 9.65820000E-06	 9.85606000E-05
					 9.93263000E-05	 7.49305000E-06	 8.67980000E-05
					 9.59404000E-05	 7.24624000E-06	 6.19678000E-05
					 1.24344000E-04	 7.27989000E-06	 6.75100000E-05
					 1.27052000E-04	 6.72879000E-06	 9.53372000E-05
					 9.90442000E-05	 4.05782000E-06	 8.41217000E-05
					 9.57986000E-05	 4.60421000E-06	 5.93281000E-05
					 1.23516000E-04	 5.22622000E-06	 6.42654000E-05
					 1.26046000E-04	 3.98033000E-06	 9.21306000E-05
					 9.80054000E-05	 8.04059000E-07	 8.14819000E-05
					 9.49459000E-05	 2.13986000E-06	 5.66785000E-05
					 1.22029000E-04	 3.33976000E-06	 6.09252000E-05
					 1.24357000E-04	 1.35720000E-06	 8.88883000E-05
					 9.61857000E-05	-2.35164000E-06	 7.88428000E-05
					 9.33577000E-05	-1.80046000E-07	 5.39856000E-05
					 1.19826000E-04	 1.62296000E-06	 5.72617000E-05
					 1.21911000E-04	-1.19257000E-06	 8.53340000E-05
					 9.34983000E-05	-5.43186000E-06	 7.59977000E-05
					 9.09418000E-05	-2.34972000E-06	 5.10665000E-05
					 1.16762000E-04	 1.02242000E-07	 5.28799000E-05
					 1.18541000E-04	-3.63871000E-06	 8.09093000E-05
					 8.98381000E-05	-8.33987000E-06	 7.24504000E-05
					 8.75578000E-05	-4.31088000E-06	 4.75610000E-05
					 2.65649000E-05	 9.27845000E-06	 2.92688000E-05
					 3.16645000E-05	 1.15236000E-05	 4.36271000E-05
					 1.69003000E-05	 7.80150000E-06	 2.41060000E-05
					 1.13661000E-05	 6.15732000E-06	 1.43574000E-05
					 2.79728000E-05	 5.55108000E-06	 2.77892000E-05
					 3.32966000E-05	 6.70957000E-06	 4.22727000E-05
					 1.78632000E-05	 3.83911000E-06	 2.33352000E-05
					 1.22266000E-05	 3.11462000E-06	 1.33403000E-05
					 2.84910000E-05	 2.55401000E-06	 2.66621000E-05
					 3.38501000E-05	 2.86703000E-06	 4.12366000E-05
					 1.81294000E-05	 1.37294000E-06	 2.30278000E-05
					 1.24640000E-05	 1.19724000E-06	 1.28773000E-05
					 2.83830000E-05	 1.01631000E-08	 2.56541000E-05
					 3.36417000E-05	-3.85369000E-07	 4.02018000E-05
					 1.79243000E-05	-6.13154000E-07	 2.25493000E-05
					 1.23662000E-05	-3.56438000E-07	 1.24341000E-05
					 2.77461000E-05	-2.37239000E-06	 2.47102000E-05
					 3.27960000E-05	-3.46844000E-06	 3.91115000E-05
					 1.73605000E-05	-2.48440000E-06	 2.18941000E-05
					 1.19897000E-05	-1.80253000E-06	 1.19804000E-05
					 2.65112000E-05	-4.88144000E-06	 2.38867000E-05
					 3.12268000E-05	-6.80512000E-06	 3.80266000E-05
					 1.63623000E-05	-4.58550000E-06	 2.10747000E-05
					 1.12984000E-05	-3.37807000E-06	 1.15460000E-05
					 2.44330000E-05	-7.78370000E-06	 2.34389000E-05
					 2.86440000E-05	-1.07924000E-05	 3.72964000E-05
					 1.47404000E-05	-7.82228000E-06	 2.06982000E-05
					 1.00247000E-05	-5.72039000E-06	 1.16222000E-05
					 2.10845000E-05	-1.08856000E-05	 2.37157000E-05
					 2.46865000E-05	-1.52008000E-05	 3.76358000E-05
					 1.15753000E-05	-1.22448000E-05	 2.26360000E-05
					 7.70891000E-06	-9.04078000E-06	 1.36267000E-05
					 4.60292000E-05	-1.03786000E-05	-5.08253000E-05
					 4.25310000E-05	-7.05768000E-06	-3.29875000E-05
					 2.41128000E-05	-7.47961000E-06	-2.26158000E-05
					 2.81987000E-05	-1.04901000E-05	-3.64016000E-05
					 4.88839000E-05	-6.56755000E-06	-5.21489000E-05
					 4.49926000E-05	-4.33326000E-06	-3.42440000E-05
					 2.61859000E-05	-4.69438000E-06	-2.30983000E-05
					 3.07708000E-05	-6.61723000E-06	-3.71666000E-05
					 5.07050000E-05	-2.98781000E-06	-5.36256000E-05
					 4.65121000E-05	-1.68272000E-06	-3.56258000E-05
					 2.74167000E-05	-2.28774000E-06	-2.39365000E-05
					 3.23337000E-05	-3.38383000E-06	-3.82660000E-05
					 5.16913000E-05	 4.80328000E-07	-5.51900000E-05
					 4.72951000E-05	 9.59954000E-07	-3.71174000E-05
					 2.80532000E-05	 0.00000000E+00	-2.48851000E-05
					 3.31785000E-05	-3.97917000E-07	-3.93612000E-05
					 5.19075000E-05	 4.12961000E-06	-5.67887000E-05
					 4.74038000E-05	 3.77825000E-06	-3.86843000E-05
					 2.81651000E-05	 2.44896000E-06	-2.58896000E-05
					 3.33915000E-05	 2.75746000E-06	-4.03936000E-05
					 5.12623000E-05	 8.23982000E-06	-5.84508000E-05
					 4.67527000E-05	 6.94934000E-06	-4.03370000E-05
					 2.76550000E-05	 5.34415000E-06	-2.70022000E-05
					 3.28483000E-05	 6.49704000E-06	-4.14167000E-05
					 4.95479000E-05	 1.28847000E-05	-6.01692000E-05
					 4.51247000E-05	 1.05154000E-05	-4.20297000E-05
					 2.62569000E-05	 8.95498000E-06	-2.84449000E-05
					 3.12313000E-05	 1.11970000E-05	-4.27354000E-05
					 4.65932000E-05	 1.77856000E-05	-6.14728000E-05
					 4.22613000E-05	 1.42675000E-05	-4.33408000E-05
					 2.35626000E-05	 1.30571000E-05	-3.03945000E-05
					 2.82302000E-05	 1.65336000E-05	-4.47768000E-05
					 9.12886000E-05	 1.09512000E-05	 4.51898000E-05
					 6.79889000E-05	 1.19852000E-05	 5.56704000E-05
					 6.50371000E-05	 9.54323000E-06	 3.73485000E-05
					 9.28331000E-05	 8.78188000E-06	 4.29452000E-05
					 6.96059000E-05	 8.58667000E-06	 5.37670000E-05
					 6.66873000E-05	 7.10059000E-06	 3.54301000E-05
					 9.35584000E-05	 6.77435000E-06	 4.04195000E-05
					 7.02833000E-05	 5.42337000E-06	 5.16709000E-05
					 6.74393000E-05	 4.85814000E-06	 3.33635000E-05
					 9.35667000E-05	 4.95313000E-06	 3.77944000E-05
					 7.01689000E-05	 2.50801000E-06	 4.95644000E-05
					 6.74585000E-05	 2.83570000E-06	 3.12864000E-05
					 9.28989000E-05	 3.31290000E-06	 3.51490000E-05
					 6.93252000E-05	-2.30349000E-07	 4.75059000E-05
					 6.68065000E-05	 9.93946000E-07	 2.92452000E-05
					 9.15289000E-05	 1.84309000E-06	 3.24679000E-05
					 6.77093000E-05	-2.87211000E-06	 4.54848000E-05
					 6.54368000E-05	-7.13925000E-07	 2.72342000E-05
					 8.93624000E-05	 5.54192000E-07	 2.96305000E-05
					 6.51818000E-05	-5.42612000E-06	 4.33843000E-05
					 6.31916000E-05	-2.28677000E-06	 2.51688000E-05
					 8.62410000E-05	-5.19036000E-07	 2.63885000E-05
					 6.15615000E-05	-7.77681000E-06	 4.08485000E-05
					 5.98065000E-05	-3.64038000E-06	 2.27946000E-05
					 1.18919000E-04	 1.08257000E-05	 3.06622000E-05
					 8.95823000E-05	 8.65217000E-06	 2.63142000E-05
					 1.20397000E-04	 9.66027000E-06	 2.78101000E-05
					 9.12296000E-05	 7.31353000E-06	 2.39343000E-05
					 1.21204000E-04	 8.65539000E-06	 2.47168000E-05
					 9.20843000E-05	 6.13775000E-06	 2.13789000E-05
					 1.21360000E-04	 7.82220000E-06	 2.15142000E-05
					 9.22479000E-05	 5.14460000E-06	 1.87557000E-05
					 1.20877000E-04	 7.17108000E-06	 1.82729000E-05
					 9.17574000E-05	 4.33636000E-06	 1.61199000E-05
					 1.19751000E-04	 6.71523000E-06	 1.50046000E-05
					 9.05842000E-05	 3.70998000E-06	 1.34783000E-05
					 1.17971000E-04	 6.46406000E-06	 1.16583000E-05
					 8.86321000E-05	 3.26947000E-06	 1.07816000E-05
					 1.15530000E-04	 6.41333000E-06	 8.10115000E-06
					 8.57378000E-05	 3.02875000E-06	 7.90494000E-06
					 4.21992000E-05	 8.31621000E-06	 2.85532000E-05
					 4.54864000E-05	 1.09020000E-05	 4.32846000E-05
					 2.31859000E-05	 6.83528000E-06	 1.88260000E-05
					 4.38023000E-05	 5.65433000E-06	 2.68851000E-05
					 4.71246000E-05	 7.20954000E-06	 4.15604000E-05
					 2.45003000E-05	 4.14161000E-06	 1.74639000E-05
					 4.44955000E-05	 3.30839000E-06	 2.52670000E-05
					 4.77849000E-05	 3.91491000E-06	 3.98920000E-05
					 2.50247000E-05	 2.00123000E-06	 1.63789000E-05
					 4.45085000E-05	 1.26057000E-06	 2.37363000E-05
					 4.76810000E-05	 9.76182000E-07	 3.83215000E-05
					 2.50185000E-05	 2.26041000E-07	 1.54082000E-05
					 4.39209000E-05	-6.08078000E-07	 2.22844000E-05
					 4.68981000E-05	-1.78710000E-06	 3.68356000E-05
					 2.45639000E-05	-1.38494000E-06	 1.45111000E-05
					 4.26699000E-05	-2.41938000E-06	 2.09317000E-05
					 4.53753000E-05	-4.56165000E-06	 3.54700000E-05
					 2.35947000E-05	-3.02502000E-06	 1.37197000E-05
					 4.05342000E-05	-4.20898000E-06	 1.96781000E-05
					 4.29107000E-05	-7.41306000E-06	 3.42421000E-05
					 2.18605000E-05	-4.86094000E-06	 1.31899000E-05
					 3.70965000E-05	-5.82816000E-06	 1.83001000E-05
					 3.92334000E-05	-1.01486000E-05	 3.28791000E-05
					 1.87448000E-05	-6.74187000E-06	 1.31007000E-05
					 2.05364000E-05	 1.31938000E-06	 3.16997000E-06
					 2.13394000E-05	 4.15128000E-06	 1.05453000E-05
					 7.48901000E-06	 2.49124000E-06	 4.94176000E-06
					 7.05315000E-06	 5.45099000E-07	 1.45966000E-06
					 2.19444000E-05	 8.14752000E-07	 2.20463000E-06
					 2.26703000E-05	 2.54125000E-06	 9.37407000E-06
					 8.28741000E-06	 1.19992000E-06	 4.26287000E-06
					 7.89802000E-06	 1.34759000E-07	 9.85098000E-07
					 2.26039000E-05	 5.03404000E-07	 1.27405000E-06
					 2.32432000E-05	 1.30204000E-06	 8.36446000E-06
					 8.58783000E-06	 4.12140000E-07	 3.82446000E-06
					 8.24991000E-06	-7.10072000E-08	 5.70172000E-07
					 2.27993000E-05	 3.69673000E-07	 3.58028000E-07
					 2.33357000E-05	 3.36590000E-07	 7.42460000E-06
					 8.63137000E-06	-1.71258000E-07	 3.40976000E-06
					 8.35130000E-06	-1.53509000E-07	 1.61753000E-07
					 2.26056000E-05	 4.04881000E-07	-5.54081000E-07
					 2.30243000E-05	-4.61229000E-07	 6.52831000E-06
					 8.46541000E-06	-6.45228000E-07	 3.00610000E-06
					 8.25084000E-06	-1.26054000E-07	-2.45228000E-07
					 2.19481000E-05	 6.08753000E-07	-1.47021000E-06
					 2.22393000E-05	-1.18901000E-06	 5.68570000E-06
					 8.04551000E-06	-1.08500000E-06	 2.61824000E-06
					 7.90007000E-06	 1.71392000E-08	-6.54635000E-07
					 2.05428000E-05	 9.88787000E-07	-2.39948000E-06
					 2.07074000E-05	-1.92086000E-06	 4.96466000E-06
					 7.13182000E-06	-1.65116000E-06	 2.38025000E-06
					 7.05664000E-06	 3.34722000E-07	-1.10061000E-06
					 1.76511000E-05	 1.53204000E-06	-3.32021000E-06
					 1.77177000E-05	-2.58024000E-06	 4.46248000E-06
					 5.07296000E-06	-2.36246000E-06	 2.72348000E-06
					 5.06251000E-06	 8.40742000E-07	-1.62799000E-06
					 9.05316000E-05	-1.97697000E-06	-4.89653000E-05
					 6.47771000E-05	-5.05302000E-06	-4.17071000E-05
					 9.29495000E-05	 6.10004000E-08	-5.18873000E-05
					 6.73045000E-05	-2.62922000E-06	-4.38234000E-05
					 9.45372000E-05	 2.24542000E-06	-5.45855000E-05
					 6.89187000E-05	-1.20310000E-07	-4.58559000E-05
					 9.53909000E-05	 4.57290000E-06	-5.72391000E-05
					 6.97631000E-05	 2.48487000E-06	-4.79196000E-05
					 9.55372000E-05	 7.07800000E-06	-5.98802000E-05
					 6.98825000E-05	 5.26721000E-06	-5.00243000E-05
					 9.49326000E-05	 9.78880000E-06	-6.24086000E-05
					 6.92139000E-05	 8.29817000E-06	-5.21104000E-05
					 9.34740000E-05	 1.26863000E-05	-6.45764000E-05