    1C
    1UUSER                                                              
    1UDATE              01.august.2019                                  
    1UTIME              09:36:56                                        
    1UHOST                                                              
    1UPGM               CalculiX                                        
    1UVERSION           Version 2.15                             
    1UCOMPILETIME       Fri 15 Mar 11:57:46 CET 2019                    
    1UDIR                                                               
    1UDBN                                                               
    1UMAT    1EL                                                        
    2C                           102                                     1
 -1         1 1.00000E+00 2.00000E+00 6.51926E-09
 -1         2 1.00000E+00 1.50000E+00 6.51926E-09
 -1         3 1.00000E+00 1.49429E+00 1.30735E-01
 -1         4 1.00000E+00 1.99239E+00 1.74310E-01
 -1         5 5.00000E-01 2.00000E+00 6.51926E-09
 -1         6 5.00000E-01 1.50000E+00 6.51926E-09
 -1         7 5.00000E-01 1.49429E+00 1.30735E-01
 -1         8 5.00000E-01 1.99239E+00 1.74310E-01
 -1         9 1.00000E+00 1.75000E+00 6.51926E-09
 -1        10 1.00000E+00 1.49857E+00 6.54298E-02
 -1        11 1.00000E+00 1.74334E+00 1.52523E-01
 -1        12 1.00000E+00 1.99810E+00 8.72380E-02
 -1        13 7.50000E-01 2.00000E+00 6.51926E-09
 -1        14 7.50000E-01 1.50000E+00 6.51926E-09
 -1        15 7.50000E-01 1.49429E+00 1.30735E-01
 -1        16 7.50000E-01 1.99239E+00 1.74310E-01
 -1        17 5.00000E-01 1.75000E+00 6.51926E-09
 -1        18 5.00000E-01 1.49857E+00 6.54298E-02
 -1        19 5.00000E-01 1.74334E+00 1.52523E-01
 -1        20 5.00000E-01 1.99810E+00 8.72380E-02
 -1        21 1.00000E+00 1.00000E+00 6.51926E-09
 -1        22 1.00000E+00 9.96190E-01 8.71600E-02
 -1        23 5.00000E-01 1.00000E+00 6.51926E-09
 -1        24 5.00000E-01 9.96190E-01 8.71600E-02
 -1        25 1.00000E+00 1.25000E+00 6.51926E-09
 -1        26 1.00000E+00 9.99046E-01 4.36215E-02
 -1        27 1.00000E+00 1.24524E+00 1.08948E-01
 -1        28 7.50000E-01 1.00000E+00 6.51926E-09
 -1        29 7.50000E-01 9.96190E-01 8.71600E-02
 -1        30 5.00000E-01 1.25000E+00 6.51926E-09
 -1        31 5.00000E-01 9.99046E-01 4.36215E-02
 -1        32 5.00000E-01 1.24524E+00 1.08948E-01
 -1        33-2.60770E-08 2.00000E+00 6.51926E-09
 -1        34-2.60770E-08 1.50000E+00 6.51926E-09
 -1        35-2.60770E-08 1.49429E+00 1.30735E-01
 -1        36-2.60770E-08 1.99239E+00 1.74310E-01
 -1        37 2.50000E-01 2.00000E+00 6.51926E-09
 -1        38 2.50000E-01 1.50000E+00 6.51926E-09
 -1        39 2.50000E-01 1.49429E+00 1.30735E-01
 -1        40 2.50000E-01 1.99239E+00 1.74310E-01
 -1        41-2.60770E-08 1.75000E+00 6.51926E-09
 -1        42-2.60770E-08 1.49857E+00 6.54298E-02
 -1        43-2.60770E-08 1.74334E+00 1.52523E-01
 -1        44-2.60770E-08 1.99810E+00 8.72380E-02
 -1        45-2.60770E-08 1.00000E+00 6.51926E-09
 -1        46-2.60770E-08 9.96190E-01 8.71600E-02
 -1        47 2.50000E-01 1.00000E+00 6.51926E-09
 -1        48 2.50000E-01 9.96190E-01 8.71600E-02
 -1        49-2.60770E-08 1.25000E+00 6.51926E-09
 -1        50-2.60770E-08 9.99046E-01 4.36215E-02
 -1        51-2.60770E-08 1.24524E+00 1.08948E-01
 -1        52 1.00000E+00 3.00000E+00 6.51926E-09
 -1        53 1.00000E+00 2.50000E+00 6.51926E-09
 -1        54 1.00000E+00 2.49048E+00 2.17890E-01
 -1        55 1.00000E+00 2.98858E+00 2.61470E-01
 -1        56 5.00000E-01 3.00000E+00 6.51926E-09
 -1        57 5.00000E-01 2.50000E+00 6.51926E-09
 -1        58 5.00000E-01 2.49048E+00 2.17890E-01
 -1        59 5.00000E-01 2.98858E+00 2.61470E-01
 -1        60 1.00000E+00 2.75000E+00 6.51926E-09
 -1        61 1.00000E+00 2.49762E+00 1.09049E-01
 -1        62 1.00000E+00 2.73953E+00 2.39680E-01
 -1        63 1.00000E+00 2.99714E+00 1.30860E-01
 -1        64 7.50000E-01 3.00000E+00 6.51926E-09
 -1        65 7.50000E-01 2.50000E+00 6.51926E-09
 -1        66 7.50000E-01 2.49048E+00 2.17890E-01
 -1        67 7.50000E-01 2.98858E+00 2.61470E-01
 -1        68 5.00000E-01 2.75000E+00 6.51926E-09
 -1        69 5.00000E-01 2.49762E+00 1.09049E-01
 -1        70 5.00000E-01 2.73953E+00 2.39680E-01
 -1        71 5.00000E-01 2.99714E+00 1.30860E-01
 -1        72 1.00000E+00 2.00000E+00 6.51926E-09
 -1        73 1.00000E+00 1.99239E+00 1.74310E-01
 -1        74 5.00000E-01 2.00000E+00 6.51926E-09
 -1        75 5.00000E-01 1.99239E+00 1.74310E-01
 -1        76 1.00000E+00 2.25000E+00 6.51926E-09
 -1        77 1.00000E+00 1.99810E+00 8.72380E-02
 -1        78 1.00000E+00 2.24144E+00 1.96100E-01
 -1        79 7.50000E-01 2.00000E+00 6.51926E-09
 -1        80 7.50000E-01 1.99239E+00 1.74310E-01
 -1        81 5.00000E-01 2.25000E+00 6.51926E-09
 -1        82 5.00000E-01 1.99810E+00 8.72380E-02
 -1        83 5.00000E-01 2.24144E+00 1.96100E-01
 -1        84-2.60770E-08 3.00000E+00 6.51926E-09
 -1        85-2.60770E-08 2.50000E+00 6.51926E-09
 -1        86-2.60770E-08 2.49048E+00 2.17890E-01
 -1        87-2.60770E-08 2.98858E+00 2.61470E-01
 -1        88 2.50000E-01 3.00000E+00 6.51926E-09
 -1        89 2.50000E-01 2.50000E+00 6.51926E-09
 -1        90 2.50000E-01 2.49048E+00 2.17890E-01
 -1        91 2.50000E-01 2.98858E+00 2.61470E-01
 -1        92-2.60770E-08 2.75000E+00 6.51926E-09
 -1        93-2.60770E-08 2.49762E+00 1.09049E-01
 -1        94-2.60770E-08 2.73953E+00 2.39680E-01
 -1        95-2.60770E-08 2.99714E+00 1.30860E-01
 -1        96-2.60770E-08 2.00000E+00 6.51926E-09
 -1        97-2.60770E-08 1.99239E+00 1.74310E-01
 -1        98 2.50000E-01 2.00000E+00 6.51926E-09
 -1        99 2.50000E-01 1.99239E+00 1.74310E-01
 -1       100-2.60770E-08 2.25000E+00 6.51926E-09
 -1       101-2.60770E-08 1.99810E+00 8.72380E-02
 -1       102-2.60770E-08 2.24144E+00 1.96100E-01
 -3
    3C                             8                                     1
 -1         1    4    0    1
 -2         1         2         3         4         5         6         7         8         9        10
 -2        11        12        13        14        15        16        17        18        19        20
 -1         2    4    0    1
 -2         2        21        22         3         6        23        24         7        25        26
 -2        27        10        14        28        29        15        30        31        32        18
 -1         3    4    0    1
 -2         5         6         7         8        33        34        35        36        17        18
 -2        19        20        37        38        39        40        41        42        43        44
 -1         4    4    0    1
 -2         6        23        24         7        34        45        46        35        30        31
 -2        32        18        38        47        48        39        49        50        51        42
 -1         5    4    0    1
 -2        52        53        54        55        56        57        58        59        60        61
 -2        62        63        64        65        66        67        68        69        70        71
 -1         6    4    0    1
 -2        53        72        73        54        57        74        75        58        76        77
 -2        78        61        65        79        80        66        81        82        83        69
 -1         7    4    0    1
 -2        56        57        58        59        84        85        86        87        68        69
 -2        70        71        88        89        90        91        92        93        94        95
 -1         8    4    0    1
 -2        57        74        75        58        85        96        97        86        81        82
 -2        83        69        89        98        99        90       100       101       102        93
 -3
 9999
