    1C
    1UStability is developed by ESP Composites, LLC                     
    1UUSER                                                              
    1UDATE              01.june.2019                                    
    1UTIME              17:43:24                                        
    1UHOST                                                              
    1UPGM               CalculiX                                        
    1UVERSION           Version 2.15                             
    1UCOMPILETIME       Fri 15 Mar 11:57:46 CET 2019                    
    1UDIR                                                               
    1UDBN                                                               
    1UMAT    1A                                                         
    1UMAT    2SPRING                                                    
    2C                          1740                                     1
 -1       203 6.66667E-01 3.33333E-01 0.00000E+00
 -1       229 9.33333E+00 3.33333E-01 0.00000E+00
 -1      2803 6.66667E-01 4.66667E+00 0.00000E+00
 -1      2829 9.33333E+00 4.66667E+00 0.00000E+00
 -1     10001 1.01000E+01 4.66667E+00 0.00000E+00
 -1     10002 9.33333E+00 5.10000E+00 0.00000E+00
 -1     10003 6.66667E-01 5.10000E+00 0.00000E+00
 -1     10004-1.00000E-01 4.66667E+00 0.00000E+00
 -1     10005-1.00000E-01 3.33333E-01 0.00000E+00
 -1     10006 6.66667E-01-1.00000E-01 0.00000E+00
 -1     10007 9.33333E+00-1.00000E-01 0.00000E+00
 -1     10008 1.01000E+01 3.33333E-01 0.00000E+00
 -1     10009 0.00000E+00 0.00000E+00-2.50000E-01
 -1     10010 0.00000E+00 0.00000E+00 0.00000E+00
 -1     10011 0.00000E+00 0.00000E+00 2.50000E-01
 -1     10012 3.33333E-01 0.00000E+00-2.50000E-01
 -1     10014 3.33333E-01 0.00000E+00 2.50000E-01
 -1     10015 6.66667E-01 0.00000E+00-2.50000E-01
 -1     10016 6.66667E-01 0.00000E+00 0.00000E+00
 -1     10017 6.66667E-01 0.00000E+00 2.50000E-01
 -1     10018 1.00000E+00 0.00000E+00-2.50000E-01
 -1     10020 1.00000E+00 0.00000E+00 2.50000E-01
 -1     10021 1.33333E+00 0.00000E+00-2.50000E-01
 -1     10022 1.33333E+00 0.00000E+00 0.00000E+00
 -1     10023 1.33333E+00 0.00000E+00 2.50000E-01
 -1     10024 1.66667E+00 0.00000E+00-2.50000E-01
 -1     10026 1.66667E+00 0.00000E+00 2.50000E-01
 -1     10027 2.00000E+00 0.00000E+00-2.50000E-01
 -1     10028 2.00000E+00 0.00000E+00 0.00000E+00
 -1     10029 2.00000E+00 0.00000E+00 2.50000E-01
 -1     10030 2.33333E+00 0.00000E+00-2.50000E-01
 -1     10032 2.33333E+00 0.00000E+00 2.50000E-01
 -1     10033 2.66667E+00 0.00000E+00-2.50000E-01
 -1     10034 2.66667E+00 0.00000E+00 0.00000E+00
 -1     10035 2.66667E+00 0.00000E+00 2.50000E-01
 -1     10036 3.00000E+00 0.00000E+00-2.50000E-01
 -1     10038 3.00000E+00 0.00000E+00 2.50000E-01
 -1     10039 3.33333E+00 0.00000E+00-2.50000E-01
 -1     10040 3.33333E+00 0.00000E+00 0.00000E+00
 -1     10041 3.33333E+00 0.00000E+00 2.50000E-01
 -1     10042 3.66667E+00 0.00000E+00-2.50000E-01
 -1     10044 3.66667E+00 0.00000E+00 2.50000E-01
 -1     10045 4.00000E+00 0.00000E+00-2.50000E-01
 -1     10046 4.00000E+00 0.00000E+00 0.00000E+00
 -1     10047 4.00000E+00 0.00000E+00 2.50000E-01
 -1     10048 4.33333E+00 0.00000E+00-2.50000E-01
 -1     10050 4.33333E+00 0.00000E+00 2.50000E-01
 -1     10051 4.66667E+00 0.00000E+00-2.50000E-01
 -1     10052 4.66667E+00 0.00000E+00 0.00000E+00
 -1     10053 4.66667E+00 0.00000E+00 2.50000E-01
 -1     10054 5.00000E+00 0.00000E+00-2.50000E-01
 -1     10056 5.00000E+00 0.00000E+00 2.50000E-01
 -1     10057 5.33333E+00 0.00000E+00-2.50000E-01
 -1     10058 5.33333E+00 0.00000E+00 0.00000E+00
 -1     10059 5.33333E+00 0.00000E+00 2.50000E-01
 -1     10060 5.66667E+00 0.00000E+00-2.50000E-01
 -1     10062 5.66667E+00 0.00000E+00 2.50000E-01
 -1     10063 6.00000E+00 0.00000E+00-2.50000E-01
 -1     10064 6.00000E+00 0.00000E+00 0.00000E+00
 -1     10065 6.00000E+00 0.00000E+00 2.50000E-01
 -1     10066 6.33333E+00 0.00000E+00-2.50000E-01
 -1     10068 6.33333E+00 0.00000E+00 2.50000E-01
 -1     10069 6.66667E+00 0.00000E+00-2.50000E-01
 -1     10070 6.66667E+00 0.00000E+00 0.00000E+00
 -1     10071 6.66667E+00 0.00000E+00 2.50000E-01
 -1     10072 7.00000E+00 0.00000E+00-2.50000E-01
 -1     10074 7.00000E+00 0.00000E+00 2.50000E-01
 -1     10075 7.33333E+00 0.00000E+00-2.50000E-01
 -1     10076 7.33333E+00 0.00000E+00 0.00000E+00
 -1     10077 7.33333E+00 0.00000E+00 2.50000E-01
 -1     10078 7.66667E+00 0.00000E+00-2.50000E-01
 -1     10080 7.66667E+00 0.00000E+00 2.50000E-01
 -1     10081 8.00000E+00 0.00000E+00-2.50000E-01
 -1     10082 8.00000E+00 0.00000E+00 0.00000E+00
 -1     10083 8.00000E+00 0.00000E+00 2.50000E-01
 -1     10084 8.33333E+00 0.00000E+00-2.50000E-01
 -1     10086 8.33333E+00 0.00000E+00 2.50000E-01
 -1     10087 8.66667E+00 0.00000E+00-2.50000E-01
 -1     10088 8.66667E+00 0.00000E+00 0.00000E+00
 -1     10089 8.66667E+00 0.00000E+00 2.50000E-01
 -1     10090 9.00000E+00 0.00000E+00-2.50000E-01
 -1     10092 9.00000E+00 0.00000E+00 2.50000E-01
 -1     10093 9.33333E+00 0.00000E+00-2.50000E-01
 -1     10094 9.33333E+00 0.00000E+00 0.00000E+00
 -1     10095 9.33333E+00 0.00000E+00 2.50000E-01
 -1     10096 9.66667E+00 0.00000E+00-2.50000E-01
 -1     10098 9.66667E+00 0.00000E+00 2.50000E-01
 -1     10099 1.00000E+01 0.00000E+00-2.50000E-01
 -1     10100 1.00000E+01 0.00000E+00 0.00000E+00
 -1     10101 1.00000E+01 0.00000E+00 2.50000E-01
 -1     10102 0.00000E+00 1.66667E-01-2.50000E-01
 -1     10104 0.00000E+00 1.66667E-01 2.50000E-01
 -1     10105 6.66667E-01 1.66667E-01-2.50000E-01
 -1     10107 6.66667E-01 1.66667E-01 2.50000E-01
 -1     10108 1.33333E+00 1.66667E-01-2.50000E-01
 -1     10110 1.33333E+00 1.66667E-01 2.50000E-01
 -1     10111 2.00000E+00 1.66667E-01-2.50000E-01
 -1     10113 2.00000E+00 1.66667E-01 2.50000E-01
 -1     10114 2.66667E+00 1.66667E-01-2.50000E-01
 -1     10116 2.66667E+00 1.66667E-01 2.50000E-01
 -1     10117 3.33333E+00 1.66667E-01-2.50000E-01
 -1     10119 3.33333E+00 1.66667E-01 2.50000E-01
 -1     10120 4.00000E+00 1.66667E-01-2.50000E-01
 -1     10122 4.00000E+00 1.66667E-01 2.50000E-01
 -1     10123 4.66667E+00 1.66667E-01-2.50000E-01
 -1     10125 4.66667E+00 1.66667E-01 2.50000E-01
 -1     10126 5.33333E+00 1.66667E-01-2.50000E-01
 -1     10128 5.33333E+00 1.66667E-01 2.50000E-01
 -1     10129 6.00000E+00 1.66667E-01-2.50000E-01
 -1     10131 6.00000E+00 1.66667E-01 2.50000E-01
 -1     10132 6.66667E+00 1.66667E-01-2.50000E-01
 -1     10134 6.66667E+00 1.66667E-01 2.50000E-01
 -1     10135 7.33333E+00 1.66667E-01-2.50000E-01
 -1     10137 7.33333E+00 1.66667E-01 2.50000E-01
 -1     10138 8.00000E+00 1.66667E-01-2.50000E-01
 -1     10140 8.00000E+00 1.66667E-01 2.50000E-01
 -1     10141 8.66667E+00 1.66667E-01-2.50000E-01
 -1     10143 8.66667E+00 1.66667E-01 2.50000E-01
 -1     10144 9.33333E+00 1.66667E-01-2.50000E-01
 -1     10146 9.33333E+00 1.66667E-01 2.50000E-01
 -1     10147 1.00000E+01 1.66667E-01-2.50000E-01
 -1     10149 1.00000E+01 1.66667E-01 2.50000E-01
 -1     10150 0.00000E+00 3.33333E-01-2.50000E-01
 -1     10151 0.00000E+00 3.33333E-01 0.00000E+00
 -1     10152 0.00000E+00 3.33333E-01 2.50000E-01
 -1     10153 3.33333E-01 3.33333E-01-2.50000E-01
 -1     10155 3.33333E-01 3.33333E-01 2.50000E-01
 -1     10156 6.66667E-01 3.33333E-01-2.50000E-01
 -1     10157 6.66667E-01 3.33333E-01 0.00000E+00
 -1     10158 6.66667E-01 3.33333E-01 2.50000E-01
 -1     10159 1.00000E+00 3.33333E-01-2.50000E-01
 -1     10161 1.00000E+00 3.33333E-01 2.50000E-01
 -1     10162 1.33333E+00 3.33333E-01-2.50000E-01
 -1     10163 1.33333E+00 3.33333E-01 0.00000E+00
 -1     10164 1.33333E+00 3.33333E-01 2.50000E-01
 -1     10165 1.66667E+00 3.33333E-01-2.50000E-01
 -1     10167 1.66667E+00 3.33333E-01 2.50000E-01
 -1     10168 2.00000E+00 3.33333E-01-2.50000E-01
 -1     10169 2.00000E+00 3.33333E-01 0.00000E+00
 -1     10170 2.00000E+00 3.33333E-01 2.50000E-01
 -1     10171 2.33333E+00 3.33333E-01-2.50000E-01
 -1     10173 2.33333E+00 3.33333E-01 2.50000E-01
 -1     10174 2.66667E+00 3.33333E-01-2.50000E-01
 -1     10175 2.66667E+00 3.33333E-01 0.00000E+00
 -1     10176 2.66667E+00 3.33333E-01 2.50000E-01
 -1     10177 3.00000E+00 3.33333E-01-2.50000E-01
 -1     10179 3.00000E+00 3.33333E-01 2.50000E-01
 -1     10180 3.33333E+00 3.33333E-01-2.50000E-01
 -1     10181 3.33333E+00 3.33333E-01 0.00000E+00
 -1     10182 3.33333E+00 3.33333E-01 2.50000E-01
 -1     10183 3.66667E+00 3.33333E-01-2.50000E-01
 -1     10185 3.66667E+00 3.33333E-01 2.50000E-01
 -1     10186 4.00000E+00 3.33333E-01-2.50000E-01
 -1     10187 4.00000E+00 3.33333E-01 0.00000E+00
 -1     10188 4.00000E+00 3.33333E-01 2.50000E-01
 -1     10189 4.33333E+00 3.33333E-01-2.50000E-01
 -1     10191 4.33333E+00 3.33333E-01 2.50000E-01
 -1     10192 4.66667E+00 3.33333E-01-2.50000E-01
 -1     10193 4.66667E+00 3.33333E-01 0.00000E+00
 -1     10194 4.66667E+00 3.33333E-01 2.50000E-01
 -1     10195 5.00000E+00 3.33333E-01-2.50000E-01
 -1     10197 5.00000E+00 3.33333E-01 2.50000E-01
 -1     10198 5.33333E+00 3.33333E-01-2.50000E-01
 -1     10199 5.33333E+00 3.33333E-01 0.00000E+00
 -1     10200 5.33333E+00 3.33333E-01 2.50000E-01
 -1     10201 5.66667E+00 3.33333E-01-2.50000E-01
 -1     10203 5.66667E+00 3.33333E-01 2.50000E-01
 -1     10204 6.00000E+00 3.33333E-01-2.50000E-01
 -1     10205 6.00000E+00 3.33333E-01 0.00000E+00
 -1     10206 6.00000E+00 3.33333E-01 2.50000E-01
 -1     10207 6.33333E+00 3.33333E-01-2.50000E-01
 -1     10209 6.33333E+00 3.33333E-01 2.50000E-01
 -1     10210 6.66667E+00 3.33333E-01-2.50000E-01
 -1     10211 6.66667E+00 3.33333E-01 0.00000E+00
 -1     10212 6.66667E+00 3.33333E-01 2.50000E-01
 -1     10213 7.00000E+00 3.33333E-01-2.50000E-01
 -1     10215 7.00000E+00 3.33333E-01 2.50000E-01
 -1     10216 7.33333E+00 3.33333E-01-2.50000E-01
 -1     10217 7.33333E+00 3.33333E-01 0.00000E+00
 -1     10218 7.33333E+00 3.33333E-01 2.50000E-01
 -1     10219 7.66667E+00 3.33333E-01-2.50000E-01
 -1     10221 7.66667E+00 3.33333E-01 2.50000E-01
 -1     10222 8.00000E+00 3.33333E-01-2.50000E-01
 -1     10223 8.00000E+00 3.33333E-01 0.00000E+00
 -1     10224 8.00000E+00 3.33333E-01 2.50000E-01
 -1     10225 8.33333E+00 3.33333E-01-2.50000E-01
 -1     10227 8.33333E+00 3.33333E-01 2.50000E-01
 -1     10228 8.66667E+00 3.33333E-01-2.50000E-01
 -1     10229 8.66667E+00 3.33333E-01 0.00000E+00
 -1     10230 8.66667E+00 3.33333E-01 2.50000E-01
 -1     10231 9.00000E+00 3.33333E-01-2.50000E-01
 -1     10233 9.00000E+00 3.33333E-01 2.50000E-01
 -1     10234 9.33333E+00 3.33333E-01-2.50000E-01
 -1     10235 9.33333E+00 3.33333E-01 0.00000E+00
 -1     10236 9.33333E+00 3.33333E-01 2.50000E-01
 -1     10237 9.66667E+00 3.33333E-01-2.50000E-01
 -1     10239 9.66667E+00 3.33333E-01 2.50000E-01
 -1     10240 1.00000E+01 3.33333E-01-2.50000E-01
 -1     10241 1.00000E+01 3.33333E-01 0.00000E+00
 -1     10242 1.00000E+01 3.33333E-01 2.50000E-01
 -1     10243 0.00000E+00 5.00000E-01-2.50000E-01
 -1     10245 0.00000E+00 5.00000E-01 2.50000E-01
 -1     10246 6.66667E-01 5.00000E-01-2.50000E-01
 -1     10248 6.66667E-01 5.00000E-01 2.50000E-01
 -1     10249 1.33333E+00 5.00000E-01-2.50000E-01
 -1     10251 1.33333E+00 5.00000E-01 2.50000E-01
 -1     10252 2.00000E+00 5.00000E-01-2.50000E-01
 -1     10254 2.00000E+00 5.00000E-01 2.50000E-01
 -1     10255 2.66667E+00 5.00000E-01-2.50000E-01
 -1     10257 2.66667E+00 5.00000E-01 2.50000E-01
 -1     10258 3.33333E+00 5.00000E-01-2.50000E-01
 -1     10260 3.33333E+00 5.00000E-01 2.50000E-01
 -1     10261 4.00000E+00 5.00000E-01-2.50000E-01
 -1     10263 4.00000E+00 5.00000E-01 2.50000E-01
 -1     10264 4.66667E+00 5.00000E-01-2.50000E-01
 -1     10266 4.66667E+00 5.00000E-01 2.50000E-01
 -1     10267 5.33333E+00 5.00000E-01-2.50000E-01
 -1     10269 5.33333E+00 5.00000E-01 2.50000E-01
 -1     10270 6.00000E+00 5.00000E-01-2.50000E-01
 -1     10272 6.00000E+00 5.00000E-01 2.50000E-01
 -1     10273 6.66667E+00 5.00000E-01-2.50000E-01
 -1     10275 6.66667E+00 5.00000E-01 2.50000E-01
 -1     10276 7.33333E+00 5.00000E-01-2.50000E-01
 -1     10278 7.33333E+00 5.00000E-01 2.50000E-01
 -1     10279 8.00000E+00 5.00000E-01-2.50000E-01
 -1     10281 8.00000E+00 5.00000E-01 2.50000E-01
 -1     10282 8.66667E+00 5.00000E-01-2.50000E-01
 -1     10284 8.66667E+00 5.00000E-01 2.50000E-01
 -1     10285 9.33333E+00 5.00000E-01-2.50000E-01
 -1     10287 9.33333E+00 5.00000E-01 2.50000E-01
 -1     10288 1.00000E+01 5.00000E-01-2.50000E-01
 -1     10290 1.00000E+01 5.00000E-01 2.50000E-01
 -1     10291 0.00000E+00 6.66667E-01-2.50000E-01
 -1     10292 0.00000E+00 6.66667E-01 0.00000E+00
 -1     10293 0.00000E+00 6.66667E-01 2.50000E-01
 -1     10294 3.33333E-01 6.66667E-01-2.50000E-01
 -1     10296 3.33333E-01 6.66667E-01 2.50000E-01
 -1     10297 6.66667E-01 6.66667E-01-2.50000E-01
 -1     10298 6.66667E-01 6.66667E-01 0.00000E+00
 -1     10299 6.66667E-01 6.66667E-01 2.50000E-01
 -1     10300 1.00000E+00 6.66667E-01-2.50000E-01
 -1     10302 1.00000E+00 6.66667E-01 2.50000E-01
 -1     10303 1.33333E+00 6.66667E-01-2.50000E-01
 -1     10304 1.33333E+00 6.66667E-01 0.00000E+00
 -1     10305 1.33333E+00 6.66667E-01 2.50000E-01
 -1     10306 1.66667E+00 6.66667E-01-2.50000E-01
 -1     10308 1.66667E+00 6.66667E-01 2.50000E-01
 -1     10309 2.00000E+00 6.66667E-01-2.50000E-01
 -1     10310 2.00000E+00 6.66667E-01 0.00000E+00
 -1     10311 2.00000E+00 6.66667E-01 2.50000E-01
 -1     10312 2.33333E+00 6.66667E-01-2.50000E-01
 -1     10314 2.33333E+00 6.66667E-01 2.50000E-01
 -1     10315 2.66667E+00 6.66667E-01-2.50000E-01
 -1     10316 2.66667E+00 6.66667E-01 0.00000E+00
 -1     10317 2.66667E+00 6.66667E-01 2.50000E-01
 -1     10318 3.00000E+00 6.66667E-01-2.50000E-01
 -1     10320 3.00000E+00 6.66667E-01 2.50000E-01
 -1     10321 3.33333E+00 6.66667E-01-2.50000E-01
 -1     10322 3.33333E+00 6.66667E-01 0.00000E+00
 -1     10323 3.33333E+00 6.66667E-01 2.50000E-01
 -1     10324 3.66667E+00 6.66667E-01-2.50000E-01
 -1     10326 3.66667E+00 6.66667E-01 2.50000E-01
 -1     10327 4.00000E+00 6.66667E-01-2.50000E-01
 -1     10328 4.00000E+00 6.66667E-01 0.00000E+00
 -1     10329 4.00000E+00 6.66667E-01 2.50000E-01
 -1     10330 4.33333E+00 6.66667E-01-2.50000E-01
 -1     10332 4.33333E+00 6.66667E-01 2.50000E-01
 -1     10333 4.66667E+00 6.66667E-01-2.50000E-01
 -1     10334 4.66667E+00 6.66667E-01 0.00000E+00
 -1     10335 4.66667E+00 6.66667E-01 2.50000E-01
 -1     10336 5.00000E+00 6.66667E-01-2.50000E-01
 -1     10338 5.00000E+00 6.66667E-01 2.50000E-01
 -1     10339 5.33333E+00 6.66667E-01-2.50000E-01
 -1     10340 5.33333E+00 6.66667E-01 0.00000E+00
 -1     10341 5.33333E+00 6.66667E-01 2.50000E-01
 -1     10342 5.66667E+00 6.66667E-01-2.50000E-01
 -1     10344 5.66667E+00 6.66667E-01 2.50000E-01
 -1     10345 6.00000E+00 6.66667E-01-2.50000E-01
 -1     10346 6.00000E+00 6.66667E-01 0.00000E+00
 -1     10347 6.00000E+00 6.66667E-01 2.50000E-01
 -1     10348 6.33333E+00 6.66667E-01-2.50000E-01
 -1     10350 6.33333E+00 6.66667E-01 2.50000E-01
 -1     10351 6.66667E+00 6.66667E-01-2.50000E-01
 -1     10352 6.66667E+00 6.66667E-01 0.00000E+00
 -1     10353 6.66667E+00 6.66667E-01 2.50000E-01
 -1     10354 7.00000E+00 6.66667E-01-2.50000E-01
 -1     10356 7.00000E+00 6.66667E-01 2.50000E-01
 -1     10357 7.33333E+00 6.66667E-01-2.50000E-01
 -1     10358 7.33333E+00 6.66667E-01 0.00000E+00
 -1     10359 7.33333E+00 6.66667E-01 2.50000E-01
 -1     10360 7.66667E+00 6.66667E-01-2.50000E-01
 -1     10362 7.66667E+00 6.66667E-01 2.50000E-01
 -1     10363 8.00000E+00 6.66667E-01-2.50000E-01
 -1     10364 8.00000E+00 6.66667E-01 0.00000E+00
 -1     10365 8.00000E+00 6.66667E-01 2.50000E-01
 -1     10366 8.33333E+00 6.66667E-01-2.50000E-01
 -1     10368 8.33333E+00 6.66667E-01 2.50000E-01
 -1     10369 8.66667E+00 6.66667E-01-2.50000E-01
 -1     10370 8.66667E+00 6.66667E-01 0.00000E+00
 -1     10371 8.66667E+00 6.66667E-01 2.50000E-01
 -1     10372 9.00000E+00 6.66667E-01-2.50000E-01
 -1     10374 9.00000E+00 6.66667E-01 2.50000E-01
 -1     10375 9.33333E+00 6.66667E-01-2.50000E-01
 -1     10376 9.33333E+00 6.66667E-01 0.00000E+00
 -1     10377 9.33333E+00 6.66667E-01 2.50000E-01
 -1     10378 9.66667E+00 6.66667E-01-2.50000E-01
 -1     10380 9.66667E+00 6.66667E-01 2.50000E-01
 -1     10381 1.00000E+01 6.66667E-01-2.50000E-01
 -1     10382 1.00000E+01 6.66667E-01 0.00000E+00
 -1     10383 1.00000E+01 6.66667E-01 2.50000E-01
 -1     10384 0.00000E+00 8.33333E-01-2.50000E-01
 -1     10386 0.00000E+00 8.33333E-01 2.50000E-01
 -1     10387 6.66667E-01 8.33333E-01-2.50000E-01
 -1     10389 6.66667E-01 8.33333E-01 2.50000E-01
 -1     10390 1.33333E+00 8.33333E-01-2.50000E-01
 -1     10392 1.33333E+00 8.33333E-01 2.50000E-01
 -1     10393 2.00000E+00 8.33333E-01-2.50000E-01
 -1     10395 2.00000E+00 8.33333E-01 2.50000E-01
 -1     10396 2.66667E+00 8.33333E-01-2.50000E-01
 -1     10398 2.66667E+00 8.33333E-01 2.50000E-01
 -1     10399 3.33333E+00 8.33333E-01-2.50000E-01
 -1     10401 3.33333E+00 8.33333E-01 2.50000E-01
 -1     10402 4.00000E+00 8.33333E-01-2.50000E-01
 -1     10404 4.00000E+00 8.33333E-01 2.50000E-01
 -1     10405 4.66667E+00 8.33333E-01-2.50000E-01
 -1     10407 4.66667E+00 8.33333E-01 2.50000E-01
 -1     10408 5.33333E+00 8.33333E-01-2.50000E-01
 -1     10410 5.33333E+00 8.33333E-01 2.50000E-01
 -1     10411 6.00000E+00 8.33333E-01-2.50000E-01
 -1     10413 6.00000E+00 8.33333E-01 2.50000E-01
 -1     10414 6.66667E+00 8.33333E-01-2.50000E-01
 -1     10416 6.66667E+00 8.33333E-01 2.50000E-01
 -1     10417 7.33333E+00 8.33333E-01-2.50000E-01
 -1     10419 7.33333E+00 8.33333E-01 2.50000E-01
 -1     10420 8.00000E+00 8.33333E-01-2.50000E-01
 -1     10422 8.00000E+00 8.33333E-01 2.50000E-01
 -1     10423 8.66667E+00 8.33333E-01-2.50000E-01
 -1     10425 8.66667E+00 8.33333E-01 2.50000E-01
 -1     10426 9.33333E+00 8.33333E-01-2.50000E-01
 -1     10428 9.33333E+00 8.33333E-01 2.50000E-01
 -1     10429 1.00000E+01 8.33333E-01-2.50000E-01
 -1     10431 1.00000E+01 8.33333E-01 2.50000E-01
 -1     10432 0.00000E+00 1.00000E+00-2.50000E-01
 -1     10433 0.00000E+00 1.00000E+00 0.00000E+00
 -1     10434 0.00000E+00 1.00000E+00 2.50000E-01
 -1     10435 3.33333E-01 1.00000E+00-2.50000E-01
 -1     10437 3.33333E-01 1.00000E+00 2.50000E-01
 -1     10438 6.66667E-01 1.00000E+00-2.50000E-01
 -1     10439 6.66667E-01 1.00000E+00 0.00000E+00
 -1     10440 6.66667E-01 1.00000E+00 2.50000E-01
 -1     10441 1.00000E+00 1.00000E+00-2.50000E-01
 -1     10443 1.00000E+00 1.00000E+00 2.50000E-01
 -1     10444 1.33333E+00 1.00000E+00-2.50000E-01
 -1     10445 1.33333E+00 1.00000E+00 0.00000E+00
 -1     10446 1.33333E+00 1.00000E+00 2.50000E-01
 -1     10447 1.66667E+00 1.00000E+00-2.50000E-01
 -1     10449 1.66667E+00 1.00000E+00 2.50000E-01
 -1     10450 2.00000E+00 1.00000E+00-2.50000E-01
 -1     10451 2.00000E+00 1.00000E+00 0.00000E+00
 -1     10452 2.00000E+00 1.00000E+00 2.50000E-01
 -1     10453 2.33333E+00 1.00000E+00-2.50000E-01
 -1     10455 2.33333E+00 1.00000E+00 2.50000E-01
 -1     10456 2.66667E+00 1.00000E+00-2.50000E-01
 -1     10457 2.66667E+00 1.00000E+00 0.00000E+00
 -1     10458 2.66667E+00 1.00000E+00 2.50000E-01
 -1     10459 3.00000E+00 1.00000E+00-2.50000E-01
 -1     10461 3.00000E+00 1.00000E+00 2.50000E-01
 -1     10462 3.33333E+00 1.00000E+00-2.50000E-01
 -1     10463 3.33333E+00 1.00000E+00 0.00000E+00
 -1     10464 3.33333E+00 1.00000E+00 2.50000E-01
 -1     10465 3.66667E+00 1.00000E+00-2.50000E-01
 -1     10467 3.66667E+00 1.00000E+00 2.50000E-01
 -1     10468 4.00000E+00 1.00000E+00-2.50000E-01
 -1     10469 4.00000E+00 1.00000E+00 0.00000E+00
 -1     10470 4.00000E+00 1.00000E+00 2.50000E-01
 -1     10471 4.33333E+00 1.00000E+00-2.50000E-01
 -1     10473 4.33333E+00 1.00000E+00 2.50000E-01
 -1     10474 4.66667E+00 1.00000E+00-2.50000E-01
 -1     10475 4.66667E+00 1.00000E+00 0.00000E+00
 -1     10476 4.66667E+00 1.00000E+00 2.50000E-01
 -1     10477 5.00000E+00 1.00000E+00-2.50000E-01
 -1     10479 5.00000E+00 1.00000E+00 2.50000E-01
 -1     10480 5.33333E+00 1.00000E+00-2.50000E-01
 -1     10481 5.33333E+00 1.00000E+00 0.00000E+00
 -1     10482 5.33333E+00 1.00000E+00 2.50000E-01
 -1     10483 5.66667E+00 1.00000E+00-2.50000E-01
 -1     10485 5.66667E+00 1.00000E+00 2.50000E-01
 -1     10486 6.00000E+00 1.00000E+00-2.50000E-01
 -1     10487 6.00000E+00 1.00000E+00 0.00000E+00
 -1     10488 6.00000E+00 1.00000E+00 2.50000E-01
 -1     10489 6.33333E+00 1.00000E+00-2.50000E-01
 -1     10491 6.33333E+00 1.00000E+00 2.50000E-01
 -1     10492 6.66667E+00 1.00000E+00-2.50000E-01
 -1     10493 6.66667E+00 1.00000E+00 0.00000E+00
 -1     10494 6.66667E+00 1.00000E+00 2.50000E-01
 -1     10495 7.00000E+00 1.00000E+00-2.50000E-01
 -1     10497 7.00000E+00 1.00000E+00 2.50000E-01
 -1     10498 7.33333E+00 1.00000E+00-2.50000E-01
 -1     10499 7.33333E+00 1.00000E+00 0.00000E+00
 -1     10500 7.33333E+00 1.00000E+00 2.50000E-01
 -1     10501 7.66667E+00 1.00000E+00-2.50000E-01
 -1     10503 7.66667E+00 1.00000E+00 2.50000E-01
 -1     10504 8.00000E+00 1.00000E+00-2.50000E-01
 -1     10505 8.00000E+00 1.00000E+00 0.00000E+00
 -1     10506 8.00000E+00 1.00000E+00 2.50000E-01
 -1     10507 8.33333E+00 1.00000E+00-2.50000E-01
 -1     10509 8.33333E+00 1.00000E+00 2.50000E-01
 -1     10510 8.66667E+00 1.00000E+00-2.50000E-01
 -1     10511 8.66667E+00 1.00000E+00 0.00000E+00
 -1     10512 8.66667E+00 1.00000E+00 2.50000E-01
 -1     10513 9.00000E+00 1.00000E+00-2.50000E-01
 -1     10515 9.00000E+00 1.00000E+00 2.50000E-01
 -1     10516 9.33333E+00 1.00000E+00-2.50000E-01
 -1     10517 9.33333E+00 1.00000E+00 0.00000E+00
 -1     10518 9.33333E+00 1.00000E+00 2.50000E-01
 -1     10519 9.66667E+00 1.00000E+00-2.50000E-01
 -1     10521 9.66667E+00 1.00000E+00 2.50000E-01
 -1     10522 1.00000E+01 1.00000E+00-2.50000E-01
 -1     10523 1.00000E+01 1.00000E+00 0.00000E+00
 -1     10524 1.00000E+01 1.00000E+00 2.50000E-01
 -1     10525 0.00000E+00 1.16667E+00-2.50000E-01
 -1     10527 0.00000E+00 1.16667E+00 2.50000E-01
 -1     10528 6.66667E-01 1.16667E+00-2.50000E-01
 -1     10530 6.66667E-01 1.16667E+00 2.50000E-01
 -1     10531 1.33333E+00 1.16667E+00-2.50000E-01
 -1     10533 1.33333E+00 1.16667E+00 2.50000E-01
 -1     10534 2.00000E+00 1.16667E+00-2.50000E-01
 -1     10536 2.00000E+00 1.16667E+00 2.50000E-01
 -1     10537 2.66667E+00 1.16667E+00-2.50000E-01
 -1     10539 2.66667E+00 1.16667E+00 2.50000E-01
 -1     10540 3.33333E+00 1.16667E+00-2.50000E-01
 -1     10542 3.33333E+00 1.16667E+00 2.50000E-01
 -1     10543 4.00000E+00 1.16667E+00-2.50000E-01
 -1     10545 4.00000E+00 1.16667E+00 2.50000E-01
 -1     10546 4.66667E+00 1.16667E+00-2.50000E-01
 -1     10548 4.66667E+00 1.16667E+00 2.50000E-01
 -1     10549 5.33333E+00 1.16667E+00-2.50000E-01
 -1     10551 5.33333E+00 1.16667E+00 2.50000E-01
 -1     10552 6.00000E+00 1.16667E+00-2.50000E-01
 -1     10554 6.00000E+00 1.16667E+00 2.50000E-01
 -1     10555 6.66667E+00 1.16667E+00-2.50000E-01
 -1     10557 6.66667E+00 1.16667E+00 2.50000E-01
 -1     10558 7.33333E+00 1.16667E+00-2.50000E-01
 -1     10560 7.33333E+00 1.16667E+00 2.50000E-01
 -1     10561 8.00000E+00 1.16667E+00-2.50000E-01
 -1     10563 8.00000E+00 1.16667E+00 2.50000E-01
 -1     10564 8.66667E+00 1.16667E+00-2.50000E-01
 -1     10566 8.66667E+00 1.16667E+00 2.50000E-01
 -1     10567 9.33333E+00 1.16667E+00-2.50000E-01
 -1     10569 9.33333E+00 1.16667E+00 2.50000E-01
 -1     10570 1.00000E+01 1.16667E+00-2.50000E-01
 -1     10572 1.00000E+01 1.16667E+00 2.50000E-01
 -1     10573 0.00000E+00 1.33333E+00-2.50000E-01
 -1     10574 0.00000E+00 1.33333E+00 0.00000E+00
 -1     10575 0.00000E+00 1.33333E+00 2.50000E-01
 -1     10576 3.33333E-01 1.33333E+00-2.50000E-01
 -1     10578 3.33333E-01 1.33333E+00 2.50000E-01
 -1     10579 6.66667E-01 1.33333E+00-2.50000E-01
 -1     10580 6.66667E-01 1.33333E+00 0.00000E+00
 -1     10581 6.66667E-01 1.33333E+00 2.50000E-01
 -1     10582 1.00000E+00 1.33333E+00-2.50000E-01
 -1     10584 1.00000E+00 1.33333E+00 2.50000E-01
 -1     10585 1.33333E+00 1.33333E+00-2.50000E-01
 -1     10586 1.33333E+00 1.33333E+00 0.00000E+00
 -1     10587 1.33333E+00 1.33333E+00 2.50000E-01
 -1     10588 1.66667E+00 1.33333E+00-2.50000E-01
 -1     10590 1.66667E+00 1.33333E+00 2.50000E-01
 -1     10591 2.00000E+00 1.33333E+00-2.50000E-01
 -1     10592 2.00000E+00 1.33333E+00 0.00000E+00
 -1     10593 2.00000E+00 1.33333E+00 2.50000E-01
 -1     10594 2.33333E+00 1.33333E+00-2.50000E-01
 -1     10596 2.33333E+00 1.33333E+00 2.50000E-01
 -1     10597 2.66667E+00 1.33333E+00-2.50000E-01
 -1     10598 2.66667E+00 1.33333E+00 0.00000E+00
 -1     10599 2.66667E+00 1.33333E+00 2.50000E-01
 -1     10600 3.00000E+00 1.33333E+00-2.50000E-01
 -1     10602 3.00000E+00 1.33333E+00 2.50000E-01
 -1     10603 3.33333E+00 1.33333E+00-2.50000E-01
 -1     10604 3.33333E+00 1.33333E+00 0.00000E+00
 -1     10605 3.33333E+00 1.33333E+00 2.50000E-01
 -1     10606 3.66667E+00 1.33333E+00-2.50000E-01
 -1     10608 3.66667E+00 1.33333E+00 2.50000E-01
 -1     10609 4.00000E+00 1.33333E+00-2.50000E-01
 -1     10610 4.00000E+00 1.33333E+00 0.00000E+00
 -1     10611 4.00000E+00 1.33333E+00 2.50000E-01
 -1     10612 4.33333E+00 1.33333E+00-2.50000E-01
 -1     10614 4.33333E+00 1.33333E+00 2.50000E-01
 -1     10615 4.66667E+00 1.33333E+00-2.50000E-01
 -1     10616 4.66667E+00 1.33333E+00 0.00000E+00
 -1     10617 4.66667E+00 1.33333E+00 2.50000E-01
 -1     10618 5.00000E+00 1.33333E+00-2.50000E-01
 -1     10620 5.00000E+00 1.33333E+00 2.50000E-01
 -1     10621 5.33333E+00 1.33333E+00-2.50000E-01
 -1     10622 5.33333E+00 1.33333E+00 0.00000E+00
 -1     10623 5.33333E+00 1.33333E+00 2.50000E-01
 -1     10624 5.66667E+00 1.33333E+00-2.50000E-01
 -1     10626 5.66667E+00 1.33333E+00 2.50000E-01
 -1     10627 6.00000E+00 1.33333E+00-2.50000E-01
 -1     10628 6.00000E+00 1.33333E+00 0.00000E+00
 -1     10629 6.00000E+00 1.33333E+00 2.50000E-01
 -1     10630 6.33333E+00 1.33333E+00-2.50000E-01
 -1     10632 6.33333E+00 1.33333E+00 2.50000E-01
 -1     10633 6.66667E+00 1.33333E+00-2.50000E-01
 -1     10634 6.66667E+00 1.33333E+00 0.00000E+00
 -1     10635 6.66667E+00 1.33333E+00 2.50000E-01
 -1     10636 7.00000E+00 1.33333E+00-2.50000E-01
 -1     10638 7.00000E+00 1.33333E+00 2.50000E-01
 -1     10639 7.33333E+00 1.33333E+00-2.50000E-01
 -1     10640 7.33333E+00 1.33333E+00 0.00000E+00
 -1     10641 7.33333E+00 1.33333E+00 2.50000E-01
 -1     10642 7.66667E+00 1.33333E+00-2.50000E-01
 -1     10644 7.66667E+00 1.33333E+00 2.50000E-01
 -1     10645 8.00000E+00 1.33333E+00-2.50000E-01
 -1     10646 8.00000E+00 1.33333E+00 0.00000E+00
 -1     10647 8.00000E+00 1.33333E+00 2.50000E-01
 -1     10648 8.33333E+00 1.33333E+00-2.50000E-01
 -1     10650 8.33333E+00 1.33333E+00 2.50000E-01
 -1     10651 8.66667E+00 1.33333E+00-2.50000E-01
 -1     10652 8.66667E+00 1.33333E+00 0.00000E+00
 -1     10653 8.66667E+00 1.33333E+00 2.50000E-01
 -1     10654 9.00000E+00 1.33333E+00-2.50000E-01
 -1     10656 9.00000E+00 1.33333E+00 2.50000E-01
 -1     10657 9.33333E+00 1.33333E+00-2.50000E-01
 -1     10658 9.33333E+00 1.33333E+00 0.00000E+00
 -1     10659 9.33333E+00 1.33333E+00 2.50000E-01
 -1     10660 9.66667E+00 1.33333E+00-2.50000E-01
 -1     10662 9.66667E+00 1.33333E+00 2.50000E-01
 -1     10663 1.00000E+01 1.33333E+00-2.50000E-01
 -1     10664 1.00000E+01 1.33333E+00 0.00000E+00
 -1     10665 1.00000E+01 1.33333E+00 2.50000E-01
 -1     10666 0.00000E+00 1.50000E+00-2.50000E-01
 -1     10668 0.00000E+00 1.50000E+00 2.50000E-01
 -1     10669 6.66667E-01 1.50000E+00-2.50000E-01
 -1     10671 6.66667E-01 1.50000E+00 2.50000E-01
 -1     10672 1.33333E+00 1.50000E+00-2.50000E-01
 -1     10674 1.33333E+00 1.50000E+00 2.50000E-01
 -1     10675 2.00000E+00 1.50000E+00-2.50000E-01
 -1     10677 2.00000E+00 1.50000E+00 2.50000E-01
 -1     10678 2.66667E+00 1.50000E+00-2.50000E-01
 -1     10680 2.66667E+00 1.50000E+00 2.50000E-01
 -1     10681 3.33333E+00 1.50000E+00-2.50000E-01
 -1     10683 3.33333E+00 1.50000E+00 2.50000E-01
 -1     10684 4.00000E+00 1.50000E+00-2.50000E-01
 -1     10686 4.00000E+00 1.50000E+00 2.50000E-01
 -1     10687 4.66667E+00 1.50000E+00-2.50000E-01
 -1     10689 4.66667E+00 1.50000E+00 2.50000E-01
 -1     10690 5.33333E+00 1.50000E+00-2.50000E-01
 -1     10692 5.33333E+00 1.50000E+00 2.50000E-01
 -1     10693 6.00000E+00 1.50000E+00-2.50000E-01
 -1     10695 6.00000E+00 1.50000E+00 2.50000E-01
 -1     10696 6.66667E+00 1.50000E+00-2.50000E-01
 -1     10698 6.66667E+00 1.50000E+00 2.50000E-01
 -1     10699 7.33333E+00 1.50000E+00-2.50000E-01
 -1     10701 7.33333E+00 1.50000E+00 2.50000E-01
 -1     10702 8.00000E+00 1.50000E+00-2.50000E-01
 -1     10704 8.00000E+00 1.50000E+00 2.50000E-01
 -1     10705 8.66667E+00 1.50000E+00-2.50000E-01
 -1     10707 8.66667E+00 1.50000E+00 2.50000E-01
 -1     10708 9.33333E+00 1.50000E+00-2.50000E-01
 -1     10710 9.33333E+00 1.50000E+00 2.50000E-01
 -1     10711 1.00000E+01 1.50000E+00-2.50000E-01
 -1     10713 1.00000E+01 1.50000E+00 2.50000E-01
 -1     10714 0.00000E+00 1.66667E+00-2.50000E-01
 -1     10715 0.00000E+00 1.66667E+00 0.00000E+00
 -1     10716 0.00000E+00 1.66667E+00 2.50000E-01
 -1     10717 3.33333E-01 1.66667E+00-2.50000E-01
 -1     10719 3.33333E-01 1.66667E+00 2.50000E-01
 -1     10720 6.66667E-01 1.66667E+00-2.50000E-01
 -1     10721 6.66667E-01 1.66667E+00 0.00000E+00
 -1     10722 6.66667E-01 1.66667E+00 2.50000E-01
 -1     10723 1.00000E+00 1.66667E+00-2.50000E-01
 -1     10725 1.00000E+00 1.66667E+00 2.50000E-01
 -1     10726 1.33333E+00 1.66667E+00-2.50000E-01
 -1     10727 1.33333E+00 1.66667E+00 0.00000E+00
 -1     10728 1.33333E+00 1.66667E+00 2.50000E-01
 -1     10729 1.66667E+00 1.66667E+00-2.50000E-01
 -1     10731 1.66667E+00 1.66667E+00 2.50000E-01
 -1     10732 2.00000E+00 1.66667E+00-2.50000E-01
 -1     10733 2.00000E+00 1.66667E+00 0.00000E+00
 -1     10734 2.00000E+00 1.66667E+00 2.50000E-01