    1C
    1UUSER                                                              
    1UDATE              01.august.2019                                  
    1UTIME              09:37:08                                        
    1UHOST                                                              
    1UPGM               CalculiX                                        
    1UVERSION           Version 2.15                             
    1UCOMPILETIME       Fri 15 Mar 11:57:46 CET 2019                    
    1UDIR                                                               
    1UDBN                                                               
    1UMAT    1EL                                                        
    1UMAT    2SI1                                                       
    2C                            16                                     1
 -1         1 1.00000E+00 1.00000E+00 0.00000E+00
 -1         2 1.00000E+00 0.00000E+00 0.00000E+00
 -1         3 1.00000E+00 0.00000E+00 1.00000E+00
 -1         4 1.00000E+00 1.00000E+00 1.00000E+00
 -1         5 0.00000E+00 1.00000E+00 0.00000E+00
 -1         6 0.00000E+00 0.00000E+00 0.00000E+00
 -1         7 0.00000E+00 0.00000E+00 1.00000E+00
 -1         8 0.00000E+00 1.00000E+00 1.00000E+00
 -1         9-1.00000E+00 2.00000E+00 0.00000E+00
 -1        10-1.00000E+00-1.00000E+00 0.00000E+00
 -1        11-1.00000E+00-1.00000E+00-1.00000E+00
 -1        12-1.00000E+00 2.00000E+00-1.00000E+00
 -1        13 2.00000E+00 2.00000E+00 0.00000E+00
 -1        14 2.00000E+00-1.00000E+00 0.00000E+00
 -1        15 2.00000E+00-1.00000E+00-1.00000E+00
 -1        16 2.00000E+00 2.00000E+00-1.00000E+00
 -3
    3C                             2                                     1
 -1         1    1    0    1
 -2         1         2         3         4         5         6         7         8
 -1         2    1    0    1
 -2         9        10        11        12        13        14        15        16
 -3
 9999
