# vtk DataFile Version 3.0

ASCII
DATASET UNSTRUCTURED_GRID

POINTS 16 double
	 1.00000000E+00	 1.00000000E+00	-1.49012000E-08
	 1.00000000E+00	 0.00000000E+00	-1.49012000E-08
	 1.00000000E+00	 0.00000000E+00	 1.00000000E+00
	 1.00000000E+00	 1.00000000E+00	 1.00000000E+00
	-7.45058000E-09	 1.00000000E+00	-1.49012000E-08
	-7.45058000E-09	 0.00000000E+00	-1.49012000E-08
	-7.45058000E-09	 0.00000000E+00	 1.00000000E+00
	-7.45058000E-09	 1.00000000E+00	 1.00000000E+00
	 5.00000000E-01	 6.41421000E-01	 1.00000000E+00
	 6.41421000E-01	 5.00000000E-01	 1.00000000E+00
	 6.41421000E-01	 5.00000000E-01	 1.20000000E+00
	 5.00000000E-01	 6.41421000E-01	 1.20000000E+00
	 3.58579000E-01	 5.00000000E-01	 1.00000000E+00
	 5.00000000E-01	 3.58579000E-01	 1.00000000E+00
	 5.00000000E-01	 3.58579000E-01	 1.20000000E+00
	 3.58579000E-01	 5.00000000E-01	 1.20000000E+00

CELLS 2 18
	8 0 1 2 3 4 5 6 7 
	8 8 9 10 11 12 13 14 15 

CELL_TYPES 2
	12
	12

POINT_DATA 16
FIELD U 1
	U 3 16 double
		 0.00000000E+00	 0.00000000E+00	 0.00000000E+00
		 0.00000000E+00	 0.00000000E+00	 0.00000000E+00
		 3.75296000E-06	 6.31394000E-06	-1.73003000E-05
		 3.75293000E-06	 1.34993000E-05	-1.73003000E-05
		 0.00000000E+00	 0.00000000E+00	 0.00000000E+00
		 0.00000000E+00	 0.00000000E+00	 0.00000000E+00
		-3.75296000E-06	 6.31394000E-06	-1.73003000E-05
		-3.75293000E-06	 1.34993000E-05	-1.73003000E-05
		 0.00000000E+00	-1.12418000E-04	-2.72985000E-05
		 1.42624000E-05	-1.34734000E-04	-2.72985000E-05
		 3.18924000E-05	-8.22519000E-05	-1.29671000E-04
		 0.00000000E+00	-2.11495000E-05	-1.69011000E-04
		-1.42624000E-05	-1.34734000E-04	-2.72985000E-05
		 0.00000000E+00	-1.76188000E-04	-2.72985000E-05
		 0.00000000E+00	 0.00000000E+00	-4.59906000E-05
		-3.18924000E-05	-8.22519000E-05	-1.29671000E-04
FIELD S 1
	S 10 16 double
		-2.09597000E+00	-2.09594000E+00	-4.89034000E+00	 8.18369000E-06	 1.09023000E+00	 3.03101000E-01	 3.41321000E+00	-5.29109403E+00	-2.09597207E+00	-1.69518390E+00
		-2.09598000E+00	-2.09598000E+00	-4.89036000E+00	 3.82776000E-06	 5.09911000E-01	 3.03103000E-01	 2.97728090E+00	-5.01106991E+00	-2.09598336E+00	-1.97526672E+00
		 8.96461000E-01	 8.44683000E-01	-3.11045000E+00	 1.65820000E-06	 5.09922000E-01	 3.03110000E-01	 4.11171926E+00	-3.19722436E+00	 8.75639747E-01	 9.52278614E-01
		 8.96455000E-01	 8.44709000E-01	-3.11043000E+00	 6.01354000E-06	 1.09025000E+00	 3.03108000E-01	 4.43756953E+00	-3.41106068E+00	 8.92093215E-01	 1.14970146E+00
		-2.09597000E+00	-2.09594000E+00	-4.89034000E+00	-8.18370000E-06	 1.09023000E+00	-3.03101000E-01	 3.41321000E+00	-5.29109403E+00	-2.09597207E+00	-1.69518390E+00
		-2.09598000E+00	-2.09598000E+00	-4.89036000E+00	-3.82776000E-06	 5.09911000E-01	-3.03103000E-01	 2.97728090E+00	-5.01106991E+00	-2.09598336E+00	-1.97526672E+00
		 8.96461000E-01	 8.44683000E-01	-3.11045000E+00	-1.64830000E-06	 5.09922000E-01	-3.03110000E-01	 4.11171926E+00	-3.19722436E+00	 8.75639756E-01	 9.52278604E-01
		 8.96455000E-01	 8.44709000E-01	-3.11043000E+00	-6.00492000E-06	 1.09025000E+00	-3.03108000E-01	 4.43756953E+00	-3.41106068E+00	 8.92093220E-01	 1.14970146E+00
		-3.81928000E+01	-2.89506000E+01	-1.68702000E+02	 0.00000000E+00	 3.67941000E+01	 0.00000000E+00	 1.49618445E+02	-1.77797303E+02	-3.81928000E+01	-1.98552974E+01
		-6.17397000E+00	 1.39692000E+01	-1.05054000E+02	 5.47102000E+00	 2.11533000E+01	 7.10988000E+00	 1.17297053E+02	-1.09061775E+02	-7.54026647E+00	 1.93432713E+01
		-7.28188000E+00	-5.58245000E+01	-1.26299000E+02	-4.09515000E+01	-1.39311000E+01	-5.54613000E+00	 1.28256147E+02	-1.30613927E+02	-7.48728836E+01	 1.60814301E+01
		 3.03188000E+01	 6.37151000E+01	-1.20372000E+02	 0.00000000E+00	 1.43413000E+01	 0.00000000E+00	 1.71675752E+02	-1.21482559E+02	 3.03188000E+01	 6.48256588E+01
		-6.17397000E+00	 1.39692000E+01	-1.05054000E+02	-5.47102000E+00	 2.11533000E+01	-7.10988000E+00	 1.17297053E+02	-1.09061775E+02	-7.54026647E+00	 1.93432713E+01
		 5.27489000E+01	 8.38959000E+01	 2.13734000E+01	 0.00000000E+00	 7.11365000E+01	 0.00000000E+00	 1.34584602E+02	-2.50677784E+01	 5.27489000E+01	 1.30337078E+02
		-1.79826000E+01	-1.48258000E+02	-6.95071000E+01	 0.00000000E+00	 2.33144000E+01	 0.00000000E+00	 1.20601670E+02	-1.54642656E+02	-6.31224439E+01	-1.79826000E+01
		-7.28188000E+00	-5.58245000E+01	-1.26299000E+02	 4.09515000E+01	-1.39311000E+01	 5.54613000E+00	 1.28256147E+02	-1.30613927E+02	-7.48728836E+01	 1.60814301E+01
FIELD CONTACT 1
	CONTACT 6 16 double
		 0.00000000E+00	 0.00000000E+00	 0.00000000E+00	 0.00000000E+00	 0.00000000E+00	 0.00000000E+00
		 0.00000000E+00	 0.00000000E+00	 0.00000000E+00	 0.00000000E+00	 0.00000000E+00	 0.00000000E+00
		 0.00000000E+00	 0.00000000E+00	 0.00000000E+00	 0.00000000E+00	 0.00000000E+00	 0.00000000E+00
		 0.00000000E+00	 0.00000000E+00	 0.00000000E+00	 0.00000000E+00	 0.00000000E+00	 0.00000000E+00
		 0.00000000E+00	 0.00000000E+00	 0.00000000E+00	 0.00000000E+00	 0.00000000E+00	 0.00000000E+00
		 0.00000000E+00	 0.00000000E+00	 0.00000000E+00	 0.00000000E+00	 0.00000000E+00	 0.00000000E+00
		 0.00000000E+00	 0.00000000E+00	 0.00000000E+00	 0.00000000E+00	 0.00000000E+00	 0.00000000E+00
		 0.00000000E+00	 0.00000000E+00	 0.00000000E+00	 0.00000000E+00	 0.00000000E+00	 0.00000000E+00
		-9.99824000E-06	 0.00000000E+00	-1.27628000E-04	 9.99824000E+01	 0.00000000E+00	 1.99965000E+01
		-9.99824000E-06	 1.05267000E-05	-1.44466000E-04	 9.99824000E+01	-1.24532000E-03	 1.99965000E+01
		 0.00000000E+00	 0.00000000E+00	 0.00000000E+00	 0.00000000E+00	 0.00000000E+00	 0.00000000E+00
		 0.00000000E+00	 0.00000000E+00	 0.00000000E+00	 0.00000000E+00	 0.00000000E+00	 0.00000000E+00
		-9.99824000E-06	-1.05267000E-05	-1.44466000E-04	 9.99824000E+01	 1.24532000E-03	 1.99965000E+01
		-9.99824000E-06	 0.00000000E+00	-1.76860000E-04	 9.99824000E+01	 0.00000000E+00	 1.99965000E+01
		 0.00000000E+00	 0.00000000E+00	 0.00000000E+00	 0.00000000E+00	 0.00000000E+00	 0.00000000E+00
		 0.00000000E+00	 0.00000000E+00	 0.00000000E+00	 0.00000000E+00	 0.00000000E+00	 0.00000000E+00
