# vtk DataFile Version 3.0

ASCII
DATASET UNSTRUCTURED_GRID

POINTS 16 double
	 1.00000000E+00	 1.00000000E+00	-1.49012000E-08
	 1.00000000E+00	 0.00000000E+00	-1.49012000E-08
	 1.00000000E+00	 0.00000000E+00	 1.00000000E+00
	 1.00000000E+00	 1.00000000E+00	 1.00000000E+00
	-7.45058000E-09	 1.00000000E+00	-1.49012000E-08
	-7.45058000E-09	 0.00000000E+00	-1.49012000E-08
	-7.45058000E-09	 0.00000000E+00	 1.00000000E+00
	-7.45058000E-09	 1.00000000E+00	 1.00000000E+00
	 5.00000000E-01	 6.41421000E-01	 1.00000000E+00
	 6.41421000E-01	 5.00000000E-01	 1.00000000E+00
	 6.41421000E-01	 5.00000000E-01	 1.20000000E+00
	 5.00000000E-01	 6.41421000E-01	 1.20000000E+00
	 3.58579000E-01	 5.00000000E-01	 1.00000000E+00
	 5.00000000E-01	 3.58579000E-01	 1.00000000E+00
	 5.00000000E-01	 3.58579000E-01	 1.20000000E+00
	 3.58579000E-01	 5.00000000E-01	 1.20000000E+00

CELLS 2 18
	8 0 1 2 3 4 5 6 7 
	8 8 9 10 11 12 13 14 15 

CELL_TYPES 2
	12
	12

POINT_DATA 16
FIELD U 1
	U 3 16 double
		 0.00000000E+00	 0.00000000E+00	 0.00000000E+00
		 0.00000000E+00	 0.00000000E+00	 0.00000000E+00
		 3.66314000E-06	 6.02548000E-06	-1.73854000E-05
		 3.66312000E-06	 1.37878000E-05	-1.73854000E-05
		 0.00000000E+00	 0.00000000E+00	 0.00000000E+00
		 0.00000000E+00	 0.00000000E+00	 0.00000000E+00
		-3.66314000E-06	 6.02548000E-06	-1.73854000E-05
		-3.66312000E-06	 1.37878000E-05	-1.73854000E-05
		 0.00000000E+00	 5.01454000E-02	-2.73837000E-05
		 1.42609000E-05	 5.01231000E-02	-2.73837000E-05
		 3.18929000E-05	 5.01756000E-02	-1.29757000E-04
		 0.00000000E+00	 5.02367000E-02	-1.69095000E-04
		-1.42609000E-05	 5.01231000E-02	-2.73837000E-05
		 0.00000000E+00	 5.00816000E-02	-2.73837000E-05
		 0.00000000E+00	 5.02578000E-02	-4.60750000E-05
		-3.18929000E-05	 5.01756000E-02	-1.29757000E-04
FIELD S 1
	S 10 16 double
		-2.10629000E+00	-2.10626000E+00	-4.91441000E+00	 8.15852000E-06	 1.11352000E+00	 2.95847000E-01	 3.44499331E+00	-5.32661636E+00	-2.10629207E+00	-1.69405157E+00
		-2.10630000E+00	-2.10629000E+00	-4.91443000E+00	 3.56547000E-06	 4.86614000E-01	 2.95849000E-01	 2.97633695E+00	-5.02552743E+00	-2.10630047E+00	-1.99519211E+00
		 9.05260000E-01	 9.75693000E-01	-3.08638000E+00	 1.66811000E-06	 4.86625000E-01	 2.95856000E-01	 4.14635959E+00	-3.16507297E+00	 9.16221687E-01	 1.04342428E+00
		 9.05256000E-01	 9.75721000E-01	-3.08637000E+00	 6.26197000E-06	 1.11355000E+00	 2.95854000E-01	 4.49465048E+00	-3.39072677E+00	 9.09123720E-01	 1.27621005E+00
		-2.10629000E+00	-2.10626000E+00	-4.91441000E+00	-8.15853000E-06	 1.11352000E+00	-2.95847000E-01	 3.44499331E+00	-5.32661636E+00	-2.10629207E+00	-1.69405157E+00
		-2.10630000E+00	-2.10629000E+00	-4.91443000E+00	-3.56547000E-06	 4.86614000E-01	-2.95849000E-01	 2.97633695E+00	-5.02552743E+00	-2.10630047E+00	-1.99519211E+00
		 9.05260000E-01	 9.75693000E-01	-3.08638000E+00	-1.66091000E-06	 4.86625000E-01	-2.95856000E-01	 4.14635959E+00	-3.16507297E+00	 9.16221691E-01	 1.04342428E+00
		 9.05256000E-01	 9.75721000E-01	-3.08637000E+00	-6.25327000E-06	 1.11355000E+00	-2.95854000E-01	 4.49465048E+00	-3.39072677E+00	 9.09123724E-01	 1.27621005E+00
		-3.81949000E+01	-2.89503000E+01	-1.68702000E+02	 0.00000000E+00	 3.67938000E+01	 0.00000000E+00	 1.49617522E+02	-1.77797146E+02	-3.81949000E+01	-1.98551545E+01
		-6.17664000E+00	 1.39689000E+01	-1.05055000E+02	 5.47102000E+00	 2.11533000E+01	 7.11070000E+00	 1.17297056E+02	-1.09062857E+02	-7.54275420E+00	 1.93428709E+01
		-7.28120000E+00	-5.58248000E+01	-1.26299000E+02	-4.09515000E+01	-1.39311000E+01	-5.54592000E+00	 1.28256539E+02	-1.30613884E+02	-7.48729897E+01	 1.60818733E+01
		 3.03201000E+01	 6.37154000E+01	-1.20371000E+02	 0.00000000E+00	 1.43416000E+01	 0.00000000E+00	 1.71675486E+02	-1.21481609E+02	 3.03201000E+01	 6.48260091E+01
		-6.17664000E+00	 1.39689000E+01	-1.05055000E+02	-5.47102000E+00	 2.11533000E+01	-7.11070000E+00	 1.17297056E+02	-1.09062857E+02	-7.54275420E+00	 1.93428709E+01
		 5.27468000E+01	 8.38962000E+01	 2.13736000E+01	 0.00000000E+00	 7.11369000E+01	 0.00000000E+00	 1.34585270E+02	-2.50679147E+01	 5.27468000E+01	 1.30337715E+02
		-1.79813000E+01	-1.48258000E+02	-6.95058000E+01	 0.00000000E+00	 2.33141000E+01	 0.00000000E+00	 1.20602623E+02	-1.54642413E+02	-6.31213874E+01	-1.79813000E+01
		-7.28120000E+00	-5.58248000E+01	-1.26299000E+02	 4.09515000E+01	-1.39311000E+01	 5.54592000E+00	 1.28256539E+02	-1.30613884E+02	-7.48729897E+01	 1.60818733E+01
FIELD CONTACT 1
	CONTACT 6 16 double
		 0.00000000E+00	 0.00000000E+00	 0.00000000E+00	 0.00000000E+00	 0.00000000E+00	 0.00000000E+00
		 0.00000000E+00	 0.00000000E+00	 0.00000000E+00	 0.00000000E+00	 0.00000000E+00	 0.00000000E+00
		 0.00000000E+00	 0.00000000E+00	 0.00000000E+00	 0.00000000E+00	 0.00000000E+00	 0.00000000E+00
		 0.00000000E+00	 0.00000000E+00	 0.00000000E+00	 0.00000000E+00	 0.00000000E+00	 0.00000000E+00
		 0.00000000E+00	 0.00000000E+00	 0.00000000E+00	 0.00000000E+00	 0.00000000E+00	 0.00000000E+00
		 0.00000000E+00	 0.00000000E+00	 0.00000000E+00	 0.00000000E+00	 0.00000000E+00	 0.00000000E+00
		 0.00000000E+00	 0.00000000E+00	 0.00000000E+00	 0.00000000E+00	 0.00000000E+00	 0.00000000E+00
		 0.00000000E+00	 0.00000000E+00	 0.00000000E+00	 0.00000000E+00	 0.00000000E+00	 0.00000000E+00
		-9.99824000E-06	 0.00000000E+00	 5.01297000E-02	 9.99824000E+01	 0.00000000E+00	 1.99965000E+01
		-9.99824000E-06	 1.05458000E-05	 5.01129000E-02	 9.99824000E+01	 3.35030000E-03	 1.99965000E+01
		 0.00000000E+00	 0.00000000E+00	 0.00000000E+00	 0.00000000E+00	 0.00000000E+00	 0.00000000E+00
		 0.00000000E+00	 0.00000000E+00	 0.00000000E+00	 0.00000000E+00	 0.00000000E+00	 0.00000000E+00
		-9.99824000E-06	-1.05458000E-05	 5.01129000E-02	 9.99824000E+01	-3.35030000E-03	 1.99965000E+01
		-9.99824000E-06	 0.00000000E+00	 5.00806000E-02	 9.99824000E+01	 0.00000000E+00	 1.99965000E+01
		 0.00000000E+00	 0.00000000E+00	 0.00000000E+00	 0.00000000E+00	 0.00000000E+00	 0.00000000E+00
		 0.00000000E+00	 0.00000000E+00	 0.00000000E+00	 0.00000000E+00	 0.00000000E+00	 0.00000000E+00
