# vtk DataFile Version 3.0

ASCII
DATASET UNSTRUCTURED_GRID

POINTS 16 double
	 1.00000000E+00	 1.00000000E+00	-1.49012000E-08
	 1.00000000E+00	 0.00000000E+00	-1.49012000E-08
	 1.00000000E+00	 0.00000000E+00	 1.00000000E+00
	 1.00000000E+00	 1.00000000E+00	 1.00000000E+00
	-7.45058000E-09	 1.00000000E+00	-1.49012000E-08
	-7.45058000E-09	 0.00000000E+00	-1.49012000E-08
	-7.45058000E-09	 0.00000000E+00	 1.00000000E+00
	-7.45058000E-09	 1.00000000E+00	 1.00000000E+00
	 5.00000000E-01	 6.41421000E-01	 1.00000000E+00
	 6.41421000E-01	 5.00000000E-01	 1.00000000E+00
	 6.41421000E-01	 5.00000000E-01	 1.20000000E+00
	 5.00000000E-01	 6.41421000E-01	 1.20000000E+00
	 3.58579000E-01	 5.00000000E-01	 1.00000000E+00
	 5.00000000E-01	 3.58579000E-01	 1.00000000E+00
	 5.00000000E-01	 3.58579000E-01	 1.20000000E+00
	 3.58579000E-01	 5.00000000E-01	 1.20000000E+00

CELLS 2 18
	8 0 1 2 3 4 5 6 7 
	8 8 9 10 11 12 13 14 15 

CELL_TYPES 2
	12
	12

POINT_DATA 16
FIELD U 1
	U 3 16 double
		 0.00000000E+00	 0.00000000E+00	 0.00000000E+00
		 0.00000000E+00	 0.00000000E+00	 0.00000000E+00
		 3.82845000E-06	-1.32639000E-05	-1.72345000E-05
		 3.82851000E-06	-6.55468000E-06	-1.72345000E-05
		 0.00000000E+00	 0.00000000E+00	 0.00000000E+00
		 0.00000000E+00	 0.00000000E+00	 0.00000000E+00
		-3.82845000E-06	-1.32639000E-05	-1.72345000E-05
		-3.82851000E-06	-6.55468000E-06	-1.72345000E-05
		 0.00000000E+00	 5.66307000E-02	-2.72360000E-05
		 2.61796000E-05	 5.66126000E-02	-2.72360000E-05
		 8.53889000E-06	 5.65601000E-02	-1.15556000E-04
		 0.00000000E+00	 5.65394000E-02	-7.62422000E-05
		-2.61796000E-05	 5.66126000E-02	-2.72360000E-05
		 0.00000000E+00	 5.66137000E-02	-2.72360000E-05
		 0.00000000E+00	 5.64375000E-02	-1.99272000E-04
		-8.53889000E-06	 5.65601000E-02	-1.15556000E-04
FIELD S 1
	S 10 16 double
		-2.08801000E+00	-2.08800000E+00	-4.87175000E+00	-4.05372000E-06	-5.29354000E-01	 3.09205000E-01	 2.97938020E+00	-5.00077581E+00	-2.08801099E+00	-1.95897320E+00
		-2.08800000E+00	-2.08797000E+00	-4.87173000E+00	-8.20282000E-06	-1.07122000E+00	 3.09200000E-01	 3.38800635E+00	-5.26323051E+00	-2.08800206E+00	-1.69646742E+00
		 8.89441000E-01	 7.36386000E-01	-3.13121000E+00	-3.16553000E-06	-1.07124000E+00	 3.09207000E-01	 4.39353751E+00	-3.42885764E+00	 8.68915197E-01	 1.05455944E+00
		 8.89469000E-01	 7.36372000E-01	-3.13121000E+00	 9.81873000E-07	-5.29365000E-01	 3.09212000E-01	 4.08671782E+00	-3.22518367E+00	 7.93339143E-01	 9.26475528E-01
		-2.08801000E+00	-2.08800000E+00	-4.87175000E+00	 4.05372000E-06	-5.29354000E-01	-3.09205000E-01	 2.97938020E+00	-5.00077581E+00	-2.08801099E+00	-1.95897320E+00
		-2.08800000E+00	-2.08797000E+00	-4.87173000E+00	 8.20282000E-06	-1.07122000E+00	-3.09200000E-01	 3.38800635E+00	-5.26323051E+00	-2.08800206E+00	-1.69646742E+00
		 8.89441000E-01	 7.36386000E-01	-3.13121000E+00	 3.15872000E-06	-1.07124000E+00	-3.09207000E-01	 4.39353751E+00	-3.42885764E+00	 8.68915203E-01	 1.05455943E+00
		 8.89469000E-01	 7.36372000E-01	-3.13121000E+00	-9.92168000E-07	-5.29365000E-01	-3.09212000E-01	 4.08671782E+00	-3.22518367E+00	 7.93339149E-01	 9.26475522E-01
		 3.82021000E+01	 2.90228000E+01	-3.12615000E+01	 0.00000000E+00	-3.68285000E+01	 0.00000000E+00	 9.13281955E+01	-4.87101855E+01	 3.82021000E+01	 4.64714855E+01
		 6.14605000E+00	-1.40379000E+01	-9.50320000E+01	-5.48179000E+00	-2.11898000E+01	-7.11621000E+00	 1.00952024E+02	-1.00872798E+02	-9.62462599E+00	 7.57357375E+00
		 7.28122000E+00	 5.57780000E+01	-7.37385000E+01	 4.09407000E+01	 1.39445000E+01	 5.55358000E+00	 1.36197008E+02	-7.52431278E+01	-1.59812030E+01	 8.05450507E+01
		-3.03108000E+01	-6.36594000E+01	-7.96032000E+01	 0.00000000E+00	-1.43883000E+01	 0.00000000E+00	 5.01907045E+01	-8.80804449E+01	-5.51821551E+01	-3.03108000E+01
		 6.14605000E+00	-1.40379000E+01	-9.50320000E+01	 5.48179000E+00	-2.11898000E+01	 7.11621000E+00	 1.00952024E+02	-1.00872798E+02	-9.62462599E+00	 7.57357375E+00
		-5.27633000E+01	-8.38492000E+01	-2.21257000E+02	 0.00000000E+00	-7.09858000E+01	 0.00000000E+00	 1.98079866E+02	-2.51341812E+02	-5.37643877E+01	-5.27633000E+01
		 1.80158000E+01	 1.48564000E+02	-1.30390000E+02	 0.00000000E+00	-2.32632000E+01	 0.00000000E+00	 2.45081116E+02	-1.32316713E+02	 1.80158000E+01	 1.50490713E+02
		 7.28122000E+00	 5.57780000E+01	-7.37385000E+01	-4.09407000E+01	 1.39445000E+01	-5.55358000E+00	 1.36197008E+02	-7.52431278E+01	-1.59812030E+01	 8.05450507E+01
FIELD CONTACT 1
	CONTACT 6 16 double
		 0.00000000E+00	 0.00000000E+00	 0.00000000E+00	 0.00000000E+00	 0.00000000E+00	 0.00000000E+00
		 0.00000000E+00	 0.00000000E+00	 0.00000000E+00	 0.00000000E+00	 0.00000000E+00	 0.00000000E+00
		 0.00000000E+00	 0.00000000E+00	 0.00000000E+00	 0.00000000E+00	 0.00000000E+00	 0.00000000E+00
		 0.00000000E+00	 0.00000000E+00	 0.00000000E+00	 0.00000000E+00	 0.00000000E+00	 0.00000000E+00
		 0.00000000E+00	 0.00000000E+00	 0.00000000E+00	 0.00000000E+00	 0.00000000E+00	 0.00000000E+00
		 0.00000000E+00	 0.00000000E+00	 0.00000000E+00	 0.00000000E+00	 0.00000000E+00	 0.00000000E+00
		 0.00000000E+00	 0.00000000E+00	 0.00000000E+00	 0.00000000E+00	 0.00000000E+00	 0.00000000E+00
		 0.00000000E+00	 0.00000000E+00	 0.00000000E+00	 0.00000000E+00	 0.00000000E+00	 0.00000000E+00
		-1.00015000E-05	 0.00000000E+00	 5.66359000E-02	 1.00015000E+02	 0.00000000E+00	-2.00030000E+01
		-1.00015000E-05	 2.00127000E-05	 5.66231000E-02	 1.00015000E+02	 8.71605000E-03	-2.00030000E+01
		 0.00000000E+00	 0.00000000E+00	 0.00000000E+00	 0.00000000E+00	 0.00000000E+00	 0.00000000E+00
		 0.00000000E+00	 0.00000000E+00	 0.00000000E+00	 0.00000000E+00	 0.00000000E+00	 0.00000000E+00
		-1.00015000E-05	-2.00127000E-05	 5.66231000E-02	 1.00015000E+02	-8.71605000E-03	-2.00030000E+01
		-1.00015000E-05	 0.00000000E+00	 5.66241000E-02	 1.00015000E+02	 0.00000000E+00	-2.00030000E+01
		 0.00000000E+00	 0.00000000E+00	 0.00000000E+00	 0.00000000E+00	 0.00000000E+00	 0.00000000E+00
		 0.00000000E+00	 0.00000000E+00	 0.00000000E+00	 0.00000000E+00	 0.00000000E+00	 0.00000000E+00
