<?xml version="1.0"?>
<VTKFile type="UnstructuredGrid" version="0.1" byte_order="LittleEndian">
	<UnstructuredGrid>
		<Piece NumberOfPoints="16" NumberOfCells="2">
			<Points>
				<DataArray type="Float64" NumberOfComponents="3" format="ascii">
					 1.00000000E+00	 1.00000000E+00	-1.49012000E-08
					 1.00000000E+00	 0.00000000E+00	-1.49012000E-08
					 1.00000000E+00	 0.00000000E+00	 1.00000000E+00
					 1.00000000E+00	 1.00000000E+00	 1.00000000E+00
					-7.45058000E-09	 1.00000000E+00	-1.49012000E-08
					-7.45058000E-09	 0.00000000E+00	-1.49012000E-08
					-7.45058000E-09	 0.00000000E+00	 1.00000000E+00
					-7.45058000E-09	 1.00000000E+00	 1.00000000E+00
					 5.00000000E-01	 6.41421000E-01	 1.00000000E+00
					 6.41421000E-01	 5.00000000E-01	 1.00000000E+00
					 6.41421000E-01	 5.00000000E-01	 1.20000000E+00
					 5.00000000E-01	 6.41421000E-01	 1.20000000E+00
					 3.58579000E-01	 5.00000000E-01	 1.00000000E+00
					 5.00000000E-01	 3.58579000E-01	 1.00000000E+00
					 5.00000000E-01	 3.58579000E-01	 1.20000000E+00
					 3.58579000E-01	 5.00000000E-01	 1.20000000E+00

				</DataArray>
			</Points>
			<Cells>
				<DataArray type="Int32" Name="connectivity" format="ascii">
					0 1 2 3 4 5 6 7 8 9 10 11 12 13 14 15 
				</DataArray>
				<DataArray type="Int32" Name="offsets" format="ascii">
					8 16 
				</DataArray>
				<DataArray type="UInt8" Name="types" format="ascii">
					12 12 
				</DataArray>
			</Cells>
			<PointData>
				<DataArray type="Float32" Name="U" NumberOfComponents="3" ComponentName0="D1" ComponentName1="D2" ComponentName2="D3" format="ascii">
					 0.00000000E+00	 0.00000000E+00	 0.00000000E+00
					 0.00000000E+00	 0.00000000E+00	 0.00000000E+00
					 3.76900000E-06	-1.34547000E-05	-1.72907000E-05
					 3.76903000E-06	-6.36393000E-06	-1.72907000E-05
					 0.00000000E+00	 0.00000000E+00	 0.00000000E+00
					 0.00000000E+00	 0.00000000E+00	 0.00000000E+00
					-3.76900000E-06	-1.34547000E-05	-1.72907000E-05
					-3.76903000E-06	-6.36393000E-06	-1.72907000E-05
					 0.00000000E+00	-3.22409000E-04	-2.72925000E-05
					 2.61818000E-05	-3.40525000E-04	-2.72925000E-05
					 8.53805000E-06	-3.93027000E-04	-1.15612000E-04
					 0.00000000E+00	-4.13674000E-04	-7.62998000E-05
					-2.61818000E-05	-3.40525000E-04	-2.72925000E-05
					 0.00000000E+00	-3.39448000E-04	-2.72925000E-05
					 0.00000000E+00	-5.15625000E-04	-1.99329000E-04
					-8.53805000E-06	-3.93027000E-04	-1.15612000E-04
				</DataArray>
				<DataArray type="Float32" Name="S" NumberOfComponents="10" ComponentName0="xx" ComponentName1="yy" ComponentName2="zz" ComponentName3="xy" ComponentName4="yz" ComponentName5="zx" ComponentName6="Mises" ComponentName7="Min Principal" ComponentName8="Mid Principal" ComponentName9="Max Principal" format="ascii">
					-2.09482000E+00	-2.09482000E+00	-4.88766000E+00	-3.87459000E-06	-5.13948000E-01	 3.04401000E-01	 2.97831543E+00	-5.01005234E+00	-2.09482340E+00	-1.97242426E+00
					-2.09481000E+00	-2.09479000E+00	-4.88764000E+00	-8.19156000E-06	-1.08662000E+00	 3.04399000E-01	 3.40883567E+00	-5.28659893E+00	-2.09481280E+00	-1.69582827E+00
					 8.95235000E-01	 8.23014000E-01	-3.11530000E+00	-5.66928000E-06	-1.08665000E+00	 3.04406000E-01	 4.42948933E+00	-3.41539335E+00	 8.88610759E-01	 1.12973159E+00
					 8.95244000E-01	 8.22990000E-01	-3.11531000E+00	-1.35295000E-06	-5.13959000E-01	 3.04408000E-01	 4.10736408E+00	-3.20352146E+00	 8.62024792E-01	 9.44420672E-01
					-2.09482000E+00	-2.09482000E+00	-4.88766000E+00	 3.87459000E-06	-5.13948000E-01	-3.04401000E-01	 2.97831543E+00	-5.01005234E+00	-2.09482340E+00	-1.97242426E+00
					-2.09481000E+00	-2.09479000E+00	-4.88764000E+00	 8.19156000E-06	-1.08662000E+00	-3.04399000E-01	 3.40883567E+00	-5.28659893E+00	-2.09481280E+00	-1.69582827E+00
					 8.95235000E-01	 8.23014000E-01	-3.11530000E+00	 5.66277000E-06	-1.08665000E+00	-3.04406000E-01	 4.42948933E+00	-3.41539335E+00	 8.88610763E-01	 1.12973159E+00
					 8.95244000E-01	 8.22990000E-01	-3.11531000E+00	 1.34505000E-06	-5.13959000E-01	-3.04408000E-01	 4.10736408E+00	-3.20352146E+00	 8.62024800E-01	 9.44420665E-01
					 3.82053000E+01	 2.90227000E+01	-3.12617000E+01	 0.00000000E+00	-3.68281000E+01	 0.00000000E+00	 9.13292035E+01	-4.87100576E+01	 3.82053000E+01	 4.64710576E+01
					 6.15021000E+00	-1.40370000E+01	-9.50301000E+01	-5.48179000E+00	-2.11898000E+01	-7.11745000E+00	 1.00953344E+02	-1.00871127E+02	-9.62337887E+00	 7.57761538E+00
					 7.28011000E+00	 5.57782000E+01	-7.37383000E+01	 4.09407000E+01	 1.39445000E+01	 5.55321000E+00	 1.36196806E+02	-7.52429156E+01	-1.59819743E+01	 8.05448999E+01
					-3.03128000E+01	-6.36601000E+01	-7.96051000E+01	 0.00000000E+00	-1.43887000E+01	 0.00000000E+00	 5.01907582E+01	-8.80823855E+01	-5.51828145E+01	-3.03128000E+01
					 6.15021000E+00	-1.40370000E+01	-9.50301000E+01	 5.48179000E+00	-2.11898000E+01	 7.11745000E+00	 1.00953344E+02	-1.00871127E+02	-9.62337887E+00	 7.57761538E+00
					-5.27601000E+01	-8.38493000E+01	-2.21257000E+02	 0.00000000E+00	-7.09862000E+01	 0.00000000E+00	 1.98081881E+02	-2.51342115E+02	-5.37641851E+01	-5.27601000E+01
					 1.80138000E+01	 1.48563000E+02	-1.30392000E+02	 0.00000000E+00	-2.32627000E+01	 0.00000000E+00	 2.45081809E+02	-1.32318624E+02	 1.80138000E+01	 1.50489624E+02
					 7.28011000E+00	 5.57782000E+01	-7.37383000E+01	-4.09407000E+01	 1.39445000E+01	-5.55321000E+00	 1.36196806E+02	-7.52429156E+01	-1.59819743E+01	 8.05448999E+01
				</DataArray>
				<DataArray type="Float32" Name="CONTACT" NumberOfComponents="6" ComponentName0="COPEN" ComponentName1="CSLIP1" ComponentName2="CSLIP2" ComponentName3="CPRESS" ComponentName4="CSHEAR1" ComponentName5="CSHEAR2" format="ascii">
					 0.00000000E+00	 0.00000000E+00	 0.00000000E+00	 0.00000000E+00	 0.00000000E+00	 0.00000000E+00
					 0.00000000E+00	 0.00000000E+00	 0.00000000E+00	 0.00000000E+00	 0.00000000E+00	 0.00000000E+00
					 0.00000000E+00	 0.00000000E+00	 0.00000000E+00	 0.00000000E+00	 0.00000000E+00	 0.00000000E+00
					 0.00000000E+00	 0.00000000E+00	 0.00000000E+00	 0.00000000E+00	 0.00000000E+00	 0.00000000E+00
					 0.00000000E+00	 0.00000000E+00	 0.00000000E+00	 0.00000000E+00	 0.00000000E+00	 0.00000000E+00
					 0.00000000E+00	 0.00000000E+00	 0.00000000E+00	 0.00000000E+00	 0.00000000E+00	 0.00000000E+00
					 0.00000000E+00	 0.00000000E+00	 0.00000000E+00	 0.00000000E+00	 0.00000000E+00	 0.00000000E+00
					 0.00000000E+00	 0.00000000E+00	 0.00000000E+00	 0.00000000E+00	 0.00000000E+00	 0.00000000E+00
					-1.00018000E-05	 0.00000000E+00	-3.17062000E-04	 1.00018000E+02	 0.00000000E+00	-2.00035000E+01
					-1.00018000E-05	 2.00279000E-05	-3.29821000E-04	 1.00018000E+02	 1.50903000E-03	-2.00035000E+01
					 0.00000000E+00	 0.00000000E+00	 0.00000000E+00	 0.00000000E+00	 0.00000000E+00	 0.00000000E+00
					 0.00000000E+00	 0.00000000E+00	 0.00000000E+00	 0.00000000E+00	 0.00000000E+00	 0.00000000E+00
					-1.00018000E-05	-2.00279000E-05	-3.29821000E-04	 1.00018000E+02	-1.50903000E-03	-2.00035000E+01
					-1.00018000E-05	 0.00000000E+00	-3.28775000E-04	 1.00018000E+02	 0.00000000E+00	-2.00035000E+01
					 0.00000000E+00	 0.00000000E+00	 0.00000000E+00	 0.00000000E+00	 0.00000000E+00	 0.00000000E+00
					 0.00000000E+00	 0.00000000E+00	 0.00000000E+00	 0.00000000E+00	 0.00000000E+00	 0.00000000E+00
				</DataArray>
			</PointData>
		</Piece>
	</UnstructuredGrid>
</VTKFile>