<?xml version="1.0"?>
<VTKFile type="UnstructuredGrid" version="0.1" byte_order="LittleEndian">
	<UnstructuredGrid>
		<Piece NumberOfPoints="16" NumberOfCells="2">
			<Points>
				<DataArray type="Float64" NumberOfComponents="3" format="ascii">
					 1.00000000E+00	 1.00000000E+00	-1.49012000E-08
					 1.00000000E+00	 0.00000000E+00	-1.49012000E-08
					 1.00000000E+00	 0.00000000E+00	 1.00000000E+00
					 1.00000000E+00	 1.00000000E+00	 1.00000000E+00
					-7.45058000E-09	 1.00000000E+00	-1.49012000E-08
					-7.45058000E-09	 0.00000000E+00	-1.49012000E-08
					-7.45058000E-09	 0.00000000E+00	 1.00000000E+00
					-7.45058000E-09	 1.00000000E+00	 1.00000000E+00
					 5.00000000E-01	 6.41421000E-01	 1.00000000E+00
					 6.41421000E-01	 5.00000000E-01	 1.00000000E+00
					 6.41421000E-01	 5.00000000E-01	 1.20000000E+00
					 5.00000000E-01	 6.41421000E-01	 1.20000000E+00
					 3.58579000E-01	 5.00000000E-01	 1.00000000E+00
					 5.00000000E-01	 3.58579000E-01	 1.00000000E+00
					 5.00000000E-01	 3.58579000E-01	 1.20000000E+00
					 3.58579000E-01	 5.00000000E-01	 1.20000000E+00

				</DataArray>
			</Points>
			<Cells>
				<DataArray type="Int32" Name="connectivity" format="ascii">
					0 1 2 3 4 5 6 7 8 9 10 11 12 13 14 15 
				</DataArray>
				<DataArray type="Int32" Name="offsets" format="ascii">
					8 16 
				</DataArray>
				<DataArray type="UInt8" Name="types" format="ascii">
					12 12 
				</DataArray>
			</Cells>
			<PointData>
				<DataArray type="Float32" Name="U" NumberOfComponents="3" ComponentName0="D1" ComponentName1="D2" ComponentName2="D3" format="ascii">
					 0.00000000E+00	 0.00000000E+00	 0.00000000E+00
					 0.00000000E+00	 0.00000000E+00	 0.00000000E+00
					 2.13612000E-06	-2.13041000E-06	-9.96844000E-06
					 2.13612000E-06	 2.14183000E-06	-9.96844000E-06
					 0.00000000E+00	 0.00000000E+00	 0.00000000E+00
					 0.00000000E+00	 0.00000000E+00	 0.00000000E+00
					-2.13612000E-06	-2.13041000E-06	-9.96844000E-06
					-2.13612000E-06	 2.14183000E-06	-9.96844000E-06
					 0.00000000E+00	 2.31535000E-05	-1.95421000E-05
					 1.16162000E-05	 1.15327000E-05	-1.95421000E-05
					 1.16286000E-05	 1.15629000E-05	-7.43389000E-05
					 0.00000000E+00	 2.32083000E-05	-7.43615000E-05
					-1.16162000E-05	 1.15327000E-05	-1.95421000E-05
					 0.00000000E+00	-9.91249000E-08	-1.95421000E-05
					 0.00000000E+00	 0.00000000E+00	-7.42907000E-05
					-1.16286000E-05	 1.15629000E-05	-7.43389000E-05
				</DataArray>
				<DataArray type="Float32" Name="S" NumberOfComponents="10" ComponentName0="xx" ComponentName1="yy" ComponentName2="zz" ComponentName3="xy" ComponentName4="yz" ComponentName5="zx" ComponentName6="Mises" ComponentName7="Min Principal" ComponentName8="Mid Principal" ComponentName9="Max Principal" format="ascii">
					-1.20770000E+00	-1.20770000E+00	-2.81786000E+00	 7.39055000E-07	 1.72987000E-01	 1.72526000E-01	 1.66483765E+00	-2.85411436E+00	-1.20770074E+00	-1.17144490E+00
					-1.20770000E+00	-1.20770000E+00	-2.81786000E+00	-7.35116000E-07	-1.72065000E-01	 1.72526000E-01	 1.66455098E+00	-2.85392527E+00	-1.20770074E+00	-1.17163400E+00
					 5.17635000E-01	 5.17635000E-01	-1.78267000E+00	-7.35620000E-07	-1.72067000E-01	 1.72528000E-01	 2.33870092E+00	-1.80819761E+00	 5.17634264E-01	 5.43163344E-01
					 5.17635000E-01	 5.17635000E-01	-1.78267000E+00	 7.38561000E-07	 1.72989000E-01	 1.72528000E-01	 2.33890496E+00	-1.80833290E+00	 5.17634261E-01	 5.43298640E-01
					-1.20770000E+00	-1.20770000E+00	-2.81786000E+00	-7.39055000E-07	 1.72987000E-01	-1.72526000E-01	 1.66483765E+00	-2.85411436E+00	-1.20770074E+00	-1.17144490E+00
					-1.20770000E+00	-1.20770000E+00	-2.81786000E+00	 7.35116000E-07	-1.72065000E-01	-1.72526000E-01	 1.66455098E+00	-2.85392527E+00	-1.20770074E+00	-1.17163400E+00
					 5.17635000E-01	 5.17635000E-01	-1.78267000E+00	 7.35624000E-07	-1.72067000E-01	-1.72528000E-01	 2.33870092E+00	-1.80819761E+00	 5.17634264E-01	 5.43163344E-01
					 5.17635000E-01	 5.17635000E-01	-1.78267000E+00	-7.38556000E-07	 1.72989000E-01	-1.72528000E-01	 2.33890496E+00	-1.80833290E+00	 5.17634261E-01	 5.43298640E-01
					-2.65195000E-02	-2.12249000E-02	-5.75392000E+01	 0.00000000E+00	 2.21147000E-02	 0.00000000E+00	 5.75153407E+01	-5.75392085E+01	-2.65195000E-02	-2.12163973E-02
					-8.08873000E-03	 3.50935000E-03	-5.75025000E+01	 3.15175000E-03	 1.21900000E-02	 5.01315000E-03	 5.75002160E+01	-5.75025030E+01	-8.88981141E-03	 4.31345242E-03
					-2.24092000E-03	-3.01611000E-02	-5.75109000E+01	-2.35606000E-02	-8.01230000E-03	-2.27428000E-03	 5.74947204E+01	-5.75109012E+01	-4.35857439E-02	 1.11849309E-02
					 1.93969000E-02	 3.85981000E-02	-5.75075000E+01	 0.00000000E+00	 9.19977000E-03	 0.00000000E+00	 5.75365021E+01	-5.75075015E+01	 1.93969000E-02	 3.85995707E-02
					-8.08873000E-03	 3.50935000E-03	-5.75025000E+01	-3.15175000E-03	 1.21900000E-02	-5.01315000E-03	 5.75002160E+01	-5.75025030E+01	-8.88981141E-03	 4.31345242E-03
					 2.58065000E-02	 4.37081000E-02	-5.74298000E+01	 0.00000000E+00	 4.00020000E-02	 0.00000000E+00	 5.74646012E+01	-5.74298278E+01	 2.58065000E-02	 4.37359417E-02
					-8.41428000E-03	-8.34557000E-02	-5.74782000E+01	 0.00000000E+00	 1.25122000E-02	 0.00000000E+00	 5.74323059E+01	-5.74782027E+01	-8.34529723E-02	-8.41428000E-03
					-2.24092000E-03	-3.01611000E-02	-5.75109000E+01	 2.35606000E-02	-8.01230000E-03	 2.27428000E-03	 5.74947204E+01	-5.75109012E+01	-4.35857439E-02	 1.11849309E-02
				</DataArray>
				<DataArray type="Float32" Name="CONTACT" NumberOfComponents="6" ComponentName0="COPEN" ComponentName1="CSLIP1" ComponentName2="CSLIP2" ComponentName3="CPRESS" ComponentName4="CSHEAR1" ComponentName5="CSHEAR2" format="ascii">
					 0.00000000E+00	 0.00000000E+00	 0.00000000E+00	 0.00000000E+00	 0.00000000E+00	 0.00000000E+00
					 0.00000000E+00	 0.00000000E+00	 0.00000000E+00	 0.00000000E+00	 0.00000000E+00	 0.00000000E+00
					 0.00000000E+00	 0.00000000E+00	 0.00000000E+00	 0.00000000E+00	 0.00000000E+00	 0.00000000E+00
					 0.00000000E+00	 0.00000000E+00	 0.00000000E+00	 0.00000000E+00	 0.00000000E+00	 0.00000000E+00
					 0.00000000E+00	 0.00000000E+00	 0.00000000E+00	 0.00000000E+00	 0.00000000E+00	 0.00000000E+00
					 0.00000000E+00	 0.00000000E+00	 0.00000000E+00	 0.00000000E+00	 0.00000000E+00	 0.00000000E+00
					 0.00000000E+00	 0.00000000E+00	 0.00000000E+00	 0.00000000E+00	 0.00000000E+00	 0.00000000E+00
					 0.00000000E+00	 0.00000000E+00	 0.00000000E+00	 0.00000000E+00	 0.00000000E+00	 0.00000000E+00
					-5.75037000E-06	 0.00000000E+00	 2.03118000E-05	 5.75037000E+01	 0.00000000E+00	 2.03118000E-02
					-5.75037000E-06	 8.78123000E-06	 1.15270000E-05	 5.75037000E+01	 8.78123000E-03	 1.15270000E-02
					 0.00000000E+00	 0.00000000E+00	 0.00000000E+00	 0.00000000E+00	 0.00000000E+00	 0.00000000E+00
					 0.00000000E+00	 0.00000000E+00	 0.00000000E+00	 0.00000000E+00	 0.00000000E+00	 0.00000000E+00
					-5.75037000E-06	-8.78123000E-06	 1.15270000E-05	 5.75037000E+01	-8.78123000E-03	 1.15270000E-02
					-5.75037000E-06	 0.00000000E+00	 2.73316000E-06	 5.75037000E+01	 0.00000000E+00	 2.73316000E-03
					 0.00000000E+00	 0.00000000E+00	 0.00000000E+00	 0.00000000E+00	 0.00000000E+00	 0.00000000E+00
					 0.00000000E+00	 0.00000000E+00	 0.00000000E+00	 0.00000000E+00	 0.00000000E+00	 0.00000000E+00
				</DataArray>
			</PointData>
		</Piece>
	</UnstructuredGrid>
</VTKFile>