<?xml version="1.0"?>
<VTKFile type="UnstructuredGrid" version="0.1" byte_order="LittleEndian">
	<UnstructuredGrid>
		<Piece NumberOfPoints="16" NumberOfCells="6">
			<Points>
				<DataArray type="Float64" NumberOfComponents="3" format="ascii">
					 1.00000000E+00	 1.00000000E+00	-1.49012000E-08
					 1.00000000E+00	 0.00000000E+00	-1.49012000E-08
					 1.00000000E+00	 0.00000000E+00	 1.00000000E+00
					 1.00000000E+00	 1.00000000E+00	 1.00000000E+00
					-7.45058000E-09	 1.00000000E+00	-1.49012000E-08
					-7.45058000E-09	 0.00000000E+00	-1.49012000E-08
					-7.45058000E-09	 0.00000000E+00	 1.00000000E+00
					-7.45058000E-09	 1.00000000E+00	 1.00000000E+00
					 1.00000000E+00	 1.00000000E+00	 1.00000000E+00
					 1.00000000E+00	 0.00000000E+00	 1.00000000E+00
					 1.00000000E+00	 0.00000000E+00	 1.20000000E+00
					 1.00000000E+00	 1.00000000E+00	 1.20000000E+00
					-7.45058000E-09	 1.00000000E+00	 1.00000000E+00
					-7.45058000E-09	 0.00000000E+00	 1.00000000E+00
					-7.45058000E-09	 0.00000000E+00	 1.20000000E+00
					-7.45058000E-09	 1.00000000E+00	 1.20000000E+00

				</DataArray>
			</Points>
			<Cells>
				<DataArray type="Int32" Name="connectivity" format="ascii">
					0 1 2 3 4 5 6 7 8 9 10 11 12 13 14 15 3 8 2 9 6 13 7 12 
				</DataArray>
				<DataArray type="Int32" Name="offsets" format="ascii">
					8 16 18 20 22 24 
				</DataArray>
				<DataArray type="UInt8" Name="types" format="ascii">
					12 12 3 3 3 3 
				</DataArray>
			</Cells>
			<PointData>
				<DataArray type="Float32" Name="U" NumberOfComponents="3" ComponentName0="D1" ComponentName1="D2" ComponentName2="D3" format="ascii">
					 0.00000000E+00	 0.00000000E+00	 0.00000000E+00
					 0.00000000E+00	 0.00000000E+00	 0.00000000E+00
					 0.00000000E+00	 0.00000000E+00	-4.76194000E-06
					 0.00000000E+00	 0.00000000E+00	-4.76194000E-06
					 0.00000000E+00	 0.00000000E+00	 0.00000000E+00
					 0.00000000E+00	 0.00000000E+00	 0.00000000E+00
					 0.00000000E+00	 0.00000000E+00	-4.76194000E-06
					 0.00000000E+00	 0.00000000E+00	-4.76194000E-06
					 0.00000000E+00	 0.00000000E+00	-8.06107000E-06
					 0.00000000E+00	 0.00000000E+00	-8.06107000E-06
					 0.00000000E+00	 0.00000000E+00	-9.01346000E-06
					 0.00000000E+00	 0.00000000E+00	-9.01346000E-06
					 0.00000000E+00	 0.00000000E+00	-8.06107000E-06
					 0.00000000E+00	 0.00000000E+00	-8.06107000E-06
					 0.00000000E+00	 0.00000000E+00	-9.01346000E-06
					 0.00000000E+00	 0.00000000E+00	-9.01346000E-06
				</DataArray>
				<DataArray type="Float32" Name="RF" NumberOfComponents="3" ComponentName0="F1" ComponentName1="F2" ComponentName2="F3" format="ascii">
					 0.00000000E+00	 0.00000000E+00	 2.50000000E-01
					 0.00000000E+00	 0.00000000E+00	 2.50000000E-01
					 0.00000000E+00	 0.00000000E+00	 2.78275000E-06
					 0.00000000E+00	 0.00000000E+00	 2.78275000E-06
					 0.00000000E+00	 0.00000000E+00	 2.50000000E-01
					 0.00000000E+00	 0.00000000E+00	 2.50000000E-01
					 0.00000000E+00	 0.00000000E+00	 2.78275000E-06
					 0.00000000E+00	 0.00000000E+00	 2.78275000E-06
					 0.00000000E+00	 0.00000000E+00	-2.78275000E-06
					 0.00000000E+00	 0.00000000E+00	-2.78275000E-06
					 0.00000000E+00	 0.00000000E+00	-2.50000000E-01
					 0.00000000E+00	 0.00000000E+00	-2.50000000E-01
					 0.00000000E+00	 0.00000000E+00	-2.78275000E-06
					 0.00000000E+00	 0.00000000E+00	-2.78275000E-06
					 0.00000000E+00	 0.00000000E+00	-2.50000000E-01
					 0.00000000E+00	 0.00000000E+00	-2.50000000E-01
				</DataArray>
			</PointData>
		</Piece>
	</UnstructuredGrid>
</VTKFile>