    1C
    1UModel: beam     Date: 10-Mar-1998                                 
    1UUSER                                                              
    1UDATE              01.august.2019                                  
    1UTIME              09:38:10                                        
    1UHOST                                                              
    1UPGM               CalculiX                                        
    1UVERSION           Version 2.15                             
    1UCOMPILETIME       Fri 15 Mar 11:57:46 CET 2019                    
    1UDIR                                                               
    1UDBN                                                               
    1UMAT    1UNDO_NLGEOM_LIN_ISO_EL_1                                  
    2C                           261                                     1
 -1         1 0.00000E+00 0.00000E+00 0.00000E+00
 -1         2 1.00000E+00 0.00000E+00 0.00000E+00
 -1         3 1.00000E+00 1.00000E+00 0.00000E+00
 -1         4 0.00000E+00 1.00000E+00 0.00000E+00
 -1         5 0.00000E+00 0.00000E+00 8.00000E+00
 -1         6 1.00000E+00 0.00000E+00 8.00000E+00
 -1         7 1.00000E+00 1.00000E+00 8.00000E+00
 -1         8 0.00000E+00 1.00000E+00 8.00000E+00
 -1         9 2.50000E-01 0.00000E+00 0.00000E+00
 -1        10 5.00000E-01 0.00000E+00 0.00000E+00
 -1        11 7.50000E-01 0.00000E+00 0.00000E+00
 -1        12 1.00000E+00 2.50000E-01 0.00000E+00
 -1        13 1.00000E+00 5.00000E-01 0.00000E+00
 -1        14 1.00000E+00 7.50000E-01 0.00000E+00
 -1        15 7.50000E-01 1.00000E+00 0.00000E+00
 -1        16 5.00000E-01 1.00000E+00 0.00000E+00
 -1        17 2.50000E-01 1.00000E+00 0.00000E+00
 -1        18 0.00000E+00 7.50000E-01 0.00000E+00
 -1        19 0.00000E+00 5.00000E-01 0.00000E+00
 -1        20 0.00000E+00 2.50000E-01 0.00000E+00
 -1        21 2.50000E-01 0.00000E+00 8.00000E+00
 -1        22 5.00000E-01 0.00000E+00 8.00000E+00
 -1        23 7.50000E-01 0.00000E+00 8.00000E+00
 -1        24 1.00000E+00 2.50000E-01 8.00000E+00
 -1        25 1.00000E+00 5.00000E-01 8.00000E+00
 -1        26 1.00000E+00 7.50000E-01 8.00000E+00
 -1        27 7.50000E-01 1.00000E+00 8.00000E+00
 -1        28 5.00000E-01 1.00000E+00 8.00000E+00
 -1        29 2.50000E-01 1.00000E+00 8.00000E+00
 -1        30 0.00000E+00 7.50000E-01 8.00000E+00
 -1        31 0.00000E+00 5.00000E-01 8.00000E+00
 -1        32 0.00000E+00 2.50000E-01 8.00000E+00
 -1        33 1.00000E+00 0.00000E+00 5.00000E-01
 -1        34 1.00000E+00 0.00000E+00 1.00000E+00
 -1        35 1.00000E+00 0.00000E+00 1.50000E+00
 -1        36 1.00000E+00 0.00000E+00 2.00000E+00
 -1        37 1.00000E+00 0.00000E+00 2.50000E+00
 -1        38 1.00000E+00 0.00000E+00 3.00000E+00
 -1        39 1.00000E+00 0.00000E+00 3.50000E+00
 -1        40 1.00000E+00 0.00000E+00 4.00000E+00
 -1        41 1.00000E+00 0.00000E+00 4.50000E+00
 -1        42 1.00000E+00 0.00000E+00 5.00000E+00
 -1        43 1.00000E+00 0.00000E+00 5.50000E+00
 -1        44 1.00000E+00 0.00000E+00 6.00000E+00
 -1        45 1.00000E+00 0.00000E+00 6.50000E+00
 -1        46 1.00000E+00 0.00000E+00 7.00000E+00
 -1        47 1.00000E+00 0.00000E+00 7.50000E+00
 -1        48 0.00000E+00 0.00000E+00 7.50000E+00
 -1        49 0.00000E+00 0.00000E+00 7.00000E+00
 -1        50 0.00000E+00 0.00000E+00 6.50000E+00
 -1        51 0.00000E+00 0.00000E+00 6.00000E+00
 -1        52 0.00000E+00 0.00000E+00 5.50000E+00
 -1        53 0.00000E+00 0.00000E+00 5.00000E+00
 -1        54 0.00000E+00 0.00000E+00 4.50000E+00
 -1        55 0.00000E+00 0.00000E+00 4.00000E+00
 -1        56 0.00000E+00 0.00000E+00 3.50000E+00
 -1        57 0.00000E+00 0.00000E+00 3.00000E+00
 -1        58 0.00000E+00 0.00000E+00 2.50000E+00
 -1        59 0.00000E+00 0.00000E+00 2.00000E+00
 -1        60 0.00000E+00 0.00000E+00 1.50000E+00
 -1        61 0.00000E+00 0.00000E+00 1.00000E+00
 -1        62 0.00000E+00 0.00000E+00 5.00000E-01
 -1        63 1.00000E+00 1.00000E+00 5.00000E-01
 -1        64 1.00000E+00 1.00000E+00 1.00000E+00
 -1        65 1.00000E+00 1.00000E+00 1.50000E+00
 -1        66 1.00000E+00 1.00000E+00 2.00000E+00
 -1        67 1.00000E+00 1.00000E+00 2.50000E+00
 -1        68 1.00000E+00 1.00000E+00 3.00000E+00
 -1        69 1.00000E+00 1.00000E+00 3.50000E+00
 -1        70 1.00000E+00 1.00000E+00 4.00000E+00
 -1        71 1.00000E+00 1.00000E+00 4.50000E+00
 -1        72 1.00000E+00 1.00000E+00 5.00000E+00
 -1        73 1.00000E+00 1.00000E+00 5.50000E+00
 -1        74 1.00000E+00 1.00000E+00 6.00000E+00
 -1        75 1.00000E+00 1.00000E+00 6.50000E+00
 -1        76 1.00000E+00 1.00000E+00 7.00000E+00
 -1        77 1.00000E+00 1.00000E+00 7.50000E+00
 -1        78 0.00000E+00 1.00000E+00 5.00000E-01
 -1        79 0.00000E+00 1.00000E+00 1.00000E+00
 -1        80 0.00000E+00 1.00000E+00 1.50000E+00
 -1        81 0.00000E+00 1.00000E+00 2.00000E+00
 -1        82 0.00000E+00 1.00000E+00 2.50000E+00
 -1        83 0.00000E+00 1.00000E+00 3.00000E+00
 -1        84 0.00000E+00 1.00000E+00 3.50000E+00
 -1        85 0.00000E+00 1.00000E+00 4.00000E+00
 -1        86 0.00000E+00 1.00000E+00 4.50000E+00
 -1        87 0.00000E+00 1.00000E+00 5.00000E+00
 -1        88 0.00000E+00 1.00000E+00 5.50000E+00
 -1        89 0.00000E+00 1.00000E+00 6.00000E+00
 -1        90 0.00000E+00 1.00000E+00 6.50000E+00
 -1        91 0.00000E+00 1.00000E+00 7.00000E+00
 -1        92 0.00000E+00 1.00000E+00 7.50000E+00
 -1        93 5.00000E-01 2.50000E-01 0.00000E+00
 -1        94 2.50000E-01 5.00000E-01 0.00000E+00
 -1        95 5.00000E-01 5.00000E-01 0.00000E+00
 -1        96 7.50000E-01 5.00000E-01 0.00000E+00
 -1        97 5.00000E-01 7.50000E-01 0.00000E+00
 -1        98 5.00000E-01 2.50000E-01 8.00000E+00
 -1        99 2.50000E-01 5.00000E-01 8.00000E+00
 -1       100 5.00000E-01 5.00000E-01 8.00000E+00
 -1       101 7.50000E-01 5.00000E-01 8.00000E+00
 -1       102 5.00000E-01 7.50000E-01 8.00000E+00
 -1       103 5.00000E-01 0.00000E+00 5.00000E-01
 -1       104 2.50000E-01 0.00000E+00 1.00000E+00
 -1       105 5.00000E-01 0.00000E+00 1.00000E+00
 -1       106 7.50000E-01 0.00000E+00 1.00000E+00
 -1       107 5.00000E-01 0.00000E+00 1.50000E+00
 -1       108 2.50000E-01 0.00000E+00 2.00000E+00
 -1       109 5.00000E-01 0.00000E+00 2.00000E+00
 -1       110 7.50000E-01 0.00000E+00 2.00000E+00
 -1       111 5.00000E-01 0.00000E+00 2.50000E+00
 -1       112 2.50000E-01 0.00000E+00 3.00000E+00
 -1       113 5.00000E-01 0.00000E+00 3.00000E+00
 -1       114 7.50000E-01 0.00000E+00 3.00000E+00
 -1       115 5.00000E-01 0.00000E+00 3.50000E+00
 -1       116 2.50000E-01 0.00000E+00 4.00000E+00
 -1       117 5.00000E-01 0.00000E+00 4.00000E+00
 -1       118 7.50000E-01 0.00000E+00 4.00000E+00
 -1       119 5.00000E-01 0.00000E+00 4.50000E+00
 -1       120 2.50000E-01 0.00000E+00 5.00000E+00
 -1       121 5.00000E-01 0.00000E+00 5.00000E+00
 -1       122 7.50000E-01 0.00000E+00 5.00000E+00
 -1       123 5.00000E-01 0.00000E+00 5.50000E+00
 -1       124 2.50000E-01 0.00000E+00 6.00000E+00
 -1       125 5.00000E-01 0.00000E+00 6.00000E+00
 -1       126 7.50000E-01 0.00000E+00 6.00000E+00
 -1       127 5.00000E-01 0.00000E+00 6.50000E+00
 -1       128 2.50000E-01 0.00000E+00 7.00000E+00
 -1       129 5.00000E-01 0.00000E+00 7.00000E+00
 -1       130 7.50000E-01 0.00000E+00 7.00000E+00
 -1       131 5.00000E-01 0.00000E+00 7.50000E+00
 -1       132 1.00000E+00 5.00000E-01 5.00000E-01
 -1       133 1.00000E+00 2.50000E-01 1.00000E+00
 -1       134 1.00000E+00 5.00000E-01 1.00000E+00
 -1       135 1.00000E+00 7.50000E-01 1.00000E+00
 -1       136 1.00000E+00 5.00000E-01 1.50000E+00
 -1       137 1.00000E+00 2.50000E-01 2.00000E+00
 -1       138 1.00000E+00 5.00000E-01 2.00000E+00
 -1       139 1.00000E+00 7.50000E-01 2.00000E+00
 -1       140 1.00000E+00 5.00000E-01 2.50000E+00
 -1       141 1.00000E+00 2.50000E-01 3.00000E+00
 -1       142 1.00000E+00 5.00000E-01 3.00000E+00
 -1       143 1.00000E+00 7.50000E-01 3.00000E+00
 -1       144 1.00000E+00 5.00000E-01 3.50000E+00
 -1       145 1.00000E+00 2.50000E-01 4.00000E+00
 -1       146 1.00000E+00 5.00000E-01 4.00000E+00
 -1       147 1.00000E+00 7.50000E-01 4.00000E+00
 -1       148 1.00000E+00 5.00000E-01 4.50000E+00
 -1       149 1.00000E+00 2.50000E-01 5.00000E+00
 -1       150 1.00000E+00 5.00000E-01 5.00000E+00
 -1       151 1.00000E+00 7.50000E-01 5.00000E+00
 -1       152 1.00000E+00 5.00000E-01 5.50000E+00
 -1       153 1.00000E+00 2.50000E-01 6.00000E+00
 -1       154 1.00000E+00 5.00000E-01 6.00000E+00
 -1       155 1.00000E+00 7.50000E-01 6.00000E+00
 -1       156 1.00000E+00 5.00000E-01 6.50000E+00
 -1       157 1.00000E+00 2.50000E-01 7.00000E+00
 -1       158 1.00000E+00 5.00000E-01 7.00000E+00
 -1       159 1.00000E+00 7.50000E-01 7.00000E+00
 -1       160 1.00000E+00 5.00000E-01 7.50000E+00
 -1       161 5.00000E-01 1.00000E+00 5.00000E-01
 -1       162 7.50000E-01 1.00000E+00 1.00000E+00
 -1       163 5.00000E-01 1.00000E+00 1.00000E+00
 -1       164 2.50000E-01 1.00000E+00 1.00000E+00
 -1       165 5.00000E-01 1.00000E+00 1.50000E+00
 -1       166 7.50000E-01 1.00000E+00 2.00000E+00
 -1       167 5.00000E-01 1.00000E+00 2.00000E+00
 -1       168 2.50000E-01 1.00000E+00 2.00000E+00
 -1       169 5.00000E-01 1.00000E+00 2.50000E+00
 -1       170 7.50000E-01 1.00000E+00 3.00000E+00
 -1       171 5.00000E-01 1.00000E+00 3.00000E+00
 -1       172 2.50000E-01 1.00000E+00 3.00000E+00
 -1       173 5.00000E-01 1.00000E+00 3.50000E+00
 -1       174 7.50000E-01 1.00000E+00 4.00000E+00
 -1       175 5.00000E-01 1.00000E+00 4.00000E+00
 -1       176 2.50000E-01 1.00000E+00 4.00000E+00
 -1       177 5.00000E-01 1.00000E+00 4.50000E+00
 -1       178 7.50000E-01 1.00000E+00 5.00000E+00
 -1       179 5.00000E-01 1.00000E+00 5.00000E+00
 -1       180 2.50000E-01 1.00000E+00 5.00000E+00
 -1       181 5.00000E-01 1.00000E+00 5.50000E+00
 -1       182 7.50000E-01 1.00000E+00 6.00000E+00
 -1       183 5.00000E-01 1.00000E+00 6.00000E+00
 -1       184 2.50000E-01 1.00000E+00 6.00000E+00
 -1       185 5.00000E-01 1.00000E+00 6.50000E+00
 -1       186 7.50000E-01 1.00000E+00 7.00000E+00
 -1       187 5.00000E-01 1.00000E+00 7.00000E+00
 -1       188 2.50000E-01 1.00000E+00 7.00000E+00
 -1       189 5.00000E-01 1.00000E+00 7.50000E+00
 -1       190 0.00000E+00 5.00000E-01 5.00000E-01
 -1       191 0.00000E+00 7.50000E-01 1.00000E+00
 -1       192 0.00000E+00 5.00000E-01 1.00000E+00
 -1       193 0.00000E+00 2.50000E-01 1.00000E+00
 -1       194 0.00000E+00 5.00000E-01 1.50000E+00
 -1       195 0.00000E+00 7.50000E-01 2.00000E+00
 -1       196 0.00000E+00 5.00000E-01 2.00000E+00
 -1       197 0.00000E+00 2.50000E-01 2.00000E+00
 -1       198 0.00000E+00 5.00000E-01 2.50000E+00
 -1       199 0.00000E+00 7.50000E-01 3.00000E+00
 -1       200 0.00000E+00 5.00000E-01 3.00000E+00
 -1       201 0.00000E+00 2.50000E-01 3.00000E+00
 -1       202 0.00000E+00 5.00000E-01 3.50000E+00
 -1       203 0.00000E+00 7.50000E-01 4.00000E+00
 -1       204 0.00000E+00 5.00000E-01 4.00000E+00
 -1       205 0.00000E+00 2.50000E-01 4.00000E+00
 -1       206 0.00000E+00 5.00000E-01 4.50000E+00
 -1       207 0.00000E+00 7.50000E-01 5.00000E+00
 -1       208 0.00000E+00 5.00000E-01 5.00000E+00
 -1       209 0.00000E+00 2.50000E-01 5.00000E+00
 -1       210 0.00000E+00 5.00000E-01 5.50000E+00
 -1       211 0.00000E+00 7.50000E-01 6.00000E+00
 -1       212 0.00000E+00 5.00000E-01 6.00000E+00
 -1       213 0.00000E+00 2.50000E-01 6.00000E+00
 -1       214 0.00000E+00 5.00000E-01 6.50000E+00
 -1       215 0.00000E+00 7.50000E-01 7.00000E+00
 -1       216 0.00000E+00 5.00000E-01 7.00000E+00
 -1       217 0.00000E+00 2.50000E-01 7.00000E+00
 -1       218 0.00000E+00 5.00000E-01 7.50000E+00
 -1       219 5.00000E-01 5.00000E-01 5.00000E-01
 -1       220 5.00000E-01 2.50000E-01 1.00000E+00
 -1       221 2.50000E-01 5.00000E-01 1.00000E+00
 -1       222 5.00000E-01 5.00000E-01 1.00000E+00
 -1       223 7.50000E-01 5.00000E-01 1.00000E+00
 -1       224 5.00000E-01 7.50000E-01 1.00000E+00
 -1       225 5.00000E-01 5.00000E-01 1.50000E+00
 -1       226 5.00000E-01 2.50000E-01 2.00000E+00
 -1       227 2.50000E-01 5.00000E-01 2.00000E+00
 -1       228 5.00000E-01 5.00000E-01 2.00000E+00
 -1       229 7.50000E-01 5.00000E-01 2.00000E+00
 -1       230 5.00000E-01 7.50000E-01 2.00000E+00
 -1       231 5.00000E-01 5.00000E-01 2.50000E+00
 -1       232 5.00000E-01 2.50000E-01 3.00000E+00
 -1       233 2.50000E-01 5.00000E-01 3.00000E+00
 -1       234 5.00000E-01 5.00000E-01 3.00000E+00
 -1       235 7.50000E-01 5.00000E-01 3.00000E+00
 -1       236 5.00000E-01 7.50000E-01 3.00000E+00
 -1       237 5.00000E-01 5.00000E-01 3.50000E+00
 -1       238 5.00000E-01 2.50000E-01 4.00000E+00
 -1       239 2.50000E-01 5.00000E-01 4.00000E+00
 -1       240 5.00000E-01 5.00000E-01 4.00000E+00
 -1       241 7.50000E-01 5.00000E-01 4.00000E+00
 -1       242 5.00000E-01 7.50000E-01 4.00000E+00
 -1       243 5.00000E-01 5.00000E-01 4.50000E+00
 -1       244 5.00000E-01 2.50000E-01 5.00000E+00
 -1       245 2.50000E-01 5.00000E-01 5.00000E+00
 -1       246 5.00000E-01 5.00000E-01 5.00000E+00
 -1       247 7.50000E-01 5.00000E-01 5.00000E+00
 -1       248 5.00000E-01 7.50000E-01 5.00000E+00
 -1       249 5.00000E-01 5.00000E-01 5.50000E+00
 -1       250 5.00000E-01 2.50000E-01 6.00000E+00
 -1       251 2.50000E-01 5.00000E-01 6.00000E+00
 -1       252 5.00000E-01 5.00000E-01 6.00000E+00
 -1       253 7.50000E-01 5.00000E-01 6.00000E+00
 -1       254 5.00000E-01 7.50000E-01 6.00000E+00
 -1       255 5.00000E-01 5.00000E-01 6.50000E+00
 -1       256 5.00000E-01 2.50000E-01 7.00000E+00
 -1       257 2.50000E-01 5.00000E-01 7.00000E+00
 -1       258 5.00000E-01 5.00000E-01 7.00000E+00
 -1       259 7.50000E-01 5.00000E-01 7.00000E+00
 -1       260 5.00000E-01 7.50000E-01 7.00000E+00
 -1       261 5.00000E-01 5.00000E-01 7.50000E+00
 -3
    3C                            32                                     1
 -1         1    4    0    1
 -2         1        10        95        19        61       105       222       192         9        93
 -2        94        20        62       103       219       190       104       220       221       193
 -1         2    4    0    1
 -2        10         2        13        95       105        34       134       222        11        12
 -2        96        93       103        33       132       219       106       133       223       220
 -1         3    4    0    1
 -2        19        95        16         4       192       222       163        79        94        97
 -2        17        18       190       219       161        78       221       224       164       191
 -1         4    4    0    1
 -2        95        13         3        16       222       134        64       163        96        14
 -2        15        97       219       132        63       161       223       135       162       224
 -1         5    4    0    1
 -2        61       105       222       192        59       109       228       196       104       220
 -2       221       193        60       107       225       194       108       226       227       197
 -1         6    4    0    1
 -2       105        34       134       222       109        36       138       228       106       133
 -2       223       220       107        35       136       225       110       137       229       226
 -1         7    4    0    1
 -2       192       222       163        79       196       228       167        81       221       224
 -2       164       191       194       225       165        80       227       230       168       195
 -1         8    4    0    1
 -2       222       134        64       163       228       138        66       167       223       135
 -2       162       224       225       136        65       165       229       139       166       230
 -1         9    4    0    1
 -2        59       109       228       196        57       113       234       200       108       226
 -2       227       197        58       111       231       198       112       232       233       201
 -1        10    4    0    1
 -2       109        36       138       228       113        38       142       234       110       137
 -2       229       226       111        37       140       231       114       141       235       232
 -1        11    4    0    1
 -2       196       228       167        81       200       234       171        83       227       230
 -2       168       195       198       231       169        82       233       236       172       199
 -1        12    4    0    1
 -2       228       138        66       167       234       142        68       171       229       139
 -2       166       230       231       140        67       169       235       143       170       236
 -1        13    4    0    1
 -2        57       113       234       200        55       117       240       204       112       232
 -2       233       201        56       115       237       202       116       238       239       205
 -1        14    4    0    1
 -2       113        38       142       234       117        40       146       240       114       141
 -2       235       232       115        39       144       237       118       145       241       238
 -1        15    4    0    1
 -2       200       234       171        83       204       240       175        85       233       236
 -2       172       199       202       237       173        84       239       242       176       203
 -1        16    4    0    1
 -2       234       142        68       171       240       146        70       175       235       143
 -2       170       236       237       144        69       173       241       147       174       242
 -1        17    4    0    1
 -2        55       117       240       204        53       121       246       208       116       238
 -2       239       205        54       119       243       206       120       244       245       209
 -1        18    4    0    1
 -2       117        40       146       240       121        42       150       246       118       145
 -2       241       238       119        41       148       243       122       149       247       244
 -1        19    4    0    1
 -2       204       240       175        85       208       246       179        87       239       242
 -2       176       203       206       243       177        86       245       248       180       207
 -1        20    4    0    1
 -2       240       146        70       175       246       150        72       179       241       147
 -2       174       242       243       148        71       177       247       151       178       248
 -1        21    4    0    1
 -2        53       121       246       208        51       125       252       212       120       244
 -2       245       209        52       123       249       210       124       250       251       213
 -1        22    4    0    1
 -2       121        42       150       246       125        44       154       252       122       149
 -2       247       244       123        43       152       249       126       153       253       250
 -1        23    4    0    1
 -2       208       246       179        87       212       252       183        89       245       248
 -2       180       207       210       249       181        88       251       254       184       211
 -1        24    4    0    1
 -2       246       150        72       179       252       154        74       183       247       151
 -2       178       248       249       152        73       181       253       155       182       254
 -1        25    4    0    1
 -2        51       125       252       212        49       129       258       216       124       250
 -2       251       213        50       127       255       214       128       256       257       217
 -1        26    4    0    1
 -2       125        44       154       252       129        46       158       258       126       153
 -2       253       250       127        45       156       255       130       157       259       256
 -1        27    4    0    1
 -2       212       252       183        89       216       258       187        91       251       254
 -2       184       211       214       255       185        90       257       260       188       215
 -1        28    4    0    1
 -2       252       154        74       183       258       158        76       187       253       155
 -2       182       254       255       156        75       185       259       159       186       260
 -1        29    4    0    1
 -2        49       129       258       216         5        22       100        31       128       256
 -2       257       217        48       131       261       218        21        98        99        32
 -1        30    4    0    1
 -2       129        46       158       258        22         6        25       100       130       157
 -2       259       256       131        47       160       261        23        24       101        98
 -1        31    4    0    1
 -2       216       258       187        91        31       100        28         8       257       260
 -2       188       215       218       261       189        92        99       102        29        30
 -1        32    4    0    1
 -2       258       158        76       187       100        25         7        28       259       159
 -2       186       260       261       160        77       189       101        26        27       102
 -3
    1PSTEP                         1           1           1          
  100CL  101 1.000000000         261                     0    1           1
 -4  TOSTRAIN    6    1
 -5  EXX         1    4    1    1
 -5  EYY         1    4    2    2
 -5  EZZ         1    4    3    3
 -5  EXY         1    4    1    2
 -5  EYZ         1    4    2    3
 -5  EZX         1    4    3    1
 -1         1 2.78316E-13 5.69195E-13-2.16587E-12 3.66116E-13 1.01326E-12-3.11829E-13
 -1         2 2.77765E-13 5.68911E-13-2.16616E-12-3.66139E-13 1.01332E-12 3.11528E-13
 -1         3 2.72554E-13 5.88022E-13-2.21276E-12 3.82541E-13-1.03551E-12 3.11878E-13
 -1         4 2.72907E-13 5.88336E-13-2.21305E-12-3.82813E-13-1.03536E-12-3.12155E-13
 -1         5-5.62747E-13 4.08342E-13 2.24747E-12 1.45153E-13 2.72877E-12 2.66555E-12
 -1         6-5.62822E-13 4.09420E-13 2.24758E-12-1.45107E-13 2.72876E-12-2.66556E-12
 -1         7-4.24616E-13-7.49094E-13 3.47861E-12 5.89057E-13-2.28004E-12-2.41893E-12
 -1         8-4.24418E-13-7.49189E-13 3.47930E-12-5.89140E-13-2.28002E-12 2.41870E-12
 -1         9 5.04231E-14 8.40296E-13-2.21907E-12 3.01429E-13 9.21196E-13-1.19148E-13
 -1        10-1.77335E-13 1.11152E-12-2.27214E-12-5.91244E-17 8.29135E-13 2.37065E-16
 -1        11 5.02824E-14 8.40281E-13-2.21908E-12-3.01500E-13 9.21229E-13 1.19234E-13
 -1        12-2.43428E-13-3.93669E-13 1.52660E-12 3.15565E-14-1.22178E-12-1.67348E-13
 -1        13-7.69234E-13-1.30410E-12 5.22819E-12-1.33944E-14 1.09120E-13-6.44534E-13
 -1        14-2.50647E-13-3.31961E-13 1.51212E-12-3.67501E-14 1.31981E-12-1.65483E-13
 -1        15 4.09320E-14 8.71093E-13-2.27288E-12 3.13328E-13-9.43306E-13 1.19438E-13
 -1        16-1.90718E-13 1.15437E-12-2.33272E-12 1.27468E-16-8.51119E-13 1.66849E-16
 -1        17 4.10802E-14 8.71452E-13-2.27274E-12-3.13336E-13-9.43247E-13-1.19410E-13
 -1        18-2.50534E-13-3.32127E-13 1.51226E-12 3.67340E-14 1.31990E-12 1.65289E-13
 -1        19-7.69039E-13-1.30416E-12 5.22894E-12 1.34045E-14 1.09145E-13 6.44428E-13
 -1        20-2.42893E-13-3.93270E-13 1.52722E-12-3.16780E-14-1.22181E-12 1.67147E-13
 -1        21 5.02367E-13 9.80425E-13-2.63145E-12 2.72408E-13-8.06548E-13-1.17729E-12
 -1        22 1.56709E-12 1.55187E-12-7.51073E-12 1.78153E-17-4.34189E-12 3.45618E-17
 -1        23 5.01936E-13 9.80327E-13-2.63176E-12-2.72367E-13-8.06572E-13 1.17732E-12
 -1        24 9.92403E-13 3.28962E-14-2.48547E-12-3.29928E-13-1.35433E-12 7.75373E-13
 -1        25 2.63632E-12-6.57484E-13-7.36831E-12-1.52076E-13-5.61842E-13 4.07349E-12
 -1        26 1.15020E-12-8.60218E-13-2.01974E-12 3.99827E-13 1.01685E-12 7.55867E-13
 -1        27-4.52193E-13 6.53099E-13-1.54713E-12 2.94893E-13 6.63270E-13 1.30858E-12
 -1        28-4.79877E-13 2.05500E-12-6.57311E-12 4.37507E-17 3.60661E-12 1.36121E-16
 -1        29-4.52201E-13 6.52764E-13-1.54703E-12-2.94891E-13 6.63308E-13-1.30856E-12
 -1        30 1.15044E-12-8.60088E-13-2.01962E-12-3.99980E-13 1.01683E-12-7.55899E-13
 -1        31 2.63619E-12-6.56933E-13-7.36876E-12 1.52040E-13-5.61841E-13-4.07336E-12
 -1        32 9.92168E-13 3.27316E-14-2.48575E-12 3.30027E-13-1.35429E-12-7.75337E-13
 -1        33-1.07657E-13-1.60873E-13 2.37402E-13-1.77537E-13 3.57937E-14-4.22587E-14
 -1        34-5.59282E-13-4.90821E-13 2.03308E-12 1.08494E-13-4.86224E-13-7.58641E-14
 -1        35-4.59426E-13-3.26853E-13 1.34754E-12 4.95730E-14-3.68591E-14 6.19127E-14
 -1        36-3.31873E-13-4.77998E-13 1.27838E-12-4.76999E-14 2.70955E-14-4.82853E-14
 -1        37-3.40318E-13-3.38772E-13 1.14460E-12-2.28404E-15 4.96699E-14 3.57843E-15
 -1        38-3.09341E-13-2.86638E-13 1.01393E-12-6.98167E-15-1.54153E-14 1.45011E-14
 -1        39-2.77801E-13-2.55648E-13 8.88265E-13 1.03489E-14 1.87522E-14-5.63422E-15
 -1        40-2.31441E-13-2.12266E-13 7.75242E-13-1.17327E-14 3.04730E-14-2.31936E-15
 -1        41-1.95810E-13-1.74284E-13 6.33703E-13 3.50002E-16-4.39761E-16 1.96636E-14
 -1        42-1.28983E-13-1.18429E-13 4.96829E-13-5.50671E-14-9.81100E-14 1.25212E-13
 -1        43-1.69642E-13-1.34232E-13 4.03463E-13 6.32622E-14 1.57711E-13-1.33568E-13
 -1        44-1.66995E-13-1.10169E-13 1.89902E-13-8.86344E-14 2.86115E-13-2.38784E-13
 -1        45 1.22740E-13 5.29218E-14 2.51730E-13-1.87708E-14-4.43092E-13 4.38517E-13
 -1        46 1.68977E-13-1.15480E-13-9.02544E-13 1.65938E-13-5.03427E-13 6.20222E-13
 -1        47-2.73553E-13 1.51060E-14 1.88362E-14-1.16248E-13 1.33001E-12-1.12455E-12
 -1        48-2.73797E-13 1.42144E-14 1.84922E-14 1.16289E-13 1.32999E-12 1.12459E-12
 -1        49 1.68780E-13-1.15838E-13-9.02572E-13-1.65735E-13-5.03484E-13-6.20152E-13
 -1        50 1.23680E-13 5.36544E-14 2.51992E-13 1.87502E-14-4.43183E-13-4.38484E-13
 -1        51-1.65614E-13-1.08991E-13 1.90707E-13 8.82481E-14 2.86171E-13 2.38723E-13
 -1        52-1.69768E-13-1.33807E-13 4.03944E-13-6.33743E-14 1.57792E-13 1.33451E-13
 -1        53-1.30363E-13-1.18605E-13 4.95829E-13 5.50850E-14-9.81388E-14-1.25271E-13
 -1        54-1.96572E-13-1.74562E-13 6.33592E-13-4.63700E-16-3.91785E-16-1.95689E-14
 -1        55-2.31482E-13-2.12266E-13 7.75631E-13 1.16493E-14 3.06113E-14 2.36771E-15
 -1        56-2.78433E-13-2.56280E-13 8.87648E-13-1.04247E-14 1.87702E-14 5.54850E-15
 -1        57-3.10321E-13-2.87781E-13 1.01386E-12 6.90641E-15-1.56478E-14-1.44453E-14
 -1        58-3.40788E-13-3.39393E-13 1.14457E-12 2.35242E-15 4.95489E-14-3.53605E-15
 -1        59-3.31771E-13-4.77704E-13 1.27894E-12 4.78137E-14 2.70939E-14 4.81787E-14
 -1        60-4.59708E-13-3.27175E-13 1.34799E-12-4.96187E-14-3.67949E-14-6.20091E-14
 -1        61-5.59996E-13-4.91740E-13 2.03297E-12-1.08440E-13-4.86148E-13 7.60477E-14
 -1        62-1.07597E-13-1.60807E-13 2.37945E-13 1.77651E-13 3.57332E-14 4.23200E-14
 -1        63-1.71116E-13-2.42256E-13 4.53721E-13 1.84938E-13 8.15964E-15-5.16366E-14
 -1        64-6.92352E-13-6.26362E-13 2.48975E-12-1.12284E-13 5.31650E-13-8.87277E-14
 -1        65-6.79186E-13-5.31775E-13 2.06615E-12-5.23182E-14 5.86878E-14 5.58240E-14
 -1        66-6.25624E-13-7.81444E-13 2.26736E-12 5.02038E-14 1.99302E-14-5.70821E-14
 -1        67-7.12429E-13-7.13535E-13 2.38734E-12 2.52956E-15-1.60583E-14-5.83231E-15
 -1        68-7.61218E-13-7.36992E-13 2.51629E-12 7.49168E-15 5.54309E-14 6.93429E-15
 -1        69-8.04620E-13-7.83002E-13 2.64811E-12-1.10714E-14 1.37592E-14-1.33322E-14
 -1        70-8.31889E-13-8.11271E-13 2.78794E-12 1.49923E-14 1.65924E-14-9.51390E-15
 -1        71-8.82694E-13-8.60582E-13 2.90623E-12-4.23377E-15 2.45928E-14 9.31870E-15
 -1        72-9.01253E-13-8.68851E-13 3.01998E-12 5.91859E-14 1.41629E-13 1.16343E-13
 -1        73-9.81962E-13-9.67738E-13 3.17882E-12-6.18531E-14-1.15253E-13-1.36948E-13
 -1        74-1.00882E-12-9.87469E-13 3.17306E-12 1.12660E-13-1.57599E-13-2.31707E-13
 -1        75-9.31264E-13-9.58260E-13 3.52607E-12-1.47610E-14 3.57527E-13 4.04196E-13
 -1        76-1.15510E-12-1.06317E-12 3.07811E-12-1.96335E-13 5.92070E-13 5.45224E-13
 -1        77-8.89015E-13-8.98947E-13 2.79899E-12 3.78483E-13-7.89488E-13-1.03364E-12
 -1        78-1.71670E-13-2.42685E-13 4.53595E-13-1.84939E-13 8.16771E-15 5.17205E-14
 -1        79-6.93946E-13-6.27424E-13 2.48949E-12 1.12596E-13 5.31734E-13 8.89662E-14
 -1        80-6.79556E-13-5.32104E-13 2.06593E-12 5.24248E-14 5.86754E-14-5.59845E-14
 -1        81-6.25054E-13-7.81126E-13 2.26752E-12-5.02655E-14 1.97622E-14 5.69331E-14
 -1        82-7.12636E-13-7.13338E-13 2.38748E-12-2.47240E-15-1.59792E-14 5.92359E-15
 -1        83-7.61647E-13-7.37169E-13 2.51681E-12-7.40444E-15 5.52568E-14-6.76089E-15
 -1        84-8.05009E-13-7.83694E-13 2.64819E-12 1.10091E-14 1.36647E-14 1.33672E-14
 -1        85-8.32596E-13-8.12499E-13 2.78668E-12-1.52775E-14 1.68563E-14 9.29294E-15
 -1        86-8.82476E-13-8.60456E-13 2.90612E-12 3.89255E-15 2.45753E-14-9.38324E-15
 -1        87-9.00707E-13-8.67962E-13 3.02006E-12-5.94190E-14 1.41544E-13-1.16264E-13
 -1        88-9.81921E-13-9.67931E-13 3.17826E-12 6.18135E-14-1.15228E-13 1.36949E-13
 -1        89-1.00872E-12-9.88031E-13 3.17324E-12-1.12723E-13-1.57724E-13 2.31644E-13
 -1        90-9.30794E-13-9.58179E-13 3.52681E-12 1.46443E-14 3.57574E-13-4.04174E-13
 -1        91-1.15474E-12-1.06244E-12 3.07861E-12 1.96447E-13 5.92178E-13-5.45061E-13
 -1        92-8.89102E-13-8.98687E-13 2.79916E-12-3.78397E-13-7.89531E-13 1.03361E-12
 -1        93-4.70691E-13 1.80728E-13 1.46667E-12 1.72199E-17-1.21390E-12 1.11584E-16