<?xml version="1.0"?>
<VTKFile type="UnstructuredGrid" version="0.1" byte_order="LittleEndian">
	<UnstructuredGrid>
		<Piece NumberOfPoints="261" NumberOfCells="32">
			<Points>
				<DataArray type="Float64" NumberOfComponents="3" format="ascii">
					 0.00000000E+00	 0.00000000E+00	 0.00000000E+00
					 1.00000000E+00	 0.00000000E+00	 0.00000000E+00
					 1.00000000E+00	 1.00000000E+00	 0.00000000E+00
					 0.00000000E+00	 1.00000000E+00	 0.00000000E+00
					 0.00000000E+00	 0.00000000E+00	 8.00000000E+00
					 1.00000000E+00	 0.00000000E+00	 8.00000000E+00
					 1.00000000E+00	 1.00000000E+00	 8.00000000E+00
					 0.00000000E+00	 1.00000000E+00	 8.00000000E+00
					 2.50000000E-01	 0.00000000E+00	 0.00000000E+00
					 5.00000000E-01	 0.00000000E+00	 0.00000000E+00
					 7.50000000E-01	 0.00000000E+00	 0.00000000E+00
					 1.00000000E+00	 2.50000000E-01	 0.00000000E+00
					 1.00000000E+00	 5.00000000E-01	 0.00000000E+00
					 1.00000000E+00	 7.50000000E-01	 0.00000000E+00
					 7.50000000E-01	 1.00000000E+00	 0.00000000E+00
					 5.00000000E-01	 1.00000000E+00	 0.00000000E+00
					 2.50000000E-01	 1.00000000E+00	 0.00000000E+00
					 0.00000000E+00	 7.50000000E-01	 0.00000000E+00
					 0.00000000E+00	 5.00000000E-01	 0.00000000E+00
					 0.00000000E+00	 2.50000000E-01	 0.00000000E+00
					 2.50000000E-01	 0.00000000E+00	 8.00000000E+00
					 5.00000000E-01	 0.00000000E+00	 8.00000000E+00
					 7.50000000E-01	 0.00000000E+00	 8.00000000E+00
					 1.00000000E+00	 2.50000000E-01	 8.00000000E+00
					 1.00000000E+00	 5.00000000E-01	 8.00000000E+00
					 1.00000000E+00	 7.50000000E-01	 8.00000000E+00
					 7.50000000E-01	 1.00000000E+00	 8.00000000E+00
					 5.00000000E-01	 1.00000000E+00	 8.00000000E+00
					 2.50000000E-01	 1.00000000E+00	 8.00000000E+00
					 0.00000000E+00	 7.50000000E-01	 8.00000000E+00
					 0.00000000E+00	 5.00000000E-01	 8.00000000E+00
					 0.00000000E+00	 2.50000000E-01	 8.00000000E+00
					 1.00000000E+00	 0.00000000E+00	 5.00000000E-01
					 1.00000000E+00	 0.00000000E+00	 1.00000000E+00
					 1.00000000E+00	 0.00000000E+00	 1.50000000E+00
					 1.00000000E+00	 0.00000000E+00	 2.00000000E+00
					 1.00000000E+00	 0.00000000E+00	 2.50000000E+00
					 1.00000000E+00	 0.00000000E+00	 3.00000000E+00
					 1.00000000E+00	 0.00000000E+00	 3.50000000E+00
					 1.00000000E+00	 0.00000000E+00	 4.00000000E+00
					 1.00000000E+00	 0.00000000E+00	 4.50000000E+00
					 1.00000000E+00	 0.00000000E+00	 5.00000000E+00
					 1.00000000E+00	 0.00000000E+00	 5.50000000E+00
					 1.00000000E+00	 0.00000000E+00	 6.00000000E+00
					 1.00000000E+00	 0.00000000E+00	 6.50000000E+00
					 1.00000000E+00	 0.00000000E+00	 7.00000000E+00
					 1.00000000E+00	 0.00000000E+00	 7.50000000E+00
					 0.00000000E+00	 0.00000000E+00	 7.50000000E+00
					 0.00000000E+00	 0.00000000E+00	 7.00000000E+00
					 0.00000000E+00	 0.00000000E+00	 6.50000000E+00
					 0.00000000E+00	 0.00000000E+00	 6.00000000E+00
					 0.00000000E+00	 0.00000000E+00	 5.50000000E+00
					 0.00000000E+00	 0.00000000E+00	 5.00000000E+00
					 0.00000000E+00	 0.00000000E+00	 4.50000000E+00
					 0.00000000E+00	 0.00000000E+00	 4.00000000E+00
					 0.00000000E+00	 0.00000000E+00	 3.50000000E+00
					 0.00000000E+00	 0.00000000E+00	 3.00000000E+00
					 0.00000000E+00	 0.00000000E+00	 2.50000000E+00
					 0.00000000E+00	 0.00000000E+00	 2.00000000E+00
					 0.00000000E+00	 0.00000000E+00	 1.50000000E+00
					 0.00000000E+00	 0.00000000E+00	 1.00000000E+00
					 0.00000000E+00	 0.00000000E+00	 5.00000000E-01
					 1.00000000E+00	 1.00000000E+00	 5.00000000E-01
					 1.00000000E+00	 1.00000000E+00	 1.00000000E+00
					 1.00000000E+00	 1.00000000E+00	 1.50000000E+00
					 1.00000000E+00	 1.00000000E+00	 2.00000000E+00
					 1.00000000E+00	 1.00000000E+00	 2.50000000E+00
					 1.00000000E+00	 1.00000000E+00	 3.00000000E+00
					 1.00000000E+00	 1.00000000E+00	 3.50000000E+00
					 1.00000000E+00	 1.00000000E+00	 4.00000000E+00
					 1.00000000E+00	 1.00000000E+00	 4.50000000E+00
					 1.00000000E+00	 1.00000000E+00	 5.00000000E+00
					 1.00000000E+00	 1.00000000E+00	 5.50000000E+00
					 1.00000000E+00	 1.00000000E+00	 6.00000000E+00
					 1.00000000E+00	 1.00000000E+00	 6.50000000E+00
					 1.00000000E+00	 1.00000000E+00	 7.00000000E+00
					 1.00000000E+00	 1.00000000E+00	 7.50000000E+00
					 0.00000000E+00	 1.00000000E+00	 5.00000000E-01
					 0.00000000E+00	 1.00000000E+00	 1.00000000E+00
					 0.00000000E+00	 1.00000000E+00	 1.50000000E+00
					 0.00000000E+00	 1.00000000E+00	 2.00000000E+00
					 0.00000000E+00	 1.00000000E+00	 2.50000000E+00
					 0.00000000E+00	 1.00000000E+00	 3.00000000E+00
					 0.00000000E+00	 1.00000000E+00	 3.50000000E+00
					 0.00000000E+00	 1.00000000E+00	 4.00000000E+00
					 0.00000000E+00	 1.00000000E+00	 4.50000000E+00
					 0.00000000E+00	 1.00000000E+00	 5.00000000E+00
					 0.00000000E+00	 1.00000000E+00	 5.50000000E+00
					 0.00000000E+00	 1.00000000E+00	 6.00000000E+00
					 0.00000000E+00	 1.00000000E+00	 6.50000000E+00
					 0.00000000E+00	 1.00000000E+00	 7.00000000E+00
					 0.00000000E+00	 1.00000000E+00	 7.50000000E+00
					 5.00000000E-01	 2.50000000E-01	 0.00000000E+00
					 2.50000000E-01	 5.00000000E-01	 0.00000000E+00
					 5.00000000E-01	 5.00000000E-01	 0.00000000E+00
					 7.50000000E-01	 5.00000000E-01	 0.00000000E+00
					 5.00000000E-01	 7.50000000E-01	 0.00000000E+00
					 5.00000000E-01	 2.50000000E-01	 8.00000000E+00
					 2.50000000E-01	 5.00000000E-01	 8.00000000E+00
					 5.00000000E-01	 5.00000000E-01	 8.00000000E+00
					 7.50000000E-01	 5.00000000E-01	 8.00000000E+00
					 5.00000000E-01	 7.50000000E-01	 8.00000000E+00
					 5.00000000E-01	 0.00000000E+00	 5.00000000E-01
					 2.50000000E-01	 0.00000000E+00	 1.00000000E+00
					 5.00000000E-01	 0.00000000E+00	 1.00000000E+00
					 7.50000000E-01	 0.00000000E+00	 1.00000000E+00
					 5.00000000E-01	 0.00000000E+00	 1.50000000E+00
					 2.50000000E-01	 0.00000000E+00	 2.00000000E+00
					 5.00000000E-01	 0.00000000E+00	 2.00000000E+00
					 7.50000000E-01	 0.00000000E+00	 2.00000000E+00
					 5.00000000E-01	 0.00000000E+00	 2.50000000E+00
					 2.50000000E-01	 0.00000000E+00	 3.00000000E+00
					 5.00000000E-01	 0.00000000E+00	 3.00000000E+00
					 7.50000000E-01	 0.00000000E+00	 3.00000000E+00
					 5.00000000E-01	 0.00000000E+00	 3.50000000E+00
					 2.50000000E-01	 0.00000000E+00	 4.00000000E+00
					 5.00000000E-01	 0.00000000E+00	 4.00000000E+00
					 7.50000000E-01	 0.00000000E+00	 4.00000000E+00
					 5.00000000E-01	 0.00000000E+00	 4.50000000E+00
					 2.50000000E-01	 0.00000000E+00	 5.00000000E+00
					 5.00000000E-01	 0.00000000E+00	 5.00000000E+00
					 7.50000000E-01	 0.00000000E+00	 5.00000000E+00
					 5.00000000E-01	 0.00000000E+00	 5.50000000E+00
					 2.50000000E-01	 0.00000000E+00	 6.00000000E+00
					 5.00000000E-01	 0.00000000E+00	 6.00000000E+00
					 7.50000000E-01	 0.00000000E+00	 6.00000000E+00
					 5.00000000E-01	 0.00000000E+00	 6.50000000E+00
					 2.50000000E-01	 0.00000000E+00	 7.00000000E+00
					 5.00000000E-01	 0.00000000E+00	 7.00000000E+00
					 7.50000000E-01	 0.00000000E+00	 7.00000000E+00
					 5.00000000E-01	 0.00000000E+00	 7.50000000E+00
					 1.00000000E+00	 5.00000000E-01	 5.00000000E-01
					 1.00000000E+00	 2.50000000E-01	 1.00000000E+00
					 1.00000000E+00	 5.00000000E-01	 1.00000000E+00
					 1.00000000E+00	 7.50000000E-01	 1.00000000E+00
					 1.00000000E+00	 5.00000000E-01	 1.50000000E+00
					 1.00000000E+00	 2.50000000E-01	 2.00000000E+00
					 1.00000000E+00	 5.00000000E-01	 2.00000000E+00
					 1.00000000E+00	 7.50000000E-01	 2.00000000E+00
					 1.00000000E+00	 5.00000000E-01	 2.50000000E+00
					 1.00000000E+00	 2.50000000E-01	 3.00000000E+00
					 1.00000000E+00	 5.00000000E-01	 3.00000000E+00
					 1.00000000E+00	 7.50000000E-01	 3.00000000E+00
					 1.00000000E+00	 5.00000000E-01	 3.50000000E+00
					 1.00000000E+00	 2.50000000E-01	 4.00000000E+00
					 1.00000000E+00	 5.00000000E-01	 4.00000000E+00
					 1.00000000E+00	 7.50000000E-01	 4.00000000E+00
					 1.00000000E+00	 5.00000000E-01	 4.50000000E+00
					 1.00000000E+00	 2.50000000E-01	 5.00000000E+00
					 1.00000000E+00	 5.00000000E-01	 5.00000000E+00
					 1.00000000E+00	 7.50000000E-01	 5.00000000E+00
					 1.00000000E+00	 5.00000000E-01	 5.50000000E+00
					 1.00000000E+00	 2.50000000E-01	 6.00000000E+00
					 1.00000000E+00	 5.00000000E-01	 6.00000000E+00
					 1.00000000E+00	 7.50000000E-01	 6.00000000E+00
					 1.00000000E+00	 5.00000000E-01	 6.50000000E+00
					 1.00000000E+00	 2.50000000E-01	 7.00000000E+00
					 1.00000000E+00	 5.00000000E-01	 7.00000000E+00
					 1.00000000E+00	 7.50000000E-01	 7.00000000E+00
					 1.00000000E+00	 5.00000000E-01	 7.50000000E+00
					 5.00000000E-01	 1.00000000E+00	 5.00000000E-01
					 7.50000000E-01	 1.00000000E+00	 1.00000000E+00
					 5.00000000E-01	 1.00000000E+00	 1.00000000E+00
					 2.50000000E-01	 1.00000000E+00	 1.00000000E+00
					 5.00000000E-01	 1.00000000E+00	 1.50000000E+00
					 7.50000000E-01	 1.00000000E+00	 2.00000000E+00
					 5.00000000E-01	 1.00000000E+00	 2.00000000E+00
					 2.50000000E-01	 1.00000000E+00	 2.00000000E+00
					 5.00000000E-01	 1.00000000E+00	 2.50000000E+00
					 7.50000000E-01	 1.00000000E+00	 3.00000000E+00
					 5.00000000E-01	 1.00000000E+00	 3.00000000E+00
					 2.50000000E-01	 1.00000000E+00	 3.00000000E+00
					 5.00000000E-01	 1.00000000E+00	 3.50000000E+00
					 7.50000000E-01	 1.00000000E+00	 4.00000000E+00
					 5.00000000E-01	 1.00000000E+00	 4.00000000E+00
					 2.50000000E-01	 1.00000000E+00	 4.00000000E+00
					 5.00000000E-01	 1.00000000E+00	 4.50000000E+00
					 7.50000000E-01	 1.00000000E+00	 5.00000000E+00
					 5.00000000E-01	 1.00000000E+00	 5.00000000E+00
					 2.50000000E-01	 1.00000000E+00	 5.00000000E+00
					 5.00000000E-01	 1.00000000E+00	 5.50000000E+00
					 7.50000000E-01	 1.00000000E+00	 6.00000000E+00
					 5.00000000E-01	 1.00000000E+00	 6.00000000E+00
					 2.50000000E-01	 1.00000000E+00	 6.00000000E+00
					 5.00000000E-01	 1.00000000E+00	 6.50000000E+00
					 7.50000000E-01	 1.00000000E+00	 7.00000000E+00
					 5.00000000E-01	 1.00000000E+00	 7.00000000E+00
					 2.50000000E-01	 1.00000000E+00	 7.00000000E+00
					 5.00000000E-01	 1.00000000E+00	 7.50000000E+00
					 0.00000000E+00	 5.00000000E-01	 5.00000000E-01
					 0.00000000E+00	 7.50000000E-01	 1.00000000E+00
					 0.00000000E+00	 5.00000000E-01	 1.00000000E+00
					 0.00000000E+00	 2.50000000E-01	 1.00000000E+00
					 0.00000000E+00	 5.00000000E-01	 1.50000000E+00
					 0.00000000E+00	 7.50000000E-01	 2.00000000E+00
					 0.00000000E+00	 5.00000000E-01	 2.00000000E+00
					 0.00000000E+00	 2.50000000E-01	 2.00000000E+00
					 0.00000000E+00	 5.00000000E-01	 2.50000000E+00
					 0.00000000E+00	 7.50000000E-01	 3.00000000E+00
					 0.00000000E+00	 5.00000000E-01	 3.00000000E+00
					 0.00000000E+00	 2.50000000E-01	 3.00000000E+00
					 0.00000000E+00	 5.00000000E-01	 3.50000000E+00
					 0.00000000E+00	 7.50000000E-01	 4.00000000E+00
					 0.00000000E+00	 5.00000000E-01	 4.00000000E+00
					 0.00000000E+00	 2.50000000E-01	 4.00000000E+00
					 0.00000000E+00	 5.00000000E-01	 4.50000000E+00
					 0.00000000E+00	 7.50000000E-01	 5.00000000E+00
					 0.00000000E+00	 5.00000000E-01	 5.00000000E+00
					 0.00000000E+00	 2.50000000E-01	 5.00000000E+00
					 0.00000000E+00	 5.00000000E-01	 5.50000000E+00
					 0.00000000E+00	 7.50000000E-01	 6.00000000E+00
					 0.00000000E+00	 5.00000000E-01	 6.00000000E+00
					 0.00000000E+00	 2.50000000E-01	 6.00000000E+00
					 0.00000000E+00	 5.00000000E-01	 6.50000000E+00
					 0.00000000E+00	 7.50000000E-01	 7.00000000E+00
					 0.00000000E+00	 5.00000000E-01	 7.00000000E+00
					 0.00000000E+00	 2.50000000E-01	 7.00000000E+00
					 0.00000000E+00	 5.00000000E-01	 7.50000000E+00
					 5.00000000E-01	 5.00000000E-01	 5.00000000E-01
					 5.00000000E-01	 2.50000000E-01	 1.00000000E+00
					 2.50000000E-01	 5.00000000E-01	 1.00000000E+00
					 5.00000000E-01	 5.00000000E-01	 1.00000000E+00
					 7.50000000E-01	 5.00000000E-01	 1.00000000E+00
					 5.00000000E-01	 7.50000000E-01	 1.00000000E+00
					 5.00000000E-01	 5.00000000E-01	 1.50000000E+00
					 5.00000000E-01	 2.50000000E-01	 2.00000000E+00
					 2.50000000E-01	 5.00000000E-01	 2.00000000E+00
					 5.00000000E-01	 5.00000000E-01	 2.00000000E+00
					 7.50000000E-01	 5.00000000E-01	 2.00000000E+00
					 5.00000000E-01	 7.50000000E-01	 2.00000000E+00
					 5.00000000E-01	 5.00000000E-01	 2.50000000E+00
					 5.00000000E-01	 2.50000000E-01	 3.00000000E+00
					 2.50000000E-01	 5.00000000E-01	 3.00000000E+00
					 5.00000000E-01	 5.00000000E-01	 3.00000000E+00
					 7.50000000E-01	 5.00000000E-01	 3.00000000E+00
					 5.00000000E-01	 7.50000000E-01	 3.00000000E+00
					 5.00000000E-01	 5.00000000E-01	 3.50000000E+00
					 5.00000000E-01	 2.50000000E-01	 4.00000000E+00
					 2.50000000E-01	 5.00000000E-01	 4.00000000E+00
					 5.00000000E-01	 5.00000000E-01	 4.00000000E+00
					 7.50000000E-01	 5.00000000E-01	 4.00000000E+00
					 5.00000000E-01	 7.50000000E-01	 4.00000000E+00
					 5.00000000E-01	 5.00000000E-01	 4.50000000E+00
					 5.00000000E-01	 2.50000000E-01	 5.00000000E+00
					 2.50000000E-01	 5.00000000E-01	 5.00000000E+00
					 5.00000000E-01	 5.00000000E-01	 5.00000000E+00
					 7.50000000E-01	 5.00000000E-01	 5.00000000E+00
					 5.00000000E-01	 7.50000000E-01	 5.00000000E+00
					 5.00000000E-01	 5.00000000E-01	 5.50000000E+00
					 5.00000000E-01	 2.50000000E-01	 6.00000000E+00
					 2.50000000E-01	 5.00000000E-01	 6.00000000E+00
					 5.00000000E-01	 5.00000000E-01	 6.00000000E+00
					 7.50000000E-01	 5.00000000E-01	 6.00000000E+00
					 5.00000000E-01	 7.50000000E-01	 6.00000000E+00
					 5.00000000E-01	 5.00000000E-01	 6.50000000E+00
					 5.00000000E-01	 2.50000000E-01	 7.00000000E+00
					 2.50000000E-01	 5.00000000E-01	 7.00000000E+00
					 5.00000000E-01	 5.00000000E-01	 7.00000000E+00
					 7.50000000E-01	 5.00000000E-01	 7.00000000E+00
					 5.00000000E-01	 7.50000000E-01	 7.00000000E+00
					 5.00000000E-01	 5.00000000E-01	 7.50000000E+00

				</DataArray>
			</Points>
			<Cells>
				<DataArray type="Int32" Name="connectivity" format="ascii">
					0 9 94 18 60 104 221 191 8 92 93 19 103 219 220 192 61 102 218 189 9 1 12 94 104 33 133 221 10 11 95 92 105 132 222 219 102 32 131 218 18 94 15 3 191 221 162 78 93 96 16 17 220 223 163 190 189 218 160 77 94 12 2 15 221 133 63 162 95 13 14 96 222 134 161 223 218 131 62 160 60 104 221 191 58 108 227 195 103 219 220 192 107 225 226 196 59 106 224 193 104 33 133 221 108 35 137 227 105 132 222 219 109 136 228 225 106 34 135 224 191 221 162 78 195 227 166 80 220 223 163 190 226 229 167 194 193 224 164 79 221 133 63 162 227 137 65 166 222 134 161 223 228 138 165 229 224 135 64 164 58 108 227 195 56 112 233 199 107 225 226 196 111 231 232 200 57 110 230 197 108 35 137 227 112 37 141 233 109 136 228 225 113 140 234 231 110 36 139 230 195 227 166 80 199 233 170 82 226 229 167 194 232 235 171 198 197 230 168 81 227 137 65 166 233 141 67 170 228 138 165 229 234 142 169 235 230 139 66 168 56 112 233 199 54 116 239 203 111 231 232 200 115 237 238 204 55 114 236 201 112 37 141 233 116 39 145 239 113 140 234 231 117 144 240 237 114 38 143 236 199 233 170 82 203 239 174 84 232 235 171 198 238 241 175 202 201 236 172 83 233 141 67 170 239 145 69 174 234 142 169 235 240 146 173 241 236 143 68 172 54 116 239 203 52 120 245 207 115 237 238 204 119 243 244 208 53 118 242 205 116 39 145 239 120 41 149 245 117 144 240 237 121 148 246 243 118 40 147 242 203 239 174 84 207 245 178 86 238 241 175 202 244 247 179 206 205 242 176 85 239 145 69 174 245 149 71 178 240 146 173 241 246 150 177 247 242 147 70 176 52 120 245 207 50 124 251 211 119 243 244 208 123 249 250 212 51 122 248 209 120 41 149 245 124 43 153 251 121 148 246 243 125 152 252 249 122 42 151 248 207 245 178 86 211 251 182 88 244 247 179 206 250 253 183 210 209 248 180 87 245 149 71 178 251 153 73 182 246 150 177 247 252 154 181 253 248 151 72 180 50 124 251 211 48 128 257 215 123 249 250 212 127 255 256 216 49 126 254 213 124 43 153 251 128 45 157 257 125 152 252 249 129 156 258 255 126 44 155 254 211 251 182 88 215 257 186 90 250 253 183 210 256 259 187 214 213 254 184 89 251 153 73 182 257 157 75 186 252 154 181 253 258 158 185 259 254 155 74 184 48 128 257 215 4 21 99 30 127 255 256 216 20 97 98 31 47 130 260 217 128 45 157 257 21 5 24 99 129 156 258 255 22 23 100 97 130 46 159 260 215 257 186 90 30 99 27 7 256 259 187 214 98 101 28 29 217 260 188 91 257 157 75 186 99 24 6 27 258 158 185 259 100 25 26 101 260 159 76 188 
				</DataArray>
				<DataArray type="Int32" Name="offsets" format="ascii">
					20 40 60 80 100 120 140 160 180 200 220 240 260 280 300 320 340 360 380 400 420 440 460 480 500 520 540 560 580 600 620 640 
				</DataArray>
				<DataArray type="UInt8" Name="types" format="ascii">
					25 25 25 25 25 25 25 25 25 25 25 25 25 25 25 25 25 25 25 25 25 25 25 25 25 25 25 25 25 25 25 25 
				</DataArray>
			</Cells>
			<PointData>
				<DataArray type="Float32" Name="E" NumberOfComponents="10" ComponentName0="xx" ComponentName1="yy" ComponentName2="zz" ComponentName3="xy" ComponentName4="yz" ComponentName5="zx" ComponentName6="Mises" ComponentName7="Min Principal" ComponentName8="Mid Principal" ComponentName9="Max Principal" format="ascii">
					-1.25441000E-06	-2.72692000E-06	 1.01834000E-05	-1.74965000E-06	-4.78287000E-06	 1.46257000E-06	 1.01994067E-05	-4.74872824E-06	-1.09549598E-06	 1.20462942E-05
					-1.25441000E-06	-2.72692000E-06	 1.01834000E-05	 1.74965000E-06	-4.78287000E-06	-1.46257000E-06	 1.01994067E-05	-4.74872824E-06	-1.09549598E-06	 1.20462942E-05
					-1.25441000E-06	-2.72692000E-06	 1.01834000E-05	-1.74965000E-06	 4.78287000E-06	-1.46257000E-06	 1.01994067E-05	-4.74872824E-06	-1.09549598E-06	 1.20462942E-05
					-1.25441000E-06	-2.72692000E-06	 1.01834000E-05	 1.74965000E-06	 4.78287000E-06	 1.46257000E-06	 1.01994067E-05	-4.74872824E-06	-1.09549598E-06	 1.20462942E-05
					 1.98023000E-06	 1.98022000E-06	-1.45288000E-05	-1.70905000E-06	-1.26529000E-05	-1.26527000E-05	 2.34934558E-05	-2.64923481E-05	 3.68927500E-06	 1.22347231E-05
					 1.98023000E-06	 1.98022000E-06	-1.45288000E-05	 1.70905000E-06	-1.26529000E-05	 1.26527000E-05	 2.34934558E-05	-2.64923481E-05	 3.68927500E-06	 1.22347231E-05
					 1.98023000E-06	 1.98022000E-06	-1.45288000E-05	-1.70905000E-06	 1.26529000E-05	 1.26527000E-05	 2.34934558E-05	-2.64923481E-05	 3.68927500E-06	 1.22347231E-05
					 1.98023000E-06	 1.98022000E-06	-1.45288000E-05	 1.70905000E-06	 1.26529000E-05	-1.26527000E-05	 2.34934558E-05	-2.64923481E-05	 3.68927500E-06	 1.22347231E-05
					-1.85012000E-07	-4.02209000E-06	 1.04462000E-05	-1.43487000E-06	-4.34967000E-06	 5.59750000E-07	 1.01634209E-05	-5.51685680E-06	 3.07050218E-08	 1.17252498E-05
					 8.84386000E-07	-5.31725000E-06	 1.07090000E-05	 0.00000000E+00	-3.91646000E-06	 0.00000000E+00	 1.03693563E-05	-6.22314015E-06	 8.84386000E-07	 1.16148901E-05
					-1.85012000E-07	-4.02209000E-06	 1.04462000E-05	 1.43487000E-06	-4.34967000E-06	-5.59750000E-07	 1.01634209E-05	-5.51685680E-06	 3.07050218E-08	 1.17252498E-05
					 1.17236000E-06	 1.66566000E-06	-7.11934000E-06	-1.64018000E-07	 5.92885000E-06	 7.80334000E-07	 8.95537543E-06	-1.01579847E-05	 1.21267640E-06	 4.66398830E-06
					 3.59913000E-06	 6.05824000E-06	-2.44221000E-05	 0.00000000E+00	 0.00000000E+00	 3.02324000E-06	 1.98613391E-05	-2.47445696E-05	 3.92159955E-06	 6.05824000E-06
					 1.17236000E-06	 1.66566000E-06	-7.11934000E-06	 1.64018000E-07	-5.92885000E-06	 7.80334000E-07	 8.95537543E-06	-1.01579847E-05	 1.21267640E-06	 4.66398830E-06
					-1.85012000E-07	-4.02209000E-06	 1.04462000E-05	-1.43487000E-06	 4.34967000E-06	-5.59750000E-07	 1.01634209E-05	-5.51685680E-06	 3.07050218E-08	 1.17252498E-05
					 8.84386000E-07	-5.31725000E-06	 1.07090000E-05	 0.00000000E+00	 3.91646000E-06	 0.00000000E+00	 1.03693563E-05	-6.22314015E-06	 8.84386000E-07	 1.16148901E-05
					-1.85012000E-07	-4.02209000E-06	 1.04462000E-05	 1.43487000E-06	 4.34967000E-06	 5.59750000E-07	 1.01634209E-05	-5.51685680E-06	 3.07050218E-08	 1.17252498E-05
					 1.17236000E-06	 1.66566000E-06	-7.11934000E-06	-1.64018000E-07	-5.92885000E-06	-7.80334000E-07	 8.95537543E-06	-1.01579847E-05	 1.21267640E-06	 4.66398830E-06
					 3.59913000E-06	 6.05824000E-06	-2.44221000E-05	 0.00000000E+00	 0.00000000E+00	-3.02324000E-06	 1.98613391E-05	-2.47445696E-05	 3.92159955E-06	 6.05824000E-06
					 1.17236000E-06	 1.66566000E-06	-7.11934000E-06	 1.64018000E-07	 5.92885000E-06	-7.80334000E-07	 8.95537543E-06	-1.01579847E-05	 1.21267640E-06	 4.66398830E-06
					 6.29436000E-07	-4.26228000E-06	 1.01386000E-05	-1.96581000E-06	 4.25541000E-06	 6.23552000E-06	 1.23546323E-05	-7.38517940E-06	 1.61524222E-07	 1.37294112E-05
					-7.21361000E-07	-1.05048000E-05	 3.48059000E-05	 0.00000000E+00	 2.11637000E-05	 0.00000000E+00	 3.68129647E-05	-1.88521447E-05	-7.21361000E-07	 4.31532447E-05
					 6.29436000E-07	-4.26228000E-06	 1.01386000E-05	 1.96581000E-06	 4.25541000E-06	-6.23552000E-06	 1.23546323E-05	-7.38517940E-06	 1.61524222E-07	 1.37294112E-05
					-4.26210000E-06	 6.29489000E-07	 1.01384000E-05	 1.96573000E-06	 6.23560000E-06	-4.25572000E-06	 1.23546587E-05	-7.38522618E-06	 1.61589130E-07	 1.37294260E-05
					-1.05044000E-05	-7.21244000E-07	 3.48055000E-05	 0.00000000E+00	 0.00000000E+00	-2.11641000E-05	 3.68129249E-05	-1.88521255E-05	-7.21244000E-07	 4.31532255E-05
					-4.26210000E-06	 6.29489000E-07	 1.01384000E-05	-1.96573000E-06	-6.23560000E-06	-4.25572000E-06	 1.23546587E-05	-7.38522618E-06	 1.61589130E-07	 1.37294260E-05
					 6.29436000E-07	-4.26228000E-06	 1.01386000E-05	-1.96581000E-06	-4.25541000E-06	-6.23552000E-06	 1.23546323E-05	-7.38517940E-06	 1.61524222E-07	 1.37294112E-05
					-7.21361000E-07	-1.05048000E-05	 3.48059000E-05	 0.00000000E+00	-2.11637000E-05	 0.00000000E+00	 3.68129647E-05	-1.88521447E-05	-7.21361000E-07	 4.31532447E-05
					 6.29436000E-07	-4.26228000E-06	 1.01386000E-05	 1.96581000E-06	-4.25541000E-06	 6.23552000E-06	 1.23546323E-05	-7.38517940E-06	 1.61524222E-07	 1.37294112E-05
					-4.26210000E-06	 6.29489000E-07	 1.01384000E-05	 1.96573000E-06	-6.23560000E-06	 4.25572000E-06	 1.23546587E-05	-7.38522618E-06	 1.61589130E-07	 1.37294260E-05
					-1.05044000E-05	-7.21244000E-07	 3.48055000E-05	 0.00000000E+00	 0.00000000E+00	 2.11641000E-05	 3.68129249E-05	-1.88521255E-05	-7.21244000E-07	 4.31532255E-05
					-4.26210000E-06	 6.29489000E-07	 1.01384000E-05	-1.96573000E-06	 6.23560000E-06	 4.25572000E-06	 1.23546587E-05	-7.38522618E-06	 1.61589130E-07	 1.37294260E-05
					 6.74318000E-07	 9.15363000E-07	-1.63831000E-06	 8.47638000E-07	-6.90182000E-08	 2.16973000E-07	 1.91772913E-06	-1.66797021E-06	-3.41475564E-08	 1.65348877E-06
					 2.94110000E-06	 2.58820000E-06	-1.05676000E-05	-5.16462000E-07	 2.37126000E-06	 3.84369000E-07	 9.33224597E-06	-1.09976535E-05	 2.53674292E-06	 3.42261061E-06
					 2.66567000E-06	 1.99474000E-06	-7.97168000E-06	-2.39234000E-07	 2.17911000E-07	-2.76110000E-07	 6.89635361E-06	-7.98333335E-06	 1.91969252E-06	 2.75237083E-06
					 2.23065000E-06	 2.93799000E-06	-8.27122000E-06	 2.29189000E-07	-2.46491000E-08	 2.44018000E-07	 7.25889603E-06	-8.27696695E-06	 2.16844371E-06	 3.00594324E-06
					 2.44269000E-06	 2.47264000E-06	-8.22139000E-06	 1.14170000E-08	-1.60459000E-07	 3.43007000E-09	 7.12181488E-06	-8.22379829E-06	 2.43909866E-06	 2.47863962E-06
					 2.47113000E-06	 2.42100000E-06	-8.20326000E-06	 3.55634000E-08	 1.61309000E-07	-5.41552000E-08	 7.10244597E-06	-8.20598872E-06	 2.40521884E-06	 2.48963988E-06
					 2.48736000E-06	 2.47177000E-06	-8.20518000E-06	-5.25546000E-08	-2.15701000E-08	 4.53083000E-08	 7.12366317E-06	-8.20541467E-06	 2.42645197E-06	 2.53291270E-06
					 2.42847000E-06	 2.45034000E-06	-8.26183000E-06	 6.35801000E-08	-3.98442000E-08	 2.58336000E-08	 7.13475629E-06	-8.26204178E-06	 2.37508542E-06	 2.50393636E-06
					 2.46704000E-06	 2.46933000E-06	-8.19654000E-06	-8.75129000E-09	 6.22679000E-08	-7.07747000E-08	 7.11065717E-06	-8.19737252E-06	 2.45937229E-06	 2.47783022E-06
					 2.34508000E-06	 2.34065000E-06	-8.12420000E-06	 2.88289000E-07	 6.00706000E-07	-5.95667000E-07	 7.05394442E-06	-8.19403071E-06	 2.12439819E-06	 2.63116252E-06
					 2.65115000E-06	 2.65079000E-06	-8.33062000E-06	-3.17420000E-07	-6.68577000E-07	 6.70741000E-07	 7.41135020E-06	-8.40944770E-06	 2.33355008E-06	 3.04721762E-06
					 2.69962000E-06	 2.70071000E-06	-7.84270000E-06	 4.87161000E-07	-1.14234000E-06	 1.14117000E-06	 7.29339457E-06	-8.09561548E-06	 2.46591882E-06	 3.18732666E-06
					 1.94327000E-06	 1.94322000E-06	-8.88510000E-06	 2.86842000E-08	 2.06510000E-06	-2.06574000E-06	 7.96802731E-06	-9.62449497E-06	 1.97192919E-06	 2.65395578E-06
					 2.52690000E-06	 2.52673000E-06	-5.10656000E-06	-8.02561000E-07	 2.81235000E-06	-2.81197000E-06	 6.91697396E-06	-6.68581046E-06	 1.72425401E-06	 4.90862645E-06
					 2.67438000E-06	 2.67441000E-06	-7.10118000E-06	 1.24433000E-06	-5.40472000E-06	 5.40484000E-06	 1.10649962E-05	-1.15887757E-05	 3.91872500E-06	 5.91766071E-06
					 2.67438000E-06	 2.67441000E-06	-7.10118000E-06	-1.24433000E-06	-5.40472000E-06	-5.40484000E-06	 1.10649962E-05	-1.15887757E-05	 3.91872500E-06	 5.91766071E-06
					 2.52690000E-06	 2.52673000E-06	-5.10656000E-06	 8.02561000E-07	 2.81235000E-06	 2.81197000E-06	 6.91697396E-06	-6.68581046E-06	 1.72425401E-06	 4.90862645E-06
					 1.94327000E-06	 1.94322000E-06	-8.88510000E-06	-2.86842000E-08	 2.06510000E-06	 2.06574000E-06	 7.96802731E-06	-9.62449497E-06	 1.97192919E-06	 2.65395578E-06
					 2.69962000E-06	 2.70071000E-06	-7.84270000E-06	-4.87161000E-07	-1.14234000E-06	-1.14117000E-06	 7.29339457E-06	-8.09561548E-06	 2.46591882E-06	 3.18732666E-06
					 2.65115000E-06	 2.65079000E-06	-8.33062000E-06	 3.17420000E-07	-6.68577000E-07	-6.70741000E-07	 7.41135020E-06	-8.40944770E-06	 2.33355008E-06	 3.04721762E-06
					 2.34508000E-06	 2.34065000E-06	-8.12420000E-06	-2.88289000E-07	 6.00706000E-07	 5.95667000E-07	 7.05394442E-06	-8.19403071E-06	 2.12439819E-06	 2.63116252E-06
					 2.46704000E-06	 2.46933000E-06	-8.19654000E-06	 8.75129000E-09	 6.22679000E-08	 7.07747000E-08	 7.11065717E-06	-8.19737252E-06	 2.45937229E-06	 2.47783022E-06
					 2.42847000E-06	 2.45034000E-06	-8.26183000E-06	-6.35801000E-08	-3.98442000E-08	-2.58336000E-08	 7.13475629E-06	-8.26204178E-06	 2.37508542E-06	 2.50393636E-06
					 2.48736000E-06	 2.47177000E-06	-8.20518000E-06	 5.25546000E-08	-2.15701000E-08	-4.53083000E-08	 7.12366317E-06	-8.20541467E-06	 2.42645197E-06	 2.53291270E-06
					 2.47113000E-06	 2.42100000E-06	-8.20326000E-06	-3.55634000E-08	 1.61309000E-07	 5.41552000E-08	 7.10244597E-06	-8.20598872E-06	 2.40521884E-06	 2.48963988E-06
					 2.44269000E-06	 2.47264000E-06	-8.22139000E-06	-1.14170000E-08	-1.60459000E-07	-3.43007000E-09	 7.12181488E-06	-8.22379829E-06	 2.43909866E-06	 2.47863962E-06
					 2.23065000E-06	 2.93799000E-06	-8.27122000E-06	-2.29189000E-07	-2.46491000E-08	-2.44018000E-07	 7.25889603E-06	-8.27696695E-06	 2.16844371E-06	 3.00594324E-06
					 2.66567000E-06	 1.99474000E-06	-7.97168000E-06	 2.39234000E-07	 2.17911000E-07	 2.76110000E-07	 6.89635361E-06	-7.98333335E-06	 1.91969252E-06	 2.75237083E-06
					 2.94110000E-06	 2.58820000E-06	-1.05676000E-05	 5.16462000E-07	 2.37126000E-06	-3.84369000E-07	 9.33224597E-06	-1.09976535E-05	 2.53674292E-06	 3.42261061E-06
					 6.74318000E-07	 9.15363000E-07	-1.63831000E-06	-8.47638000E-07	-6.90182000E-08	-2.16973000E-07	 1.91772913E-06	-1.66797021E-06	-3.41475564E-08	 1.65348877E-06
					 6.74318000E-07	 9.15363000E-07	-1.63831000E-06	-8.47638000E-07	 6.90182000E-08	 2.16973000E-07	 1.91772913E-06	-1.66797021E-06	-3.41475564E-08	 1.65348877E-06
					 2.94110000E-06	 2.58820000E-06	-1.05676000E-05	 5.16462000E-07	-2.37126000E-06	 3.84369000E-07	 9.33224597E-06	-1.09976535E-05	 2.53674292E-06	 3.42261061E-06
					 2.66567000E-06	 1.99474000E-06	-7.97168000E-06	 2.39234000E-07	-2.17911000E-07	-2.76110000E-07	 6.89635361E-06	-7.98333335E-06	 1.91969252E-06	 2.75237083E-06
					 2.23065000E-06	 2.93799000E-06	-8.27122000E-06	-2.29189000E-07	 2.46491000E-08	 2.44018000E-07	 7.25889603E-06	-8.27696695E-06	 2.16844371E-06	 3.00594324E-06
					 2.44269000E-06	 2.47264000E-06	-8.22139000E-06	-1.14170000E-08	 1.60459000E-07	 3.43007000E-09	 7.12181488E-06	-8.22379829E-06	 2.43909866E-06	 2.47863962E-06
					 2.47113000E-06	 2.42100000E-06	-8.20326000E-06	-3.55634000E-08	-1.61309000E-07	-5.41552000E-08	 7.10244597E-06	-8.20598872E-06	 2.40521884E-06	 2.48963988E-06
					 2.48736000E-06	 2.47177000E-06	-8.20518000E-06	 5.25546000E-08	 2.15701000E-08	 4.53083000E-08	 7.12366317E-06	-8.20541467E-06	 2.42645197E-06	 2.53291270E-06
					 2.42847000E-06	 2.45034000E-06	-8.26183000E-06	-6.35801000E-08	 3.98442000E-08	 2.58336000E-08	 7.13475629E-06	-8.26204178E-06	 2.37508542E-06	 2.50393636E-06
					 2.46704000E-06	 2.46933000E-06	-8.19654000E-06	 8.75129000E-09	-6.22679000E-08	-7.07747000E-08	 7.11065717E-06	-8.19737252E-06	 2.45937229E-06	 2.47783022E-06
					 2.34508000E-06	 2.34065000E-06	-8.12420000E-06	-2.88289000E-07	-6.00706000E-07	-5.95667000E-07	 7.05394442E-06	-8.19403071E-06	 2.12439819E-06	 2.63116252E-06
					 2.65115000E-06	 2.65079000E-06	-8.33062000E-06	 3.17420000E-07	 6.68577000E-07	 6.70741000E-07	 7.41135020E-06	-8.40944770E-06	 2.33355008E-06	 3.04721762E-06
					 2.69962000E-06	 2.70071000E-06	-7.84270000E-06	-4.87161000E-07	 1.14234000E-06	 1.14117000E-06	 7.29339457E-06	-8.09561548E-06	 2.46591882E-06	 3.18732666E-06
					 1.94327000E-06	 1.94322000E-06	-8.88510000E-06	-2.86842000E-08	-2.06510000E-06	-2.06574000E-06	 7.96802731E-06	-9.62449497E-06	 1.97192919E-06	 2.65395578E-06
					 2.52690000E-06	 2.52673000E-06	-5.10656000E-06	 8.02561000E-07	-2.81235000E-06	-2.81197000E-06	 6.91697396E-06	-6.68581046E-06	 1.72425401E-06	 4.90862645E-06