<?xml version="1.0"?>
<VTKFile type="UnstructuredGrid" version="0.1" byte_order="LittleEndian">
	<UnstructuredGrid>
		<Piece NumberOfPoints="24" NumberOfCells="4">
			<Points>
				<DataArray type="Float64" NumberOfComponents="3" format="ascii">
					 0.00000000E+00	 0.00000000E+00	 5.00000000E-03
					 0.00000000E+00	 0.00000000E+00	-5.00000000E-03
					 0.00000000E+00	 0.00000000E+00	 5.00000000E-03
					 0.00000000E+00	 0.00000000E+00	-5.00000000E-03
					 0.00000000E+00	 0.00000000E+00	 5.00000000E-03
					 0.00000000E+00	 0.00000000E+00	-5.00000000E-03
					 0.00000000E+00	 0.00000000E+00	 5.00000000E-03
					 0.00000000E+00	 0.00000000E+00	-5.00000000E-03
					 1.00000000E+00	 0.00000000E+00	 5.00000000E-03
					 1.00000000E+00	 0.00000000E+00	-5.00000000E-03
					 1.00000000E+00	 0.00000000E+00	 5.00000000E-03
					 1.00000000E+00	 0.00000000E+00	-5.00000000E-03
					 0.00000000E+00	 1.00000000E+00	 5.00000000E-03
					 0.00000000E+00	 1.00000000E+00	-5.00000000E-03
					 0.00000000E+00	 1.00000000E+00	 5.00000000E-03
					 0.00000000E+00	 1.00000000E+00	-5.00000000E-03
					-1.00000000E+00	 0.00000000E+00	 5.00000000E-03
					-1.00000000E+00	 0.00000000E+00	-5.00000000E-03
					-1.00000000E+00	 0.00000000E+00	 5.00000000E-03
					-1.00000000E+00	 0.00000000E+00	-5.00000000E-03
					 0.00000000E+00	-1.00000000E+00	 5.00000000E-03
					 0.00000000E+00	-1.00000000E+00	-5.00000000E-03
					 0.00000000E+00	-1.00000000E+00	 5.00000000E-03
					 0.00000000E+00	-1.00000000E+00	-5.00000000E-03

				</DataArray>
			</Points>
			<Cells>
				<DataArray type="Int32" Name="connectivity" format="ascii">
					0 20 8 1 21 9 2 16 22 3 17 23 4 12 18 5 13 19 6 10 14 7 11 15 
				</DataArray>
				<DataArray type="Int32" Name="offsets" format="ascii">
					6 12 18 24 
				</DataArray>
				<DataArray type="UInt8" Name="types" format="ascii">
					13 13 13 13 
				</DataArray>
			</Cells>
			<PointData>
				<DataArray type="Float32" Name="U" NumberOfComponents="3" ComponentName0="D1" ComponentName1="D2" ComponentName2="D3" format="ascii">
					-1.10880000E-07	 1.10656000E-07	-2.21536000E-05
					 1.10880000E-07	-1.10656000E-07	-2.21536000E-05
					 1.08080000E-07	 1.13456000E-07	-2.21536000E-05
					-1.08080000E-07	-1.13456000E-07	-2.21536000E-05
					 1.11459000E-07	-1.10077000E-07	-2.21536000E-05
					-1.11459000E-07	 1.10077000E-07	-2.21536000E-05
					-1.07829000E-07	-1.13707000E-07	-2.21536000E-05
					 1.07829000E-07	 1.13707000E-07	-2.21536000E-05
					-1.10880000E-07	 1.10992000E-07	 0.00000000E+00
					 1.10880000E-07	-1.10992000E-07	 0.00000000E+00
					-1.07829000E-07	-1.04890000E-07	 0.00000000E+00
					 1.07829000E-07	 1.04890000E-07	 0.00000000E+00
					 1.09386000E-07	-1.10077000E-07	 0.00000000E+00
					-1.09386000E-07	 1.10077000E-07	 0.00000000E+00
					-1.16647000E-07	-1.13707000E-07	 0.00000000E+00
					 1.16647000E-07	 1.13707000E-07	 0.00000000E+00
					 1.08080000E-07	 1.05393000E-07	 0.00000000E+00
					-1.08080000E-07	-1.05393000E-07	 0.00000000E+00
					 1.11459000E-07	-1.12150000E-07	 0.00000000E+00
					-1.11459000E-07	 1.12150000E-07	 0.00000000E+00
					-1.10544000E-07	 1.10656000E-07	 0.00000000E+00
					 1.10544000E-07	-1.10656000E-07	 0.00000000E+00
					 1.16144000E-07	 1.13456000E-07	 0.00000000E+00
					-1.16144000E-07	-1.13456000E-07	 0.00000000E+00
				</DataArray>
				<DataArray type="Float32" Name="S" NumberOfComponents="10" ComponentName0="xx" ComponentName1="yy" ComponentName2="zz" ComponentName3="xy" ComponentName4="yz" ComponentName5="zx" ComponentName6="Mises" ComponentName7="Min Principal" ComponentName8="Mid Principal" ComponentName9="Max Principal" format="ascii">
					 7.36846000E-05	 7.36846000E-05	 1.56547000E-07	-3.96402000E-05	-2.34309000E-09	 2.66407000E-09	 1.00600253E-04	 1.56546888E-07	 3.40444000E-05	 1.13324800E-04
					 7.36846000E-05	 7.36846000E-05	 1.56547000E-07	-3.96402000E-05	-2.66387000E-09	 2.34290000E-09	 1.00600253E-04	 1.56546888E-07	 3.40444000E-05	 1.13324800E-04
					 7.36848000E-05	 7.36848000E-05	 1.56910000E-07	 3.96402000E-05	-6.05776000E-09	 1.05044000E-09	 1.00600135E-04	 1.56909144E-07	 3.40446007E-05	 1.13325000E-04
					 7.36848000E-05	 7.36848000E-05	 1.56910000E-07	 3.96402000E-05	 1.05081000E-09	-6.05739000E-09	 1.00600135E-04	 1.56909144E-07	 3.40446007E-05	 1.13325000E-04
					 7.36846000E-05	 7.36846000E-05	 1.56571000E-07	-3.96402000E-05	 1.58023000E-09	-3.42720000E-09	 1.00600236E-04	 1.56570839E-07	 3.40444001E-05	 1.13324800E-04
					 7.36846000E-05	 7.36846000E-05	 1.56571000E-07	-3.96402000E-05	 3.42674000E-09	-1.57977000E-09	 1.00600236E-04	 1.56570839E-07	 3.40444001E-05	 1.13324800E-04
					 7.36848000E-05	 7.36848000E-05	 1.56994000E-07	 3.96402000E-05	 6.44671000E-09	-1.43963000E-09	 1.00600073E-04	 1.56992972E-07	 3.40446009E-05	 1.13325000E-04
					 7.36848000E-05	 7.36848000E-05	 1.56994000E-07	 3.96402000E-05	-1.43977000E-09	 6.44658000E-09	 1.00600073E-04	 1.56992972E-07	 3.40446009E-05	 1.13325000E-04
					 7.36846000E-05	 7.36846000E-05	 1.56547000E-07	-3.96402000E-05	-2.66387000E-09	 2.34290000E-09	 1.00600253E-04	 1.56546888E-07	 3.40444000E-05	 1.13324800E-04
					 7.36846000E-05	 7.36846000E-05	 1.56547000E-07	-3.96402000E-05	-2.34309000E-09	 2.66407000E-09	 1.00600253E-04	 1.56546888E-07	 3.40444000E-05	 1.13324800E-04
					 7.36848000E-05	 7.36848000E-05	 1.56994000E-07	 3.96402000E-05	 6.44671000E-09	-1.43963000E-09	 1.00600073E-04	 1.56992972E-07	 3.40446009E-05	 1.13325000E-04
					 7.36848000E-05	 7.36848000E-05	 1.56994000E-07	 3.96402000E-05	-1.43977000E-09	 6.44658000E-09	 1.00600073E-04	 1.56992972E-07	 3.40446009E-05	 1.13325000E-04
					 7.36846000E-05	 7.36846000E-05	 1.56571000E-07	-3.96402000E-05	 1.58023000E-09	-3.42720000E-09	 1.00600236E-04	 1.56570839E-07	 3.40444001E-05	 1.13324800E-04
					 7.36846000E-05	 7.36846000E-05	 1.56571000E-07	-3.96402000E-05	 3.42674000E-09	-1.57977000E-09	 1.00600236E-04	 1.56570839E-07	 3.40444001E-05	 1.13324800E-04
					 7.36848000E-05	 7.36848000E-05	 1.56994000E-07	 3.96402000E-05	-1.43977000E-09	 6.44658000E-09	 1.00600073E-04	 1.56992972E-07	 3.40446009E-05	 1.13325000E-04
					 7.36848000E-05	 7.36848000E-05	 1.56994000E-07	 3.96402000E-05	 6.44671000E-09	-1.43963000E-09	 1.00600073E-04	 1.56992972E-07	 3.40446009E-05	 1.13325000E-04
					 7.36848000E-05	 7.36848000E-05	 1.56910000E-07	 3.96402000E-05	-6.05776000E-09	 1.05044000E-09	 1.00600135E-04	 1.56909144E-07	 3.40446007E-05	 1.13325000E-04
					 7.36848000E-05	 7.36848000E-05	 1.56910000E-07	 3.96402000E-05	 1.05081000E-09	-6.05739000E-09	 1.00600135E-04	 1.56909144E-07	 3.40446007E-05	 1.13325000E-04
					 7.36846000E-05	 7.36846000E-05	 1.56571000E-07	-3.96402000E-05	 3.42674000E-09	-1.57977000E-09	 1.00600236E-04	 1.56570839E-07	 3.40444001E-05	 1.13324800E-04
					 7.36846000E-05	 7.36846000E-05	 1.56571000E-07	-3.96402000E-05	 1.58023000E-09	-3.42720000E-09	 1.00600236E-04	 1.56570839E-07	 3.40444001E-05	 1.13324800E-04
					 7.36846000E-05	 7.36846000E-05	 1.56547000E-07	-3.96402000E-05	-2.34309000E-09	 2.66407000E-09	 1.00600253E-04	 1.56546888E-07	 3.40444000E-05	 1.13324800E-04
					 7.36846000E-05	 7.36846000E-05	 1.56547000E-07	-3.96402000E-05	-2.66387000E-09	 2.34290000E-09	 1.00600253E-04	 1.56546888E-07	 3.40444000E-05	 1.13324800E-04
					 7.36848000E-05	 7.36848000E-05	 1.56910000E-07	 3.96402000E-05	 1.05081000E-09	-6.05739000E-09	 1.00600135E-04	 1.56909144E-07	 3.40446007E-05	 1.13325000E-04
					 7.36848000E-05	 7.36848000E-05	 1.56910000E-07	 3.96402000E-05	-6.05776000E-09	 1.05044000E-09	 1.00600135E-04	 1.56909144E-07	 3.40446007E-05	 1.13325000E-04
				</DataArray>
				<DataArray type="Float32" Name="RF" NumberOfComponents="3" ComponentName0="F1" ComponentName1="F2" ComponentName2="F3" format="ascii">
					-2.83313000E-07	 2.83313000E-07	 2.60787000E-08
					-2.83311000E-07	 2.83311000E-07	-2.61037000E-08
					 2.83314000E-07	 2.83314000E-07	 2.61391000E-08
					 2.83311000E-07	 2.83311000E-07	-2.61641000E-08
					 2.83313000E-07	-2.83313000E-07	 2.60826000E-08
					 2.83311000E-07	-2.83311000E-07	-2.61077000E-08
					-2.83314000E-07	-2.83314000E-07	 2.61530000E-08
					-2.83311000E-07	-2.83311000E-07	-2.61781000E-08
					 1.84210000E-07	-9.90993000E-08	 2.60976000E-08
					 1.84213000E-07	-9.91017000E-08	-2.60851000E-08
					 1.84211000E-07	 9.90994000E-08	 2.61674000E-08
					 1.84213000E-07	 9.91017000E-08	-2.61549000E-08
					-9.90993000E-08	 1.84210000E-07	 2.61004000E-08
					-9.91017000E-08	 1.84213000E-07	-2.60879000E-08
					 9.90994000E-08	 1.84211000E-07	 2.61762000E-08
					 9.91017000E-08	 1.84213000E-07	-2.61637000E-08
					-1.84211000E-07	-9.90993000E-08	 2.61539000E-08
					-1.84213000E-07	-9.91017000E-08	-2.61413000E-08
					-1.84210000E-07	 9.90993000E-08	 2.61024000E-08
					-1.84213000E-07	 9.91017000E-08	-2.60899000E-08
					 9.90993000E-08	-1.84210000E-07	 2.60973000E-08
					 9.91017000E-08	-1.84213000E-07	-2.60847000E-08
					-9.90993000E-08	-1.84211000E-07	 2.61618000E-08
					-9.91017000E-08	-1.84213000E-07	-2.61493000E-08
				</DataArray>
			</PointData>
		</Piece>
	</UnstructuredGrid>
</VTKFile>