# vtk DataFile Version 3.0

ASCII
DATASET UNSTRUCTURED_GRID

POINTS 258 double
	 0.00000000E+00	 0.00000000E+00	 0.00000000E+00
	 1.00000000E+00	 0.00000000E+00	 0.00000000E+00
	 1.00000000E+00	 1.00000000E+00	 0.00000000E+00
	 0.00000000E+00	 1.00000000E+00	 0.00000000E+00
	 0.00000000E+00	 0.00000000E+00	 8.00000000E+00
	 1.00000000E+00	 0.00000000E+00	 8.00000000E+00
	 1.00000000E+00	 1.00000000E+00	 8.00000000E+00
	 0.00000000E+00	 1.00000000E+00	 8.00000000E+00
	 2.50000000E-01	 0.00000000E+00	 0.00000000E+00
	 5.00000000E-01	 0.00000000E+00	 0.00000000E+00
	 7.50000000E-01	 0.00000000E+00	 0.00000000E+00
	 1.00000000E+00	 2.50000000E-01	 0.00000000E+00
	 1.00000000E+00	 5.00000000E-01	 0.00000000E+00
	 1.00000000E+00	 7.50000000E-01	 0.00000000E+00
	 7.50000000E-01	 1.00000000E+00	 0.00000000E+00
	 5.00000000E-01	 1.00000000E+00	 0.00000000E+00
	 2.50000000E-01	 1.00000000E+00	 0.00000000E+00
	 0.00000000E+00	 7.50000000E-01	 0.00000000E+00
	 0.00000000E+00	 5.00000000E-01	 0.00000000E+00
	 0.00000000E+00	 2.50000000E-01	 0.00000000E+00
	 2.50000000E-01	 0.00000000E+00	 8.00000000E+00
	 5.00000000E-01	 0.00000000E+00	 8.00000000E+00
	 7.50000000E-01	 0.00000000E+00	 8.00000000E+00
	 1.00000000E+00	 2.50000000E-01	 8.00000000E+00
	 1.00000000E+00	 5.00000000E-01	 8.00000000E+00
	 1.00000000E+00	 7.50000000E-01	 8.00000000E+00
	 7.50000000E-01	 1.00000000E+00	 8.00000000E+00
	 5.00000000E-01	 1.00000000E+00	 8.00000000E+00
	 2.50000000E-01	 1.00000000E+00	 8.00000000E+00
	 0.00000000E+00	 7.50000000E-01	 8.00000000E+00
	 0.00000000E+00	 5.00000000E-01	 8.00000000E+00
	 0.00000000E+00	 2.50000000E-01	 8.00000000E+00
	 1.00000000E+00	 0.00000000E+00	 5.00000000E-01
	 1.00000000E+00	 0.00000000E+00	 1.00000000E+00
	 1.00000000E+00	 0.00000000E+00	 2.00000000E+00
	 1.00000000E+00	 0.00000000E+00	 2.50000000E+00
	 1.00000000E+00	 0.00000000E+00	 3.00000000E+00
	 1.00000000E+00	 0.00000000E+00	 3.50000000E+00
	 1.00000000E+00	 0.00000000E+00	 4.00000000E+00
	 1.00000000E+00	 0.00000000E+00	 4.50000000E+00
	 1.00000000E+00	 0.00000000E+00	 5.00000000E+00
	 1.00000000E+00	 0.00000000E+00	 5.50000000E+00
	 1.00000000E+00	 0.00000000E+00	 6.00000000E+00
	 1.00000000E+00	 0.00000000E+00	 6.50000000E+00
	 1.00000000E+00	 0.00000000E+00	 7.00000000E+00
	 1.00000000E+00	 0.00000000E+00	 7.50000000E+00
	 0.00000000E+00	 0.00000000E+00	 7.50000000E+00
	 0.00000000E+00	 0.00000000E+00	 7.00000000E+00
	 0.00000000E+00	 0.00000000E+00	 6.50000000E+00
	 0.00000000E+00	 0.00000000E+00	 6.00000000E+00
	 0.00000000E+00	 0.00000000E+00	 5.50000000E+00
	 0.00000000E+00	 0.00000000E+00	 5.00000000E+00
	 0.00000000E+00	 0.00000000E+00	 4.50000000E+00
	 0.00000000E+00	 0.00000000E+00	 4.00000000E+00
	 0.00000000E+00	 0.00000000E+00	 3.50000000E+00
	 0.00000000E+00	 0.00000000E+00	 3.00000000E+00
	 0.00000000E+00	 0.00000000E+00	 2.50000000E+00
	 0.00000000E+00	 0.00000000E+00	 2.00000000E+00
	 0.00000000E+00	 0.00000000E+00	 1.00000000E+00
	 0.00000000E+00	 0.00000000E+00	 5.00000000E-01
	 1.00000000E+00	 1.00000000E+00	 5.00000000E-01
	 1.00000000E+00	 1.00000000E+00	 1.00000000E+00
	 1.00000000E+00	 1.00000000E+00	 1.50000000E+00
	 1.00000000E+00	 1.00000000E+00	 2.00000000E+00
	 1.00000000E+00	 1.00000000E+00	 2.50000000E+00
	 1.00000000E+00	 1.00000000E+00	 3.00000000E+00
	 1.00000000E+00	 1.00000000E+00	 3.50000000E+00
	 1.00000000E+00	 1.00000000E+00	 4.00000000E+00
	 1.00000000E+00	 1.00000000E+00	 4.50000000E+00
	 1.00000000E+00	 1.00000000E+00	 5.00000000E+00
	 1.00000000E+00	 1.00000000E+00	 5.50000000E+00
	 1.00000000E+00	 1.00000000E+00	 6.00000000E+00
	 1.00000000E+00	 1.00000000E+00	 6.50000000E+00
	 1.00000000E+00	 1.00000000E+00	 7.00000000E+00
	 1.00000000E+00	 1.00000000E+00	 7.50000000E+00
	 0.00000000E+00	 1.00000000E+00	 5.00000000E-01
	 0.00000000E+00	 1.00000000E+00	 1.00000000E+00
	 0.00000000E+00	 1.00000000E+00	 1.50000000E+00
	 0.00000000E+00	 1.00000000E+00	 2.00000000E+00
	 0.00000000E+00	 1.00000000E+00	 2.50000000E+00
	 0.00000000E+00	 1.00000000E+00	 3.00000000E+00
	 0.00000000E+00	 1.00000000E+00	 3.50000000E+00
	 0.00000000E+00	 1.00000000E+00	 4.00000000E+00
	 0.00000000E+00	 1.00000000E+00	 4.50000000E+00
	 0.00000000E+00	 1.00000000E+00	 5.00000000E+00
	 0.00000000E+00	 1.00000000E+00	 5.50000000E+00
	 0.00000000E+00	 1.00000000E+00	 6.00000000E+00
	 0.00000000E+00	 1.00000000E+00	 6.50000000E+00
	 0.00000000E+00	 1.00000000E+00	 7.00000000E+00
	 0.00000000E+00	 1.00000000E+00	 7.50000000E+00
	 5.00000000E-01	 2.50000000E-01	 0.00000000E+00
	 2.50000000E-01	 5.00000000E-01	 0.00000000E+00
	 5.00000000E-01	 5.00000000E-01	 0.00000000E+00
	 7.50000000E-01	 5.00000000E-01	 0.00000000E+00
	 5.00000000E-01	 7.50000000E-01	 0.00000000E+00
	 5.00000000E-01	 2.50000000E-01	 8.00000000E+00
	 2.50000000E-01	 5.00000000E-01	 8.00000000E+00
	 5.00000000E-01	 5.00000000E-01	 8.00000000E+00
	 7.50000000E-01	 5.00000000E-01	 8.00000000E+00
	 5.00000000E-01	 7.50000000E-01	 8.00000000E+00
	 5.00000000E-01	 0.00000000E+00	 5.00000000E-01
	 2.50000000E-01	 0.00000000E+00	 1.00000000E+00
	 5.00000000E-01	 0.00000000E+00	 1.00000000E+00
	 7.50000000E-01	 0.00000000E+00	 1.00000000E+00
	 2.50000000E-01	 0.00000000E+00	 2.00000000E+00
	 5.00000000E-01	 0.00000000E+00	 2.00000000E+00
	 7.50000000E-01	 0.00000000E+00	 2.00000000E+00
	 5.00000000E-01	 0.00000000E+00	 2.50000000E+00
	 2.50000000E-01	 0.00000000E+00	 3.00000000E+00
	 5.00000000E-01	 0.00000000E+00	 3.00000000E+00
	 7.50000000E-01	 0.00000000E+00	 3.00000000E+00
	 5.00000000E-01	 0.00000000E+00	 3.50000000E+00
	 2.50000000E-01	 0.00000000E+00	 4.00000000E+00
	 5.00000000E-01	 0.00000000E+00	 4.00000000E+00
	 7.50000000E-01	 0.00000000E+00	 4.00000000E+00
	 5.00000000E-01	 0.00000000E+00	 4.50000000E+00
	 2.50000000E-01	 0.00000000E+00	 5.00000000E+00
	 5.00000000E-01	 0.00000000E+00	 5.00000000E+00
	 7.50000000E-01	 0.00000000E+00	 5.00000000E+00
	 5.00000000E-01	 0.00000000E+00	 5.50000000E+00
	 2.50000000E-01	 0.00000000E+00	 6.00000000E+00
	 5.00000000E-01	 0.00000000E+00	 6.00000000E+00
	 7.50000000E-01	 0.00000000E+00	 6.00000000E+00
	 5.00000000E-01	 0.00000000E+00	 6.50000000E+00
	 2.50000000E-01	 0.00000000E+00	 7.00000000E+00
	 5.00000000E-01	 0.00000000E+00	 7.00000000E+00
	 7.50000000E-01	 0.00000000E+00	 7.00000000E+00
	 5.00000000E-01	 0.00000000E+00	 7.50000000E+00
	 1.00000000E+00	 5.00000000E-01	 5.00000000E-01
	 1.00000000E+00	 2.50000000E-01	 1.00000000E+00
	 1.00000000E+00	 5.00000000E-01	 1.00000000E+00
	 1.00000000E+00	 7.50000000E-01	 1.00000000E+00
	 1.00000000E+00	 5.00000000E-01	 1.50000000E+00
	 1.00000000E+00	 2.50000000E-01	 2.00000000E+00
	 1.00000000E+00	 5.00000000E-01	 2.00000000E+00
	 1.00000000E+00	 7.50000000E-01	 2.00000000E+00
	 1.00000000E+00	 5.00000000E-01	 2.50000000E+00
	 1.00000000E+00	 2.50000000E-01	 3.00000000E+00
	 1.00000000E+00	 5.00000000E-01	 3.00000000E+00
	 1.00000000E+00	 7.50000000E-01	 3.00000000E+00
	 1.00000000E+00	 5.00000000E-01	 3.50000000E+00
	 1.00000000E+00	 2.50000000E-01	 4.00000000E+00
	 1.00000000E+00	 5.00000000E-01	 4.00000000E+00
	 1.00000000E+00	 7.50000000E-01	 4.00000000E+00
	 1.00000000E+00	 5.00000000E-01	 4.50000000E+00
	 1.00000000E+00	 2.50000000E-01	 5.00000000E+00
	 1.00000000E+00	 5.00000000E-01	 5.00000000E+00
	 1.00000000E+00	 7.50000000E-01	 5.00000000E+00
	 1.00000000E+00	 5.00000000E-01	 5.50000000E+00
	 1.00000000E+00	 2.50000000E-01	 6.00000000E+00
	 1.00000000E+00	 5.00000000E-01	 6.00000000E+00
	 1.00000000E+00	 7.50000000E-01	 6.00000000E+00
	 1.00000000E+00	 5.00000000E-01	 6.50000000E+00
	 1.00000000E+00	 2.50000000E-01	 7.00000000E+00
	 1.00000000E+00	 5.00000000E-01	 7.00000000E+00
	 1.00000000E+00	 7.50000000E-01	 7.00000000E+00
	 1.00000000E+00	 5.00000000E-01	 7.50000000E+00
	 5.00000000E-01	 1.00000000E+00	 5.00000000E-01
	 7.50000000E-01	 1.00000000E+00	 1.00000000E+00
	 5.00000000E-01	 1.00000000E+00	 1.00000000E+00
	 2.50000000E-01	 1.00000000E+00	 1.00000000E+00
	 5.00000000E-01	 1.00000000E+00	 1.50000000E+00
	 7.50000000E-01	 1.00000000E+00	 2.00000000E+00
	 5.00000000E-01	 1.00000000E+00	 2.00000000E+00
	 2.50000000E-01	 1.00000000E+00	 2.00000000E+00
	 5.00000000E-01	 1.00000000E+00	 2.50000000E+00
	 7.50000000E-01	 1.00000000E+00	 3.00000000E+00
	 5.00000000E-01	 1.00000000E+00	 3.00000000E+00
	 2.50000000E-01	 1.00000000E+00	 3.00000000E+00
	 5.00000000E-01	 1.00000000E+00	 3.50000000E+00
	 7.50000000E-01	 1.00000000E+00	 4.00000000E+00
	 5.00000000E-01	 1.00000000E+00	 4.00000000E+00
	 2.50000000E-01	 1.00000000E+00	 4.00000000E+00
	 5.00000000E-01	 1.00000000E+00	 4.50000000E+00
	 7.50000000E-01	 1.00000000E+00	 5.00000000E+00
	 5.00000000E-01	 1.00000000E+00	 5.00000000E+00
	 2.50000000E-01	 1.00000000E+00	 5.00000000E+00
	 5.00000000E-01	 1.00000000E+00	 5.50000000E+00
	 7.50000000E-01	 1.00000000E+00	 6.00000000E+00
	 5.00000000E-01	 1.00000000E+00	 6.00000000E+00
	 2.50000000E-01	 1.00000000E+00	 6.00000000E+00
	 5.00000000E-01	 1.00000000E+00	 6.50000000E+00
	 7.50000000E-01	 1.00000000E+00	 7.00000000E+00
	 5.00000000E-01	 1.00000000E+00	 7.00000000E+00
	 2.50000000E-01	 1.00000000E+00	 7.00000000E+00
	 5.00000000E-01	 1.00000000E+00	 7.50000000E+00
	 0.00000000E+00	 5.00000000E-01	 5.00000000E-01
	 0.00000000E+00	 7.50000000E-01	 1.00000000E+00
	 0.00000000E+00	 5.00000000E-01	 1.00000000E+00
	 0.00000000E+00	 2.50000000E-01	 1.00000000E+00
	 0.00000000E+00	 5.00000000E-01	 1.50000000E+00
	 0.00000000E+00	 7.50000000E-01	 2.00000000E+00
	 0.00000000E+00	 5.00000000E-01	 2.00000000E+00
	 0.00000000E+00	 2.50000000E-01	 2.00000000E+00
	 0.00000000E+00	 5.00000000E-01	 2.50000000E+00
	 0.00000000E+00	 7.50000000E-01	 3.00000000E+00
	 0.00000000E+00	 5.00000000E-01	 3.00000000E+00
	 0.00000000E+00	 2.50000000E-01	 3.00000000E+00
	 0.00000000E+00	 5.00000000E-01	 3.50000000E+00
	 0.00000000E+00	 7.50000000E-01	 4.00000000E+00
	 0.00000000E+00	 5.00000000E-01	 4.00000000E+00
	 0.00000000E+00	 2.50000000E-01	 4.00000000E+00
	 0.00000000E+00	 5.00000000E-01	 4.50000000E+00
	 0.00000000E+00	 7.50000000E-01	 5.00000000E+00
	 0.00000000E+00	 5.00000000E-01	 5.00000000E+00
	 0.00000000E+00	 2.50000000E-01	 5.00000000E+00
	 0.00000000E+00	 5.00000000E-01	 5.50000000E+00
	 0.00000000E+00	 7.50000000E-01	 6.00000000E+00
	 0.00000000E+00	 5.00000000E-01	 6.00000000E+00
	 0.00000000E+00	 2.50000000E-01	 6.00000000E+00
	 0.00000000E+00	 5.00000000E-01	 6.50000000E+00
	 0.00000000E+00	 7.50000000E-01	 7.00000000E+00
	 0.00000000E+00	 5.00000000E-01	 7.00000000E+00
	 0.00000000E+00	 2.50000000E-01	 7.00000000E+00
	 0.00000000E+00	 5.00000000E-01	 7.50000000E+00
	 5.00000000E-01	 5.00000000E-01	 5.00000000E-01
	 5.00000000E-01	 2.50000000E-01	 1.00000000E+00
	 2.50000000E-01	 5.00000000E-01	 1.00000000E+00
	 5.00000000E-01	 5.00000000E-01	 1.00000000E+00
	 7.50000000E-01	 5.00000000E-01	 1.00000000E+00
	 5.00000000E-01	 7.50000000E-01	 1.00000000E+00
	 5.00000000E-01	 5.00000000E-01	 1.50000000E+00
	 5.00000000E-01	 2.50000000E-01	 2.00000000E+00
	 2.50000000E-01	 5.00000000E-01	 2.00000000E+00
	 5.00000000E-01	 5.00000000E-01	 2.00000000E+00
	 7.50000000E-01	 5.00000000E-01	 2.00000000E+00
	 5.00000000E-01	 7.50000000E-01	 2.00000000E+00
	 5.00000000E-01	 5.00000000E-01	 2.50000000E+00
	 5.00000000E-01	 2.50000000E-01	 3.00000000E+00
	 2.50000000E-01	 5.00000000E-01	 3.00000000E+00
	 5.00000000E-01	 5.00000000E-01	 3.00000000E+00
	 7.50000000E-01	 5.00000000E-01	 3.00000000E+00
	 5.00000000E-01	 7.50000000E-01	 3.00000000E+00
	 5.00000000E-01	 5.00000000E-01	 3.50000000E+00
	 5.00000000E-01	 2.50000000E-01	 4.00000000E+00
	 2.50000000E-01	 5.00000000E-01	 4.00000000E+00
	 5.00000000E-01	 5.00000000E-01	 4.00000000E+00
	 7.50000000E-01	 5.00000000E-01	 4.00000000E+00
	 5.00000000E-01	 7.50000000E-01	 4.00000000E+00
	 5.00000000E-01	 5.00000000E-01	 4.50000000E+00
	 5.00000000E-01	 2.50000000E-01	 5.00000000E+00
	 2.50000000E-01	 5.00000000E-01	 5.00000000E+00
	 5.00000000E-01	 5.00000000E-01	 5.00000000E+00
	 7.50000000E-01	 5.00000000E-01	 5.00000000E+00
	 5.00000000E-01	 7.50000000E-01	 5.00000000E+00
	 5.00000000E-01	 5.00000000E-01	 5.50000000E+00
	 5.00000000E-01	 2.50000000E-01	 6.00000000E+00
	 2.50000000E-01	 5.00000000E-01	 6.00000000E+00
	 5.00000000E-01	 5.00000000E-01	 6.00000000E+00
	 7.50000000E-01	 5.00000000E-01	 6.00000000E+00
	 5.00000000E-01	 7.50000000E-01	 6.00000000E+00
	 5.00000000E-01	 5.00000000E-01	 6.50000000E+00
	 5.00000000E-01	 2.50000000E-01	 7.00000000E+00
	 2.50000000E-01	 5.00000000E-01	 7.00000000E+00
	 5.00000000E-01	 5.00000000E-01	 7.00000000E+00
	 7.50000000E-01	 5.00000000E-01	 7.00000000E+00
	 5.00000000E-01	 7.50000000E-01	 7.00000000E+00
	 5.00000000E-01	 5.00000000E-01	 7.50000000E+00

CELLS 30 630
	20 0 9 92 18 58 102 218 188 8 90 91 19 101 216 217 189 59 100 215 186 
	20 9 1 12 92 102 33 130 218 10 11 93 90 103 129 219 216 100 32 128 215 
	20 18 92 15 3 188 218 159 76 91 94 16 17 217 220 160 187 186 215 157 75 
	20 92 12 2 15 218 130 61 159 93 13 14 94 219 131 158 220 215 128 60 157 
	20 188 218 159 76 192 224 163 78 217 220 160 187 223 226 164 191 190 221 161 77 
	20 218 130 61 159 224 134 63 163 219 131 158 220 225 135 162 226 221 132 62 161 
	20 57 105 224 192 55 109 230 196 104 222 223 193 108 228 229 197 56 107 227 194 
	20 105 34 134 224 109 36 138 230 106 133 225 222 110 137 231 228 107 35 136 227 
	20 192 224 163 78 196 230 167 80 223 226 164 191 229 232 168 195 194 227 165 79 
	20 224 134 63 163 230 138 65 167 225 135 162 226 231 139 166 232 227 136 64 165 
	20 55 109 230 196 53 113 236 200 108 228 229 197 112 234 235 201 54 111 233 198 
	20 109 36 138 230 113 38 142 236 110 137 231 228 114 141 237 234 111 37 140 233 
	20 196 230 167 80 200 236 171 82 229 232 168 195 235 238 172 199 198 233 169 81 
	20 230 138 65 167 236 142 67 171 231 139 166 232 237 143 170 238 233 140 66 169 
	20 53 113 236 200 51 117 242 204 112 234 235 201 116 240 241 205 52 115 239 202 
	20 113 38 142 236 117 40 146 242 114 141 237 234 118 145 243 240 115 39 144 239 
	20 200 236 171 82 204 242 175 84 235 238 172 199 241 244 176 203 202 239 173 83 
	20 236 142 67 171 242 146 69 175 237 143 170 238 243 147 174 244 239 144 68 173 
	20 51 117 242 204 49 121 248 208 116 240 241 205 120 246 247 209 50 119 245 206 
	20 117 40 146 242 121 42 150 248 118 145 243 240 122 149 249 246 119 41 148 245 
	20 204 242 175 84 208 248 179 86 241 244 176 203 247 250 180 207 206 245 177 85 
	20 242 146 69 175 248 150 71 179 243 147 174 244 249 151 178 250 245 148 70 177 
	20 49 121 248 208 47 125 254 212 120 246 247 209 124 252 253 213 48 123 251 210 
	20 121 42 150 248 125 44 154 254 122 149 249 246 126 153 255 252 123 43 152 251 
	20 208 248 179 86 212 254 183 88 247 250 180 207 253 256 184 211 210 251 181 87 
	20 248 150 71 179 254 154 73 183 249 151 178 250 255 155 182 256 251 152 72 181 
	20 47 125 254 212 4 21 97 30 124 252 253 213 20 95 96 31 46 127 257 214 
	20 125 44 154 254 21 5 24 97 126 153 255 252 22 23 98 95 127 45 156 257 
	20 212 254 183 88 30 97 27 7 253 256 184 211 96 99 28 29 214 257 185 89 
	20 254 154 73 183 97 24 6 27 255 155 182 256 98 25 26 99 257 156 74 185 

CELL_TYPES 30
	25
	25
	25
	25
	25
	25
	25
	25
	25
	25
	25
	25
	25
	25
	25
	25
	25
	25
	25
	25
	25
	25
	25
	25
	25
	25
	25
	25
	25
	25

POINT_DATA 258
FIELD S 1
	S 10 258 double
		 1.48614000E+02	 3.83762000E+01	 6.52692000E+02	-3.92720000E+01	 7.52599000E+01	 6.25815000E+01	 5.95972996E+02	 1.27631550E+01	 1.58753003E+02	 6.68166042E+02
		 1.48614000E+02	 3.83762000E+01	 6.52692000E+02	 3.92720000E+01	 7.52599000E+01	-6.25815000E+01	 5.95972996E+02	 1.27631550E+01	 1.58753003E+02	 6.68166042E+02
		-1.23312000E+02	-2.15894000E+02	-3.19129000E+02	 2.52899000E-01	-1.26263000E+01	 8.48210000E+01	 2.25496925E+02	-3.51806480E+02	-2.14989051E+02	-9.15394681E+01
		-1.23312000E+02	-2.15894000E+02	-3.19129000E+02	-2.52899000E-01	-1.26263000E+01	-8.48210000E+01	 2.25496925E+02	-3.51806480E+02	-2.14989051E+02	-9.15394681E+01
		 6.14807000E+00	-2.99543000E+01	 3.98240000E+00	-1.46161000E+01	 1.08146000E+01	-3.67499000E+00	 4.75621692E+01	-3.71359352E+01	 1.23415272E+00	 1.60779525E+01
		 6.14807000E+00	-2.99543000E+01	 3.98240000E+00	 1.46161000E+01	 1.08146000E+01	 3.67499000E+00	 4.75621692E+01	-3.71359352E+01	 1.23415272E+00	 1.60779525E+01
		-6.35410000E+00	 3.15894000E+01	-2.67647000E+00	 1.40375000E+01	 9.22233000E+00	-3.52069000E+00	 4.68741518E+01	-1.45913133E+01	-5.48883840E-01	 3.76990271E+01
		-6.35410000E+00	 3.15894000E+01	-2.67647000E+00	-1.40375000E+01	 9.22233000E+00	 3.52069000E+00	 4.68741518E+01	-1.45913133E+01	-5.48883840E-01	 3.76990271E+01
		 1.30717000E+02	 9.88139000E+00	 6.21569000E+02	-1.58681000E+01	 8.68886000E+01	 2.95918000E+01	 5.83849836E+02	-5.13162242E+00	 1.32167323E+02	 6.35131689E+02
		 1.12820000E+02	-1.86134000E+01	 5.90446000E+02	 0.00000000E+00	 9.85173000E+01	 0.00000000E+00	 5.80770453E+02	-3.41524373E+01	 1.12820000E+02	 6.05985037E+02
		 1.30717000E+02	 9.88139000E+00	 6.21569000E+02	 1.58681000E+01	 8.68886000E+01	-2.95918000E+01	 5.83849836E+02	-5.13162242E+00	 1.32167323E+02	 6.35131689E+02
		 3.11756000E+01	-1.26429000E+02	 2.20720000E+02	 4.47261000E+01	-2.37465000E+01	-1.85810000E+01	 3.15227030E+02	-1.39167295E+02	 3.98248096E+01	 2.24809085E+02
		-4.32765000E+01	-2.02071000E+02	-1.56699000E+02	 2.15328000E+01	-3.56732000E+01	 2.61588000E+01	 1.65321057E+02	-2.27098634E+02	-1.38581647E+02	-3.63662199E+01
		-6.18012000E+01	-1.64401000E+02	-2.10637000E+02	-3.43088000E+00	 1.93902000E+01	 5.58595000E+01	 1.67129873E+02	-2.34672276E+02	-1.59067435E+02	-4.30994891E+01
		-1.19125000E+02	-2.19346000E+02	-3.01969000E+02	 5.43830000E+00	-5.11337000E-01	 3.83867000E+01	 1.72225128E+02	-3.09728517E+02	-2.19571348E+02	-1.11140134E+02
		-1.14937000E+02	-2.22797000E+02	-2.84810000E+02	 0.00000000E+00	 1.16036000E+01	 0.00000000E+00	 1.50239957E+02	-2.86910094E+02	-2.20696906E+02	-1.14937000E+02
		-1.19125000E+02	-2.19346000E+02	-3.01969000E+02	-5.43830000E+00	-5.11337000E-01	-3.83867000E+01	 1.72225128E+02	-3.09728517E+02	-2.19571348E+02	-1.11140134E+02
		-6.18012000E+01	-1.64401000E+02	-2.10637000E+02	 3.43088000E+00	 1.93902000E+01	-5.58595000E+01	 1.67129873E+02	-2.34672276E+02	-1.59067435E+02	-4.30994891E+01
		-4.32765000E+01	-2.02071000E+02	-1.56699000E+02	-2.15328000E+01	-3.56732000E+01	-2.61588000E+01	 1.65321057E+02	-2.27098634E+02	-1.38581647E+02	-3.63662199E+01
		 3.11756000E+01	-1.26429000E+02	 2.20720000E+02	-4.47261000E+01	-2.37465000E+01	 1.85810000E+01	 3.15227030E+02	-1.39167295E+02	 3.98248096E+01	 2.24809085E+02
		 7.42203000E+00	-1.44864000E+01	 2.09360000E+00	 9.47967000E-01	 5.06503000E+00	-3.83848000E+00	 2.27045201E+01	-1.60776843E+01	 1.57062105E+00	 9.53629328E+00
		 8.69599000E+00	 9.81463000E-01	 2.04809000E-01	 0.00000000E+00	-6.84585000E-01	 0.00000000E+00	 8.21672723E+00	-1.93918306E-01	 1.38019031E+00	 8.69599000E+00
		 7.42203000E+00	-1.44864000E+01	 2.09360000E+00	-9.47967000E-01	 5.06503000E+00	 3.83848000E+00	 2.27045201E+01	-1.60776843E+01	 1.57062105E+00	 9.53629328E+00
		-6.34388000E-01	-1.42893000E+01	-1.35454000E+00	 1.01500000E+01	 1.49524000E+01	 6.42510000E-02	 3.40138841E+01	-2.69232742E+01	-9.26553431E-01	 1.15715996E+01
		-1.64491000E-01	 1.53226000E+00	-1.66533000E+00	 5.71920000E+00	 1.86465000E+01	-3.18477000E-01	 3.38996452E+01	-1.96633099E+01	-1.14870358E-01	 1.94806193E+01
		 3.66882000E-01	 1.66391000E+01	 3.42168000E-01	 9.89605000E+00	 1.37126000E+01	-3.05580000E-01	 3.35167062E+01	-1.04835204E+01	 6.48820489E-01	 2.71828499E+01
		-7.71613000E+00	 1.51710000E+01	-1.25568000E+00	-1.46655000E+00	 4.32625000E+00	-3.53914000E+00	 2.27568701E+01	-9.28488904E+00	-9.74971404E-01	 1.64590504E+01
		-9.07816000E+00	-1.24753000E+00	 1.65108000E-01	 0.00000000E+00	-5.69823000E-01	 0.00000000E+00	 8.68045233E+00	-9.07816000E+00	-1.44872672E+00	 3.66304719E-01
		-7.71613000E+00	 1.51710000E+01	-1.25568000E+00	 1.46655000E+00	 4.32625000E+00	 3.53914000E+00	 2.27568701E+01	-9.28488904E+00	-9.74971404E-01	 1.64590504E+01
		 3.66882000E-01	 1.66391000E+01	 3.42168000E-01	-9.89605000E+00	 1.37126000E+01	 3.05580000E-01	 3.35167062E+01	-1.04835204E+01	 6.48820489E-01	 2.71828499E+01
		-1.64491000E-01	 1.53226000E+00	-1.66533000E+00	-5.71920000E+00	 1.86465000E+01	 3.18477000E-01	 3.38996452E+01	-1.96633099E+01	-1.14870358E-01	 1.94806193E+01
		-6.34388000E-01	-1.42893000E+01	-1.35454000E+00	-1.01500000E+01	 1.49524000E+01	-6.42510000E-02	 3.40138841E+01	-2.69232742E+01	-9.26553431E-01	 1.15715996E+01
		 3.72501000E+01	 2.07011000E+00	 2.01883000E+02	 1.00089000E+01	 3.06754000E+01	-8.68657000E+00	 1.93605918E+02	-5.47857889E+00	 3.98967120E+01	 2.06785077E+02
		-7.41137000E+01	-3.42360000E+01	-2.48925000E+02	-1.92541000E+01	-1.39090000E+01	 4.52084000E+01	 2.16666182E+02	-2.60283652E+02	-7.48901142E+01	-2.21009338E+01
		-1.52193000E+01	-5.88121000E-01	-1.91520000E+02	-2.64505000E+00	 1.65979000E+01	-5.25240000E+00	 1.86562907E+02	-1.93093032E+02	-1.56554637E+01	 1.42107455E+00
		 4.53661000E+00	-9.97007000E+00	 1.29998000E+02	 3.46313000E+00	-2.12410000E+01	-6.86223000E+00	 1.38931001E+02	-1.34542500E+01	 4.45561818E+00	 1.33563172E+02
		 5.56950000E+00	 1.02780000E+01	 3.59931000E+02	-4.82924000E-01	-8.93762000E+00	-4.58701000E+00	 3.52461624E+02	 5.43259626E+00	 1.01276236E+01	 3.60218280E+02
		-9.71100000E+00	 5.97274000E+00	 2.33870000E+02	-4.04014000E+00	 1.66585000E+01	 2.70573000E+00	 2.38035439E+02	-1.08764134E+01	 5.90326664E+00	 2.35104887E+02
		 4.22392000E+00	-7.93324000E+00	 2.11278000E+02	 2.61799000E+00	 4.28068000E+00	 1.03131000E+00	 2.13576926E+02	-8.54534346E+00	 4.74680893E+00	 2.11367215E+02
		 4.44515000E+00	 3.68912000E+00	 1.91401000E+02	 1.10718000E+00	 1.23701000E+01	-5.84212000E-01	 1.88568728E+02	 2.27499975E+00	 5.04621000E+00	 1.92214060E+02
		-3.30998000E+00	-1.26484000E+00	 1.61061000E+02	-1.02051000E+00	 8.99311000E+00	 1.65726000E+00	 1.64133580E+02	-3.90153921E+00	-1.18549043E+00	 1.61573210E+02
		-7.63041000E-01	-4.85338000E-01	 1.34524000E+02	 4.31563000E-02	 9.11099000E+00	 7.50743000E-01	 1.36072840E+02	-1.09757014E+00	-7.67041872E-01	 1.35140233E+02
		 8.80955000E-01	-4.41292000E-01	 1.07446000E+02	 8.89177000E-01	 5.68133000E+00	 1.10126000E+00	 1.07710748E+02	-1.09126805E+00	 1.22028103E+00	 1.07756650E+02
		-3.46002000E-01	 2.03905000E+00	 8.12193000E+01	-7.96299000E-01	 7.91854000E+00	 2.80765000E-02	 8.15724460E+01	-6.73870609E-01	 1.58274761E+00	 8.20034710E+01
		-1.73937000E+00	 7.72450000E+00	 5.36685000E+01	-3.68438000E+00	 4.76571000E+00	 5.42961000E-01	 5.23924458E+01	-3.08157304E+00	 8.57708632E+00	 5.41581167E+01
		 2.92769000E+00	-8.15357000E+00	 2.86041000E+01	 4.52786000E+00	 3.67235000E+00	 2.91897000E+00	 3.45560921E+01	-9.93242919E+00	 3.91150457E+00	 2.93991446E+01
		 2.92769000E+00	-8.15357000E+00	 2.86041000E+01	-4.52786000E+00	 3.67235000E+00	-2.91897000E+00	 3.45560921E+01	-9.93242919E+00	 3.91150457E+00	 2.93991446E+01
		-1.73937000E+00	 7.72450000E+00	 5.36685000E+01	 3.68438000E+00	 4.76571000E+00	-5.42961000E-01	 5.23924458E+01	-3.08157304E+00	 8.57708632E+00	 5.41581167E+01
		-3.46002000E-01	 2.03905000E+00	 8.12193000E+01	 7.96299000E-01	 7.91854000E+00	-2.80765000E-02	 8.15724460E+01	-6.73870609E-01	 1.58274761E+00	 8.20034710E+01
		 8.80955000E-01	-4.41292000E-01	 1.07446000E+02	-8.89177000E-01	 5.68133000E+00	-1.10126000E+00	 1.07710748E+02	-1.09126805E+00	 1.22028103E+00	 1.07756650E+02
		-7.63041000E-01	-4.85338000E-01	 1.34524000E+02	-4.31563000E-02	 9.11099000E+00	-7.50743000E-01	 1.36072840E+02	-1.09757014E+00	-7.67041872E-01	 1.35140233E+02
		-3.30998000E+00	-1.26484000E+00	 1.61061000E+02	 1.02051000E+00	 8.99311000E+00	-1.65726000E+00	 1.64133580E+02	-3.90153921E+00	-1.18549043E+00	 1.61573210E+02
		 4.44515000E+00	 3.68912000E+00	 1.91401000E+02	-1.10718000E+00	 1.23701000E+01	 5.84212000E-01	 1.88568728E+02	 2.27499975E+00	 5.04621000E+00	 1.92214060E+02
		 4.22392000E+00	-7.93324000E+00	 2.11278000E+02	-2.61799000E+00	 4.28068000E+00	-1.03131000E+00	 2.13576926E+02	-8.54534346E+00	 4.74680893E+00	 2.11367215E+02
		-9.71100000E+00	 5.97274000E+00	 2.33870000E+02	 4.04014000E+00	 1.66585000E+01	-2.70573000E+00	 2.38035439E+02	-1.08764134E+01	 5.90326664E+00	 2.35104887E+02
		 5.56950000E+00	 1.02780000E+01	 3.59931000E+02	 4.82924000E-01	-8.93762000E+00	 4.58701000E+00	 3.52461624E+02	 5.43259626E+00	 1.01276236E+01	 3.60218280E+02
		 4.53661000E+00	-9.97007000E+00	 1.29998000E+02	-3.46313000E+00	-2.12410000E+01	 6.86223000E+00	 1.38931001E+02	-1.34542500E+01	 4.45561818E+00	 1.33563172E+02
		-1.52193000E+01	-5.88121000E-01	-1.91520000E+02	 2.64505000E+00	 1.65979000E+01	 5.25240000E+00	 1.86562907E+02	-1.93093032E+02	-1.56554637E+01	 1.42107455E+00
		-7.41137000E+01	-3.42360000E+01	-2.48925000E+02	 1.92541000E+01	-1.39090000E+01	-4.52084000E+01	 2.16666182E+02	-2.60283652E+02	-7.48901142E+01	-2.21009338E+01
		 3.72501000E+01	 2.07011000E+00	 2.01883000E+02	-1.00089000E+01	 3.06754000E+01	 8.68657000E+00	 1.93605918E+02	-5.47857889E+00	 3.98967120E+01	 2.06785077E+02
		 4.70492000E+00	-4.30908000E+00	-6.09107000E+02	-1.74913000E+01	-1.08943000E+02	 3.20884000E+01	 6.41035092E+02	-6.29424151E+02	-1.27859107E+01	 3.34989022E+01
		 2.35718000E+01	 5.22396000E+01	-1.20292000E+03	 2.72917000E+00	-2.20034000E+02	 3.10664000E+01	 1.29939501E+03	-1.24113904E+03	 2.42385994E+01	 8.97918378E+01
		-5.56665000E+01	-7.39508000E+01	-1.40086000E+03	 3.93631000E+01	-1.21219000E+01	-1.95601000E+00	 1.33805254E+03	-1.40097263E+03	-1.05166640E+02	-2.43380342E+01
		 1.32530000E+01	 4.08772000E+01	-1.06292000E+03	-3.18272000E+00	 1.75090000E+02	-5.36870000E+01	 1.13546758E+03	-1.09252723E+03	 1.33937300E+01	 7.03437005E+01
		 2.11763000E+01	 2.98367000E+01	-4.81639000E+02	-1.85837000E+01	 7.66697000E+01	-1.12946000E+01	 5.25648461E+02	-4.93024458E+02	 8.86964381E+00	 5.35288138E+01
		-1.35944000E+01	-3.45499000E+01	-1.98379000E+02	 1.24307000E+01	-2.40003000E+01	-3.54003000E+00	 1.81497750E+02	-2.01838707E+02	-3.78608019E+01	-6.82379144E+00
		-9.50380000E+00	-3.13701000E+00	-2.45262000E+02	 6.91696000E+00	-2.40821000E+01	-4.76005000E-01	 2.42914683E+02	-2.47634178E+02	-1.33269956E+01	 3.05836380E+00
		 5.53586000E+00	 4.12273000E+00	-2.17559000E+02	-4.87504000E+00	 7.06528000E+00	 4.12921000E-01	 2.22889245E+02	-2.17785396E+02	 4.68098045E-02	 9.83817601E+00
		 4.17957000E+00	 3.36454000E+00	-1.86943000E+02	-2.18387000E+00	-2.41892000E+00	-1.33965000E+00	 1.90813982E+02	-1.86983522E+02	 1.58962327E+00	 5.99500848E+00
		-3.29082000E+00	-4.87767000E+00	-1.62622000E+02	 1.27130000E+00	-6.80064000E+00	-2.47603000E-01	 1.58996500E+02	-1.62914878E+02	-5.37281864E+00	-2.50279384E+00
		-8.50182000E-01	 4.89268000E-02	-1.34163000E+02	 8.47882000E-01	-4.31252000E+00	-6.56878000E-01	 1.33985907E+02	-1.34304396E+02	-1.34081704E+00	 6.80957600E-01
		-1.40112000E-02	 1.44442000E+00	-1.07108000E+02	 1.82804000E-01	-3.22110000E+00	-7.82139000E-01	 1.07983798E+02	-1.07209119E+02	-3.53008166E-02	 1.56682909E+00
		 9.44256000E-01	-9.10950000E-01	-8.08238000E+01	-1.06641000E+00	 5.45527000E-01	-3.38960000E-01	 8.08851615E+01	-8.08288694E+01	-1.39514632E+00	 1.43352170E+00
		 1.40404000E+00	-7.55401000E+00	-5.36157000E+01	-3.54952000E+00	-1.65686000E-01	-4.53017000E-01	 5.15077098E+01	-5.36202585E+01	-8.78786350E+00	 2.64245200E+00
		-2.95217000E+00	 8.60802000E+00	-2.72343000E+01	 4.34924000E+00	 8.94408000E-01	-2.60670000E+00	 3.29165321E+01	-2.75622702E+01	-4.07774689E+00	 1.00615671E+01
		 4.70492000E+00	-4.30908000E+00	-6.09107000E+02	 1.74913000E+01	-1.08943000E+02	-3.20884000E+01	 6.41035092E+02	-6.29424151E+02	-1.27859107E+01	 3.34989022E+01
		 2.35718000E+01	 5.22396000E+01	-1.20292000E+03	-2.72917000E+00	-2.20034000E+02	-3.10664000E+01	 1.29939501E+03	-1.24113904E+03	 2.42385994E+01	 8.97918378E+01
		-5.56665000E+01	-7.39508000E+01	-1.40086000E+03	-3.93631000E+01	-1.21219000E+01	 1.95601000E+00	 1.33805254E+03	-1.40097263E+03	-1.05166640E+02	-2.43380342E+01
		 1.32530000E+01	 4.08772000E+01	-1.06292000E+03	 3.18272000E+00	 1.75090000E+02	 5.36870000E+01	 1.13546758E+03	-1.09252723E+03	 1.33937300E+01	 7.03437005E+01
		 2.11763000E+01	 2.98367000E+01	-4.81639000E+02	 1.85837000E+01	 7.66697000E+01	 1.12946000E+01	 5.25648461E+02	-4.93024458E+02	 8.86964381E+00	 5.35288138E+01
		-1.35944000E+01	-3.45499000E+01	-1.98379000E+02	-1.24307000E+01	-2.40003000E+01	 3.54003000E+00	 1.81497750E+02	-2.01838707E+02	-3.78608019E+01	-6.82379144E+00
		-9.50380000E+00	-3.13701000E+00	-2.45262000E+02	-6.91696000E+00	-2.40821000E+01	 4.76005000E-01	 2.42914683E+02	-2.47634178E+02	-1.33269956E+01	 3.05836380E+00
		 5.53586000E+00	 4.12273000E+00	-2.17559000E+02	 4.87504000E+00	 7.06528000E+00	-4.12921000E-01	 2.22889245E+02	-2.17785396E+02	 4.68098045E-02	 9.83817601E+00
		 4.17957000E+00	 3.36454000E+00	-1.86943000E+02	 2.18387000E+00	-2.41892000E+00	 1.33965000E+00	 1.90813982E+02	-1.86983522E+02	 1.58962327E+00	 5.99500848E+00
		-3.29082000E+00	-4.87767000E+00	-1.62622000E+02	-1.27130000E+00	-6.80064000E+00	 2.47603000E-01	 1.58996500E+02	-1.62914878E+02	-5.37281864E+00	-2.50279384E+00
		-8.50182000E-01	 4.89268000E-02	-1.34163000E+02	-8.47882000E-01	-4.31252000E+00	 6.56878000E-01	 1.33985907E+02	-1.34304396E+02	-1.34081704E+00	 6.80957600E-01
		-1.40112000E-02	 1.44442000E+00	-1.07108000E+02	-1.82804000E-01	-3.22110000E+00	 7.82139000E-01	 1.07983798E+02	-1.07209119E+02	-3.53008166E-02	 1.56682909E+00
		 9.44256000E-01	-9.10950000E-01	-8.08238000E+01	 1.06641000E+00	 5.45527000E-01	 3.38960000E-01	 8.08851615E+01	-8.08288694E+01	-1.39514632E+00	 1.43352170E+00
		 1.40404000E+00	-7.55401000E+00	-5.36157000E+01	 3.54952000E+00	-1.65686000E-01	 4.53017000E-01	 5.15077098E+01	-5.36202585E+01	-8.78786350E+00	 2.64245200E+00
		-2.95217000E+00	 8.60802000E+00	-2.72343000E+01	-4.34924000E+00	 8.94408000E-01	 2.60670000E+00	 3.29165321E+01	-2.75622702E+01	-4.07774689E+00	 1.00615671E+01