<?xml version="1.0"?>
<VTKFile type="UnstructuredGrid" version="0.1" byte_order="LittleEndian">
	<UnstructuredGrid>
		<Piece NumberOfPoints="258" NumberOfCells="30">
			<Points>
				<DataArray type="Float64" NumberOfComponents="3" format="ascii">
					 0.00000000E+00	 0.00000000E+00	 0.00000000E+00
					 1.00000000E+00	 0.00000000E+00	 0.00000000E+00
					 1.00000000E+00	 1.00000000E+00	 0.00000000E+00
					 0.00000000E+00	 1.00000000E+00	 0.00000000E+00
					 0.00000000E+00	 0.00000000E+00	 8.00000000E+00
					 1.00000000E+00	 0.00000000E+00	 8.00000000E+00
					 1.00000000E+00	 1.00000000E+00	 8.00000000E+00
					 0.00000000E+00	 1.00000000E+00	 8.00000000E+00
					 2.50000000E-01	 0.00000000E+00	 0.00000000E+00
					 5.00000000E-01	 0.00000000E+00	 0.00000000E+00
					 7.50000000E-01	 0.00000000E+00	 0.00000000E+00
					 1.00000000E+00	 2.50000000E-01	 0.00000000E+00
					 1.00000000E+00	 5.00000000E-01	 0.00000000E+00
					 1.00000000E+00	 7.50000000E-01	 0.00000000E+00
					 7.50000000E-01	 1.00000000E+00	 0.00000000E+00
					 5.00000000E-01	 1.00000000E+00	 0.00000000E+00
					 2.50000000E-01	 1.00000000E+00	 0.00000000E+00
					 0.00000000E+00	 7.50000000E-01	 0.00000000E+00
					 0.00000000E+00	 5.00000000E-01	 0.00000000E+00
					 0.00000000E+00	 2.50000000E-01	 0.00000000E+00
					 2.50000000E-01	 0.00000000E+00	 8.00000000E+00
					 5.00000000E-01	 0.00000000E+00	 8.00000000E+00
					 7.50000000E-01	 0.00000000E+00	 8.00000000E+00
					 1.00000000E+00	 2.50000000E-01	 8.00000000E+00
					 1.00000000E+00	 5.00000000E-01	 8.00000000E+00
					 1.00000000E+00	 7.50000000E-01	 8.00000000E+00
					 7.50000000E-01	 1.00000000E+00	 8.00000000E+00
					 5.00000000E-01	 1.00000000E+00	 8.00000000E+00
					 2.50000000E-01	 1.00000000E+00	 8.00000000E+00
					 0.00000000E+00	 7.50000000E-01	 8.00000000E+00
					 0.00000000E+00	 5.00000000E-01	 8.00000000E+00
					 0.00000000E+00	 2.50000000E-01	 8.00000000E+00
					 1.00000000E+00	 0.00000000E+00	 5.00000000E-01
					 1.00000000E+00	 0.00000000E+00	 1.00000000E+00
					 1.00000000E+00	 0.00000000E+00	 2.00000000E+00
					 1.00000000E+00	 0.00000000E+00	 2.50000000E+00
					 1.00000000E+00	 0.00000000E+00	 3.00000000E+00
					 1.00000000E+00	 0.00000000E+00	 3.50000000E+00
					 1.00000000E+00	 0.00000000E+00	 4.00000000E+00
					 1.00000000E+00	 0.00000000E+00	 4.50000000E+00
					 1.00000000E+00	 0.00000000E+00	 5.00000000E+00
					 1.00000000E+00	 0.00000000E+00	 5.50000000E+00
					 1.00000000E+00	 0.00000000E+00	 6.00000000E+00
					 1.00000000E+00	 0.00000000E+00	 6.50000000E+00
					 1.00000000E+00	 0.00000000E+00	 7.00000000E+00
					 1.00000000E+00	 0.00000000E+00	 7.50000000E+00
					 0.00000000E+00	 0.00000000E+00	 7.50000000E+00
					 0.00000000E+00	 0.00000000E+00	 7.00000000E+00
					 0.00000000E+00	 0.00000000E+00	 6.50000000E+00
					 0.00000000E+00	 0.00000000E+00	 6.00000000E+00
					 0.00000000E+00	 0.00000000E+00	 5.50000000E+00
					 0.00000000E+00	 0.00000000E+00	 5.00000000E+00
					 0.00000000E+00	 0.00000000E+00	 4.50000000E+00
					 0.00000000E+00	 0.00000000E+00	 4.00000000E+00
					 0.00000000E+00	 0.00000000E+00	 3.50000000E+00
					 0.00000000E+00	 0.00000000E+00	 3.00000000E+00
					 0.00000000E+00	 0.00000000E+00	 2.50000000E+00
					 0.00000000E+00	 0.00000000E+00	 2.00000000E+00
					 0.00000000E+00	 0.00000000E+00	 1.00000000E+00
					 0.00000000E+00	 0.00000000E+00	 5.00000000E-01
					 1.00000000E+00	 1.00000000E+00	 5.00000000E-01
					 1.00000000E+00	 1.00000000E+00	 1.00000000E+00
					 1.00000000E+00	 1.00000000E+00	 1.50000000E+00
					 1.00000000E+00	 1.00000000E+00	 2.00000000E+00
					 1.00000000E+00	 1.00000000E+00	 2.50000000E+00
					 1.00000000E+00	 1.00000000E+00	 3.00000000E+00
					 1.00000000E+00	 1.00000000E+00	 3.50000000E+00
					 1.00000000E+00	 1.00000000E+00	 4.00000000E+00
					 1.00000000E+00	 1.00000000E+00	 4.50000000E+00
					 1.00000000E+00	 1.00000000E+00	 5.00000000E+00
					 1.00000000E+00	 1.00000000E+00	 5.50000000E+00
					 1.00000000E+00	 1.00000000E+00	 6.00000000E+00
					 1.00000000E+00	 1.00000000E+00	 6.50000000E+00
					 1.00000000E+00	 1.00000000E+00	 7.00000000E+00
					 1.00000000E+00	 1.00000000E+00	 7.50000000E+00
					 0.00000000E+00	 1.00000000E+00	 5.00000000E-01
					 0.00000000E+00	 1.00000000E+00	 1.00000000E+00
					 0.00000000E+00	 1.00000000E+00	 1.50000000E+00
					 0.00000000E+00	 1.00000000E+00	 2.00000000E+00
					 0.00000000E+00	 1.00000000E+00	 2.50000000E+00
					 0.00000000E+00	 1.00000000E+00	 3.00000000E+00
					 0.00000000E+00	 1.00000000E+00	 3.50000000E+00
					 0.00000000E+00	 1.00000000E+00	 4.00000000E+00
					 0.00000000E+00	 1.00000000E+00	 4.50000000E+00
					 0.00000000E+00	 1.00000000E+00	 5.00000000E+00
					 0.00000000E+00	 1.00000000E+00	 5.50000000E+00
					 0.00000000E+00	 1.00000000E+00	 6.00000000E+00
					 0.00000000E+00	 1.00000000E+00	 6.50000000E+00
					 0.00000000E+00	 1.00000000E+00	 7.00000000E+00
					 0.00000000E+00	 1.00000000E+00	 7.50000000E+00
					 5.00000000E-01	 2.50000000E-01	 0.00000000E+00
					 2.50000000E-01	 5.00000000E-01	 0.00000000E+00
					 5.00000000E-01	 5.00000000E-01	 0.00000000E+00
					 7.50000000E-01	 5.00000000E-01	 0.00000000E+00
					 5.00000000E-01	 7.50000000E-01	 0.00000000E+00
					 5.00000000E-01	 2.50000000E-01	 8.00000000E+00
					 2.50000000E-01	 5.00000000E-01	 8.00000000E+00
					 5.00000000E-01	 5.00000000E-01	 8.00000000E+00
					 7.50000000E-01	 5.00000000E-01	 8.00000000E+00
					 5.00000000E-01	 7.50000000E-01	 8.00000000E+00
					 5.00000000E-01	 0.00000000E+00	 5.00000000E-01
					 2.50000000E-01	 0.00000000E+00	 1.00000000E+00
					 5.00000000E-01	 0.00000000E+00	 1.00000000E+00
					 7.50000000E-01	 0.00000000E+00	 1.00000000E+00
					 2.50000000E-01	 0.00000000E+00	 2.00000000E+00
					 5.00000000E-01	 0.00000000E+00	 2.00000000E+00
					 7.50000000E-01	 0.00000000E+00	 2.00000000E+00
					 5.00000000E-01	 0.00000000E+00	 2.50000000E+00
					 2.50000000E-01	 0.00000000E+00	 3.00000000E+00
					 5.00000000E-01	 0.00000000E+00	 3.00000000E+00
					 7.50000000E-01	 0.00000000E+00	 3.00000000E+00
					 5.00000000E-01	 0.00000000E+00	 3.50000000E+00
					 2.50000000E-01	 0.00000000E+00	 4.00000000E+00
					 5.00000000E-01	 0.00000000E+00	 4.00000000E+00
					 7.50000000E-01	 0.00000000E+00	 4.00000000E+00
					 5.00000000E-01	 0.00000000E+00	 4.50000000E+00
					 2.50000000E-01	 0.00000000E+00	 5.00000000E+00
					 5.00000000E-01	 0.00000000E+00	 5.00000000E+00
					 7.50000000E-01	 0.00000000E+00	 5.00000000E+00
					 5.00000000E-01	 0.00000000E+00	 5.50000000E+00
					 2.50000000E-01	 0.00000000E+00	 6.00000000E+00
					 5.00000000E-01	 0.00000000E+00	 6.00000000E+00
					 7.50000000E-01	 0.00000000E+00	 6.00000000E+00
					 5.00000000E-01	 0.00000000E+00	 6.50000000E+00
					 2.50000000E-01	 0.00000000E+00	 7.00000000E+00
					 5.00000000E-01	 0.00000000E+00	 7.00000000E+00
					 7.50000000E-01	 0.00000000E+00	 7.00000000E+00
					 5.00000000E-01	 0.00000000E+00	 7.50000000E+00
					 1.00000000E+00	 5.00000000E-01	 5.00000000E-01
					 1.00000000E+00	 2.50000000E-01	 1.00000000E+00
					 1.00000000E+00	 5.00000000E-01	 1.00000000E+00
					 1.00000000E+00	 7.50000000E-01	 1.00000000E+00
					 1.00000000E+00	 5.00000000E-01	 1.50000000E+00
					 1.00000000E+00	 2.50000000E-01	 2.00000000E+00
					 1.00000000E+00	 5.00000000E-01	 2.00000000E+00
					 1.00000000E+00	 7.50000000E-01	 2.00000000E+00
					 1.00000000E+00	 5.00000000E-01	 2.50000000E+00
					 1.00000000E+00	 2.50000000E-01	 3.00000000E+00
					 1.00000000E+00	 5.00000000E-01	 3.00000000E+00
					 1.00000000E+00	 7.50000000E-01	 3.00000000E+00
					 1.00000000E+00	 5.00000000E-01	 3.50000000E+00
					 1.00000000E+00	 2.50000000E-01	 4.00000000E+00
					 1.00000000E+00	 5.00000000E-01	 4.00000000E+00
					 1.00000000E+00	 7.50000000E-01	 4.00000000E+00
					 1.00000000E+00	 5.00000000E-01	 4.50000000E+00
					 1.00000000E+00	 2.50000000E-01	 5.00000000E+00
					 1.00000000E+00	 5.00000000E-01	 5.00000000E+00
					 1.00000000E+00	 7.50000000E-01	 5.00000000E+00
					 1.00000000E+00	 5.00000000E-01	 5.50000000E+00
					 1.00000000E+00	 2.50000000E-01	 6.00000000E+00
					 1.00000000E+00	 5.00000000E-01	 6.00000000E+00
					 1.00000000E+00	 7.50000000E-01	 6.00000000E+00
					 1.00000000E+00	 5.00000000E-01	 6.50000000E+00
					 1.00000000E+00	 2.50000000E-01	 7.00000000E+00
					 1.00000000E+00	 5.00000000E-01	 7.00000000E+00
					 1.00000000E+00	 7.50000000E-01	 7.00000000E+00
					 1.00000000E+00	 5.00000000E-01	 7.50000000E+00
					 5.00000000E-01	 1.00000000E+00	 5.00000000E-01
					 7.50000000E-01	 1.00000000E+00	 1.00000000E+00
					 5.00000000E-01	 1.00000000E+00	 1.00000000E+00
					 2.50000000E-01	 1.00000000E+00	 1.00000000E+00
					 5.00000000E-01	 1.00000000E+00	 1.50000000E+00
					 7.50000000E-01	 1.00000000E+00	 2.00000000E+00
					 5.00000000E-01	 1.00000000E+00	 2.00000000E+00
					 2.50000000E-01	 1.00000000E+00	 2.00000000E+00
					 5.00000000E-01	 1.00000000E+00	 2.50000000E+00
					 7.50000000E-01	 1.00000000E+00	 3.00000000E+00
					 5.00000000E-01	 1.00000000E+00	 3.00000000E+00
					 2.50000000E-01	 1.00000000E+00	 3.00000000E+00
					 5.00000000E-01	 1.00000000E+00	 3.50000000E+00
					 7.50000000E-01	 1.00000000E+00	 4.00000000E+00
					 5.00000000E-01	 1.00000000E+00	 4.00000000E+00
					 2.50000000E-01	 1.00000000E+00	 4.00000000E+00
					 5.00000000E-01	 1.00000000E+00	 4.50000000E+00
					 7.50000000E-01	 1.00000000E+00	 5.00000000E+00
					 5.00000000E-01	 1.00000000E+00	 5.00000000E+00
					 2.50000000E-01	 1.00000000E+00	 5.00000000E+00
					 5.00000000E-01	 1.00000000E+00	 5.50000000E+00
					 7.50000000E-01	 1.00000000E+00	 6.00000000E+00
					 5.00000000E-01	 1.00000000E+00	 6.00000000E+00
					 2.50000000E-01	 1.00000000E+00	 6.00000000E+00
					 5.00000000E-01	 1.00000000E+00	 6.50000000E+00
					 7.50000000E-01	 1.00000000E+00	 7.00000000E+00
					 5.00000000E-01	 1.00000000E+00	 7.00000000E+00
					 2.50000000E-01	 1.00000000E+00	 7.00000000E+00
					 5.00000000E-01	 1.00000000E+00	 7.50000000E+00
					 0.00000000E+00	 5.00000000E-01	 5.00000000E-01
					 0.00000000E+00	 7.50000000E-01	 1.00000000E+00
					 0.00000000E+00	 5.00000000E-01	 1.00000000E+00
					 0.00000000E+00	 2.50000000E-01	 1.00000000E+00
					 0.00000000E+00	 5.00000000E-01	 1.50000000E+00
					 0.00000000E+00	 7.50000000E-01	 2.00000000E+00
					 0.00000000E+00	 5.00000000E-01	 2.00000000E+00
					 0.00000000E+00	 2.50000000E-01	 2.00000000E+00
					 0.00000000E+00	 5.00000000E-01	 2.50000000E+00
					 0.00000000E+00	 7.50000000E-01	 3.00000000E+00
					 0.00000000E+00	 5.00000000E-01	 3.00000000E+00
					 0.00000000E+00	 2.50000000E-01	 3.00000000E+00
					 0.00000000E+00	 5.00000000E-01	 3.50000000E+00
					 0.00000000E+00	 7.50000000E-01	 4.00000000E+00
					 0.00000000E+00	 5.00000000E-01	 4.00000000E+00
					 0.00000000E+00	 2.50000000E-01	 4.00000000E+00
					 0.00000000E+00	 5.00000000E-01	 4.50000000E+00
					 0.00000000E+00	 7.50000000E-01	 5.00000000E+00
					 0.00000000E+00	 5.00000000E-01	 5.00000000E+00
					 0.00000000E+00	 2.50000000E-01	 5.00000000E+00
					 0.00000000E+00	 5.00000000E-01	 5.50000000E+00
					 0.00000000E+00	 7.50000000E-01	 6.00000000E+00
					 0.00000000E+00	 5.00000000E-01	 6.00000000E+00
					 0.00000000E+00	 2.50000000E-01	 6.00000000E+00
					 0.00000000E+00	 5.00000000E-01	 6.50000000E+00
					 0.00000000E+00	 7.50000000E-01	 7.00000000E+00
					 0.00000000E+00	 5.00000000E-01	 7.00000000E+00
					 0.00000000E+00	 2.50000000E-01	 7.00000000E+00
					 0.00000000E+00	 5.00000000E-01	 7.50000000E+00
					 5.00000000E-01	 5.00000000E-01	 5.00000000E-01
					 5.00000000E-01	 2.50000000E-01	 1.00000000E+00
					 2.50000000E-01	 5.00000000E-01	 1.00000000E+00
					 5.00000000E-01	 5.00000000E-01	 1.00000000E+00
					 7.50000000E-01	 5.00000000E-01	 1.00000000E+00
					 5.00000000E-01	 7.50000000E-01	 1.00000000E+00
					 5.00000000E-01	 5.00000000E-01	 1.50000000E+00
					 5.00000000E-01	 2.50000000E-01	 2.00000000E+00
					 2.50000000E-01	 5.00000000E-01	 2.00000000E+00
					 5.00000000E-01	 5.00000000E-01	 2.00000000E+00
					 7.50000000E-01	 5.00000000E-01	 2.00000000E+00
					 5.00000000E-01	 7.50000000E-01	 2.00000000E+00
					 5.00000000E-01	 5.00000000E-01	 2.50000000E+00
					 5.00000000E-01	 2.50000000E-01	 3.00000000E+00
					 2.50000000E-01	 5.00000000E-01	 3.00000000E+00
					 5.00000000E-01	 5.00000000E-01	 3.00000000E+00
					 7.50000000E-01	 5.00000000E-01	 3.00000000E+00
					 5.00000000E-01	 7.50000000E-01	 3.00000000E+00
					 5.00000000E-01	 5.00000000E-01	 3.50000000E+00
					 5.00000000E-01	 2.50000000E-01	 4.00000000E+00
					 2.50000000E-01	 5.00000000E-01	 4.00000000E+00
					 5.00000000E-01	 5.00000000E-01	 4.00000000E+00
					 7.50000000E-01	 5.00000000E-01	 4.00000000E+00
					 5.00000000E-01	 7.50000000E-01	 4.00000000E+00
					 5.00000000E-01	 5.00000000E-01	 4.50000000E+00
					 5.00000000E-01	 2.50000000E-01	 5.00000000E+00
					 2.50000000E-01	 5.00000000E-01	 5.00000000E+00
					 5.00000000E-01	 5.00000000E-01	 5.00000000E+00
					 7.50000000E-01	 5.00000000E-01	 5.00000000E+00
					 5.00000000E-01	 7.50000000E-01	 5.00000000E+00
					 5.00000000E-01	 5.00000000E-01	 5.50000000E+00
					 5.00000000E-01	 2.50000000E-01	 6.00000000E+00
					 2.50000000E-01	 5.00000000E-01	 6.00000000E+00
					 5.00000000E-01	 5.00000000E-01	 6.00000000E+00
					 7.50000000E-01	 5.00000000E-01	 6.00000000E+00
					 5.00000000E-01	 7.50000000E-01	 6.00000000E+00
					 5.00000000E-01	 5.00000000E-01	 6.50000000E+00
					 5.00000000E-01	 2.50000000E-01	 7.00000000E+00
					 2.50000000E-01	 5.00000000E-01	 7.00000000E+00
					 5.00000000E-01	 5.00000000E-01	 7.00000000E+00
					 7.50000000E-01	 5.00000000E-01	 7.00000000E+00
					 5.00000000E-01	 7.50000000E-01	 7.00000000E+00
					 5.00000000E-01	 5.00000000E-01	 7.50000000E+00

				</DataArray>
			</Points>
			<Cells>
				<DataArray type="Int32" Name="connectivity" format="ascii">
					0 9 92 18 58 102 218 188 8 90 91 19 101 216 217 189 59 100 215 186 9 1 12 92 102 33 130 218 10 11 93 90 103 129 219 216 100 32 128 215 18 92 15 3 188 218 159 76 91 94 16 17 217 220 160 187 186 215 157 75 92 12 2 15 218 130 61 159 93 13 14 94 219 131 158 220 215 128 60 157 188 218 159 76 192 224 163 78 217 220 160 187 223 226 164 191 190 221 161 77 218 130 61 159 224 134 63 163 219 131 158 220 225 135 162 226 221 132 62 161 57 105 224 192 55 109 230 196 104 222 223 193 108 228 229 197 56 107 227 194 105 34 134 224 109 36 138 230 106 133 225 222 110 137 231 228 107 35 136 227 192 224 163 78 196 230 167 80 223 226 164 191 229 232 168 195 194 227 165 79 224 134 63 163 230 138 65 167 225 135 162 226 231 139 166 232 227 136 64 165 55 109 230 196 53 113 236 200 108 228 229 197 112 234 235 201 54 111 233 198 109 36 138 230 113 38 142 236 110 137 231 228 114 141 237 234 111 37 140 233 196 230 167 80 200 236 171 82 229 232 168 195 235 238 172 199 198 233 169 81 230 138 65 167 236 142 67 171 231 139 166 232 237 143 170 238 233 140 66 169 53 113 236 200 51 117 242 204 112 234 235 201 116 240 241 205 52 115 239 202 113 38 142 236 117 40 146 242 114 141 237 234 118 145 243 240 115 39 144 239 200 236 171 82 204 242 175 84 235 238 172 199 241 244 176 203 202 239 173 83 236 142 67 171 242 146 69 175 237 143 170 238 243 147 174 244 239 144 68 173 51 117 242 204 49 121 248 208 116 240 241 205 120 246 247 209 50 119 245 206 117 40 146 242 121 42 150 248 118 145 243 240 122 149 249 246 119 41 148 245 204 242 175 84 208 248 179 86 241 244 176 203 247 250 180 207 206 245 177 85 242 146 69 175 248 150 71 179 243 147 174 244 249 151 178 250 245 148 70 177 49 121 248 208 47 125 254 212 120 246 247 209 124 252 253 213 48 123 251 210 121 42 150 248 125 44 154 254 122 149 249 246 126 153 255 252 123 43 152 251 208 248 179 86 212 254 183 88 247 250 180 207 253 256 184 211 210 251 181 87 248 150 71 179 254 154 73 183 249 151 178 250 255 155 182 256 251 152 72 181 47 125 254 212 4 21 97 30 124 252 253 213 20 95 96 31 46 127 257 214 125 44 154 254 21 5 24 97 126 153 255 252 22 23 98 95 127 45 156 257 212 254 183 88 30 97 27 7 253 256 184 211 96 99 28 29 214 257 185 89 254 154 73 183 97 24 6 27 255 155 182 256 98 25 26 99 257 156 74 185 
				</DataArray>
				<DataArray type="Int32" Name="offsets" format="ascii">
					20 40 60 80 100 120 140 160 180 200 220 240 260 280 300 320 340 360 380 400 420 440 460 480 500 520 540 560 580 600 
				</DataArray>
				<DataArray type="UInt8" Name="types" format="ascii">
					25 25 25 25 25 25 25 25 25 25 25 25 25 25 25 25 25 25 25 25 25 25 25 25 25 25 25 25 25 25 
				</DataArray>
			</Cells>
			<PointData>
				<DataArray type="Float32" Name="S" NumberOfComponents="10" ComponentName0="xx" ComponentName1="yy" ComponentName2="zz" ComponentName3="xy" ComponentName4="yz" ComponentName5="zx" ComponentName6="Mises" ComponentName7="Min Principal" ComponentName8="Mid Principal" ComponentName9="Max Principal" format="ascii">
					 1.23906000E+02	 1.32122000E+02	 4.64820000E+02	-1.39415000E+01	 1.88891000E+01	 7.75502000E+01	 3.64944516E+02	 9.78573203E+01	 1.40670579E+02	 4.82320100E+02
					 1.23906000E+02	 1.32122000E+02	 4.64820000E+02	 1.39415000E+01	 1.88891000E+01	-7.75502000E+01	 3.64944516E+02	 9.78573203E+01	 1.40670579E+02	 4.82320100E+02
					-1.23899000E+02	-1.32375000E+02	-4.62877000E+02	 1.41580000E+01	 1.86932000E+01	 7.70660000E+01	 3.62728423E+02	-4.80247268E+02	-1.41043429E+02	-9.78603028E+01
					-1.23899000E+02	-1.32375000E+02	-4.62877000E+02	-1.41580000E+01	 1.86932000E+01	-7.70660000E+01	 3.62728423E+02	-4.80247268E+02	-1.41043429E+02	-9.78603028E+01
					 6.18950000E+00	-3.05374000E+01	 3.62557000E+00	-1.44229000E+01	 1.02752000E+01	-3.61078000E+00	 4.73411687E+01	-3.73427030E+01	 1.07601004E+00	 1.55443630E+01
					 6.18950000E+00	-3.05374000E+01	 3.62557000E+00	 1.44229000E+01	 1.02752000E+01	 3.61078000E+00	 4.73411687E+01	-3.73427030E+01	 1.07601004E+00	 1.55443630E+01
					-6.32660000E+00	 3.10667000E+01	-3.12302000E+00	 1.42556000E+01	 9.66012000E+00	-3.56614000E+00	 4.70797366E+01	-1.50612223E+01	-8.17367695E-01	 3.74956700E+01
					-6.32660000E+00	 3.10667000E+01	-3.12302000E+00	-1.42556000E+01	 9.66012000E+00	 3.56614000E+00	 4.70797366E+01	-1.50612223E+01	-8.17367695E-01	 3.74956700E+01
					 1.16154000E+02	 1.24939000E+02	 4.46222000E+02	-3.43624000E+00	 3.70462000E+01	 3.66243000E+01	 3.38081525E+02	 1.07913270E+02	 1.25128299E+02	 4.54273430E+02
					 1.08403000E+02	 1.17756000E+02	 4.27624000E+02	 0.00000000E+00	 5.52033000E+01	 0.00000000E+00	 3.28855689E+02	 1.08215234E+02	 1.08403000E+02	 4.37164766E+02
					 1.16154000E+02	 1.24939000E+02	 4.46222000E+02	 3.43624000E+00	 3.70462000E+01	-3.66243000E+01	 3.38081525E+02	 1.07913270E+02	 1.25128299E+02	 4.54273430E+02
					 4.88323000E+01	 3.59159000E+01	 2.18581000E+02	 1.37547000E+01	-9.19641000E+00	-3.87024000E+01	 1.91020735E+02	 2.60365154E+01	 4.95622098E+01	 2.27730475E+02
					-1.47280000E-01	-2.90867000E-01	-6.70141000E-01	 1.35747000E+01	-3.72506000E+01	 2.01165000E-01	 6.86729886E+01	-4.01621416E+01	-7.91478430E-02	 3.91330014E+01
					-4.89763000E+01	-3.63333000E+01	-2.18280000E+02	 1.38697000E+01	-9.26305000E+00	 3.86615000E+01	 1.90480308E+02	-2.27447031E+02	-4.98974446E+01	-2.62451241E+01
					-1.16214000E+02	-1.25072000E+02	-4.44504000E+02	 3.53718000E+00	 3.66983000E+01	 3.63840000E+01	 3.36145820E+02	-4.52469524E+02	-1.25342326E+02	-1.07978150E+02
					-1.08529000E+02	-1.17769000E+02	-4.26131000E+02	 0.00000000E+00	 5.47035000E+01	 0.00000000E+00	 3.27107298E+02	-4.35547841E+02	-1.08529000E+02	-1.08352159E+02
					-1.16214000E+02	-1.25072000E+02	-4.44504000E+02	-3.53718000E+00	 3.66983000E+01	-3.63840000E+01	 3.36145820E+02	-4.52469524E+02	-1.25342326E+02	-1.07978150E+02
					-4.89763000E+01	-3.63333000E+01	-2.18280000E+02	-1.38697000E+01	-9.26305000E+00	-3.86615000E+01	 1.90480308E+02	-2.27447031E+02	-4.98974446E+01	-2.62451241E+01
					-1.47280000E-01	-2.90867000E-01	-6.70141000E-01	-1.35747000E+01	-3.72506000E+01	-2.01165000E-01	 6.86729886E+01	-4.01621416E+01	-7.91478430E-02	 3.91330014E+01
					 4.88323000E+01	 3.59159000E+01	 2.18581000E+02	-1.37547000E+01	-9.19641000E+00	 3.87024000E+01	 1.91020735E+02	 2.60365154E+01	 4.95622098E+01	 2.27730475E+02
					 7.52853000E+00	-1.47279000E+01	 1.84692000E+00	 1.11149000E+00	 4.83097000E+00	-3.73373000E+00	 2.27314820E+01	-1.62139541E+01	 1.42130614E+00	 9.44019799E+00
					 8.86756000E+00	 1.08152000E+00	 6.82631000E-02	 0.00000000E+00	-6.13313000E-01	 0.00000000E+00	 8.40635627E+00	-2.20611575E-01	 1.37039468E+00	 8.86756000E+00
					 7.52853000E+00	-1.47279000E+01	 1.84692000E+00	-1.11149000E+00	 4.83097000E+00	 3.73373000E+00	 2.27314820E+01	-1.62139541E+01	 1.42130614E+00	 9.44019799E+00
					-5.51142000E-01	-1.50821000E+01	-9.95938000E-01	 1.00738000E+01	 1.45863000E+01	 1.49241000E-01	 3.38773504E+01	-2.70257254E+01	-8.37421802E-01	 1.12339672E+01
					-3.46853000E-02	 5.66023000E-01	-5.92446000E-01	 5.74037000E+00	 1.87679000E+01	-9.68478000E-02	 3.40087179E+01	-1.96513874E+01	-2.82159712E-02	 1.96184951E+01
					 4.47903000E-01	 1.59128000E+01	 6.54769000E-01	 1.00058000E+01	 1.41493000E+01	-2.23767000E-01	 3.37211070E+01	-1.08494537E+01	 7.29310772E-01	 2.71356149E+01
					-7.64549000E+00	 1.49396000E+01	-1.55737000E+00	-1.29262000E+00	 4.53474000E+00	-3.64724000E+00	 2.27214004E+01	-9.37767113E+00	-1.18868847E+00	 1.63030996E+01
					-8.96439000E+00	-1.18759000E+00	 8.27590000E-03	 0.00000000E+00	-5.90637000E-01	 0.00000000E+00	 8.50031056E+00	-8.96439000E+00	-1.43011876E+00	 2.50804656E-01
					-7.64549000E+00	 1.49396000E+01	-1.55737000E+00	 1.29262000E+00	 4.53474000E+00	 3.64724000E+00	 2.27214004E+01	-9.37767113E+00	-1.18868847E+00	 1.63030996E+01
					 4.47903000E-01	 1.59128000E+01	 6.54769000E-01	-1.00058000E+01	 1.41493000E+01	 2.23767000E-01	 3.37211070E+01	-1.08494537E+01	 7.29310772E-01	 2.71356149E+01
					-3.46853000E-02	 5.66023000E-01	-5.92446000E-01	-5.74037000E+00	 1.87679000E+01	 9.68478000E-02	 3.40087179E+01	-1.96513874E+01	-2.82159712E-02	 1.96184951E+01
					-5.51142000E-01	-1.50821000E+01	-9.95938000E-01	-1.00738000E+01	 1.45863000E+01	-1.49241000E-01	 3.38773504E+01	-2.70257254E+01	-8.37421802E-01	 1.12339672E+01
					 3.04246000E+01	 3.69961000E+01	 4.09354000E+02	 7.52171000E+00	 3.45392000E+00	-1.57118000E+01	 3.76943814E+02	 2.49110909E+01	 4.18328167E+01	 4.10030792E+02
					-2.75952000E+01	-3.13957000E+01	 3.67838000E+02	-4.05767000E+00	 3.68583000E+00	 1.74927000E+01	 3.98613644E+02	-3.43819153E+01	-2.54119802E+01	 3.68640996E+02
					-8.94947000E-02	-5.46319000E+00	 3.51513000E+02	-2.80828000E+00	 6.32531000E+00	-1.56937000E+00	 3.54533034E+02	-6.73883221E+00	 1.06665210E+00	 3.51632495E+02
					-1.18368000E+00	 2.76832000E+00	 3.23992000E+02	 2.26970000E+00	 1.83895000E+00	 2.93717000E+00	 3.23297429E+02	-2.22826247E+00	 3.77561237E+00	 3.24029290E+02
					 1.37458000E+00	 2.93555000E+00	 2.98174000E+02	 5.22435000E-01	 5.86729000E+00	 1.14317000E-01	 2.96197857E+02	 1.20676956E+00	 2.98675313E+00	 2.98290607E+02
					-1.25880000E+00	-2.50618000E+00	 2.69840000E+02	-3.34663000E-01	 4.55776000E+00	 1.23205000E+00	 2.71848281E+02	-2.67206970E+00	-1.17470910E+00	 2.69921799E+02
					-7.71581000E-02	-2.20445000E-01	 2.43283000E+02	-1.61844000E-01	 5.81438000E+00	 5.98260000E-01	 2.43642424E+02	-4.44036097E-01	 6.22605410E-03	 2.43423207E+02
					 4.33752000E-02	 1.46033000E-01	 2.16352000E+02	 2.15523000E-01	 4.70409000E+00	 8.22448000E-01	 2.16415757E+02	-1.55622861E-01	 2.39570654E-01	 2.16457460E+02
					 1.81841000E-02	 3.58812000E-01	 1.89234000E+02	-1.94698000E-02	 5.41761000E+00	 5.68439000E-01	 1.89281037E+02	 9.88434025E-03	 2.10141606E-01	 1.89390970E+02
					-2.12195000E-02	 5.03390000E-01	 1.62218000E+02	-2.99177000E-01	 4.65854000E+00	 7.76655000E-01	 1.62184806E+02	-2.04779766E-01	 5.49232244E-01	 1.62355718E+02
					 6.45544000E-02	-5.55863000E-01	 1.35079000E+02	 3.48996000E-01	 4.85682000E+00	 7.27241000E-01	 1.35594133E+02	-8.44654272E-01	 1.75612502E-01	 1.35256733E+02
					 4.80967000E-01	-8.03464000E-01	 1.07862000E+02	 6.39683000E-01	 2.63620000E+00	 9.43117000E-01	 1.08143443E+02	-1.10796094E+00	 7.13000449E-01	 1.07934463E+02
					-6.84540000E-01	 1.41210000E+00	 8.12480000E+01	-8.91794000E-01	 5.39695000E+00	 1.68410000E-01	 8.14580024E+01	-1.06820339E+00	 1.43243668E+00	 8.16113267E+01
					-1.52104000E+00	 7.62245000E+00	 5.38218000E+01	-3.63443000E+00	 3.21219000E+00	 4.87489000E-01	 5.20739985E+01	-2.83089876E+00	 8.70903534E+00	 5.40450734E+01
					 2.96134000E+00	-8.33567000E+00	 2.82622000E+01	 4.46937000E+00	 2.74347000E+00	 2.82645000E+00	 3.40595386E+01	-9.96403999E+00	 3.99453872E+00	 2.88573713E+01
					 2.96134000E+00	-8.33567000E+00	 2.82622000E+01	-4.46937000E+00	 2.74347000E+00	-2.82645000E+00	 3.40595386E+01	-9.96403999E+00	 3.99453872E+00	 2.88573713E+01
					-1.52104000E+00	 7.62245000E+00	 5.38218000E+01	 3.63443000E+00	 3.21219000E+00	-4.87489000E-01	 5.20739985E+01	-2.83089876E+00	 8.70903534E+00	 5.40450734E+01
					-6.84540000E-01	 1.41210000E+00	 8.12480000E+01	 8.91794000E-01	 5.39695000E+00	-1.68410000E-01	 8.14580024E+01	-1.06820339E+00	 1.43243668E+00	 8.16113267E+01
					 4.80967000E-01	-8.03464000E-01	 1.07862000E+02	-6.39683000E-01	 2.63620000E+00	-9.43117000E-01	 1.08143443E+02	-1.10796094E+00	 7.13000449E-01	 1.07934463E+02
					 6.45544000E-02	-5.55863000E-01	 1.35079000E+02	-3.48996000E-01	 4.85682000E+00	-7.27241000E-01	 1.35594133E+02	-8.44654272E-01	 1.75612502E-01	 1.35256733E+02
					-2.12195000E-02	 5.03390000E-01	 1.62218000E+02	 2.99177000E-01	 4.65854000E+00	-7.76655000E-01	 1.62184806E+02	-2.04779766E-01	 5.49232244E-01	 1.62355718E+02
					 1.81841000E-02	 3.58812000E-01	 1.89234000E+02	 1.94698000E-02	 5.41761000E+00	-5.68439000E-01	 1.89281037E+02	 9.88434025E-03	 2.10141606E-01	 1.89390970E+02
					 4.33752000E-02	 1.46033000E-01	 2.16352000E+02	-2.15523000E-01	 4.70409000E+00	-8.22448000E-01	 2.16415757E+02	-1.55622861E-01	 2.39570654E-01	 2.16457460E+02
					-7.71581000E-02	-2.20445000E-01	 2.43283000E+02	 1.61844000E-01	 5.81438000E+00	-5.98260000E-01	 2.43642424E+02	-4.44036097E-01	 6.22605410E-03	 2.43423207E+02
					-1.25880000E+00	-2.50618000E+00	 2.69840000E+02	 3.34663000E-01	 4.55776000E+00	-1.23205000E+00	 2.71848281E+02	-2.67206970E+00	-1.17470910E+00	 2.69921799E+02
					 1.37458000E+00	 2.93555000E+00	 2.98174000E+02	-5.22435000E-01	 5.86729000E+00	-1.14317000E-01	 2.96197857E+02	 1.20676956E+00	 2.98675313E+00	 2.98290607E+02
					-1.18368000E+00	 2.76832000E+00	 3.23992000E+02	-2.26970000E+00	 1.83895000E+00	-2.93717000E+00	 3.23297429E+02	-2.22826247E+00	 3.77561237E+00	 3.24029290E+02
					-8.94947000E-02	-5.46319000E+00	 3.51513000E+02	 2.80828000E+00	 6.32531000E+00	 1.56937000E+00	 3.54533034E+02	-6.73883221E+00	 1.06665210E+00	 3.51632495E+02
					-2.75952000E+01	-3.13957000E+01	 3.67838000E+02	 4.05767000E+00	 3.68583000E+00	-1.74927000E+01	 3.98613644E+02	-3.43819153E+01	-2.54119802E+01	 3.68640996E+02
					 3.04246000E+01	 3.69961000E+01	 4.09354000E+02	-7.52171000E+00	 3.45392000E+00	 1.57118000E+01	 3.76943814E+02	 2.49110909E+01	 4.18328167E+01	 4.10030792E+02
					-3.03668000E+01	-3.72221000E+01	-4.07461000E+02	 7.52877000E+00	 1.95355000E+00	 1.55537000E+01	 3.74925574E+02	-4.08108717E+02	-4.19452746E+01	-2.49959083E+01
					 2.75860000E+01	 3.14436000E+01	-3.66102000E+02	-4.12818000E+00	 8.14097000E-01	-1.73867000E+01	 3.96842310E+02	-3.66869370E+02	 2.54604407E+01	 3.43365290E+01
					 6.40312000E-02	 5.47979000E+00	-3.49901000E+02	-2.82096000E+00	 2.42455000E+00	 1.59706000E+00	 3.52773781E+02	-3.49925005E+02	-1.12161359E+00	 6.68943975E+00
					 1.22361000E+00	-2.85749000E+00	-3.22588000E+02	 2.22737000E+00	-2.90021000E+00	-2.91943000E+00	 3.21892518E+02	-3.22640258E+02	-3.83089862E+00	 2.24927668E+00
					-1.36427000E+00	-2.90190000E+00	-2.97002000E+02	 5.01976000E-01	 7.69406000E-01	-9.90393000E-02	 2.94876265E+02	-2.97004047E+02	-3.04927158E+00	-1.21485150E+00
					 1.26007000E+00	 2.55758000E+00	-2.68830000E+02	-3.64790000E-01	-9.37465000E-01	-1.21191000E+00	 2.70754900E+02	-2.68838687E+02	 1.17189883E+00	 2.65443845E+00
					 7.73235000E-02	 3.07696000E-01	-2.42469000E+02	-1.85244000E-01	 3.88312000E-01	-5.80172000E-01	 2.42664817E+02	-2.42471007E+02	-2.52091533E-02	 4.12236085E-01
					-3.59915000E-02	-7.45706000E-02	-2.15647000E+02	 1.90171000E-01	-6.79916000E-01	-8.07252000E-01	 2.15599723E+02	-2.15652162E+02	-2.46421639E-01	 1.41021753E-01
					-1.64890000E-02	-2.30880000E-01	-1.88697000E+02	-4.23384000E-02	 4.14530000E-01	-5.58981000E-01	 1.88577273E+02	-1.88699567E+02	-2.38456352E-01	-6.34545335E-03
					 3.57062000E-02	-3.74018000E-01	-1.61762000E+02	-3.24422000E-01	 4.52556000E-02	-7.64220000E-01	 1.61599651E+02	-1.61765621E+02	-5.52176021E-01	 2.17485630E-01
					-7.01555000E-02	 7.04241000E-01	-1.34755000E+02	 3.25492000E-01	 8.63029000E-01	-7.16379000E-01	 1.35088854E+02	-1.34764330E+02	-1.81835576E-01	 8.25251386E-01
					-4.77454000E-01	 8.54106000E-01	-1.07493000E+02	 6.20386000E-01	-6.76307000E-01	-8.94835000E-01	 1.07710384E+02	-1.07504638E+02	-7.18508204E-01	 1.10679848E+00
					 6.69960000E-01	-1.16892000E+00	-8.11390000E+01	-9.12166000E-01	 2.79445000E+00	-2.08281000E-01	 8.10660452E+01	-8.12369091E+01	-1.46651703E+00	 1.06546618E+00
					 1.58009000E+00	-7.41356000E+00	-5.37645000E+01	-3.64430000E+00	 1.57041000E+00	-4.96088000E-01	 5.19050975E+01	-5.38201642E+01	-8.66661207E+00	 2.88880629E+00
					-2.93444000E+00	 8.51338000E+00	-2.77636000E+01	 4.38752000E+00	 1.80467000E+00	-2.71842000E+00	 3.34883628E+01	-2.82002625E+01	-4.00473997E+00	 1.00203424E+01
					-3.03668000E+01	-3.72221000E+01	-4.07461000E+02	-7.52877000E+00	 1.95355000E+00	-1.55537000E+01	 3.74925574E+02	-4.08108717E+02	-4.19452746E+01	-2.49959083E+01