# vtk DataFile Version 3.0

ASCII
DATASET UNSTRUCTURED_GRID

POINTS 10 double
	 1.00000000E+00	 0.00000000E+00	 0.00000000E+00
	 2.00000000E+00	 0.00000000E+00	 0.00000000E+00
	 3.00000000E+00	 0.00000000E+00	 0.00000000E+00
	 4.00000000E+00	 0.00000000E+00	 0.00000000E+00
	 5.00000000E+00	 0.00000000E+00	 0.00000000E+00
	 1.00000000E+00	 1.00000000E+00	 0.00000000E+00
	 2.00000000E+00	 1.00000000E+00	 0.00000000E+00
	 3.00000000E+00	 1.00000000E+00	 0.00000000E+00
	 4.00000000E+00	 1.00000000E+00	 0.00000000E+00
	 5.00000000E+00	 1.00000000E+00	 0.00000000E+00

CELLS 6 20
	2 0 1 
	3 1 3 2 
	2 3 4 
	3 6 8 7 
	2 5 6 
	2 8 9 

CELL_TYPES 6
	3
	21
	3
	21
	3
	3

POINT_DATA 10
FIELD TOTEMP 1
	TOTEMP 1 10 double
		 8.19000000E+02
		 8.19000000E+02
		 8.19000000E+02
		 8.19000000E+02
		 8.19000000E+02
		 8.19000000E+02
		 8.19000000E+02
		 8.19000000E+02
		 8.19000000E+02
		 8.19000000E+02
FIELD MAFLOW 1
	MAFLOW 1 10 double
		 5.02030000E-01
		 5.02030000E-01
		 5.02030000E-01
		 5.02030000E-01
		 5.02030000E-01
		 5.02030000E-01
		 5.02030000E-01
		 5.02030000E-01
		 5.02030000E-01
		 5.02030000E-01
FIELD TOPRES 1
	TOPRES 1 10 double
		 5.44300000E+05
		 5.44300000E+05
		 5.42150000E+05
		 5.40000000E+05
		 5.40000000E+05
		 5.40000000E+05
		 5.40000000E+05
		 5.37780000E+05
		 5.35560000E+05
		 5.35560000E+05
FIELD STTEMP 1
	STTEMP 1 10 double
		 7.46337000E+02
		 7.46337000E+02
		 7.45013000E+02
		 7.43689000E+02
		 7.43689000E+02
		 7.43689000E+02
		 7.43689000E+02
		 7.42181000E+02
		 7.40673000E+02
		 7.40673000E+02
