# vtk DataFile Version 3.0

ASCII
DATASET UNSTRUCTURED_GRID

POINTS 8 double
	 0.00000000E+00	 0.00000000E+00	 0.00000000E+00
	 1.00000000E+00	 0.00000000E+00	 0.00000000E+00
	 1.00000000E+00	 1.00000000E+00	 0.00000000E+00
	 0.00000000E+00	 1.00000000E+00	 0.00000000E+00
	 5.00000000E-01	 0.00000000E+00	 0.00000000E+00
	 1.00000000E+00	 5.00000000E-01	 0.00000000E+00
	 5.00000000E-01	 1.00000000E+00	 0.00000000E+00
	 0.00000000E+00	 5.00000000E-01	 0.00000000E+00

CELLS 1 9
	8 0 1 2 3 4 5 6 7 

CELL_TYPES 1
	23

POINT_DATA 8
FIELD U 1
	U 3 8 double
		 0.00000000E+00	 0.00000000E+00	 0.00000000E+00
		-1.85714000E-06	 0.00000000E+00	 0.00000000E+00
		-1.85714000E-06	 4.33333000E-06	 0.00000000E+00
		 8.47033000E-22	 4.33333000E-06	 0.00000000E+00
		-9.28571000E-07	 0.00000000E+00	 0.00000000E+00
		-1.85714000E-06	 2.16667000E-06	 0.00000000E+00
		-9.28571000E-07	 4.33333000E-06	 0.00000000E+00
		 1.05879000E-22	 2.16667000E-06	 0.00000000E+00
FIELD S 1
	S 10 8 double
		-5.14048000E-16	 1.00002000E+00	 3.00006000E-01	-9.39090000E-17	-3.51121000E-17	-1.57462000E-17	 8.88837218E-01	-5.14048000E-16	 1.00002000E+00	 3.00006000E-01
		-1.47168000E-16	 1.00002000E+00	 3.00006000E-01	 6.41494000E-16	 3.96112000E-17	-3.92084000E-17	 8.88837218E-01	-2.22044605E-16	 1.00002000E+00	 3.00006000E-01
		 6.00739000E-16	 1.00002000E+00	 3.00006000E-01	 3.86634000E-16	 8.51553000E-17	 6.74824000E-17	 8.88837218E-01	 6.66133815E-16	 1.00002000E+00	 3.00006000E-01
		-1.25933000E-16	 1.00002000E+00	 3.00006000E-01	 1.58701000E-16	-2.83683000E-17	 1.57198000E-17	 8.88837218E-01	-1.25933000E-16	 1.00002000E+00	 3.00006000E-01
		-5.07924000E-16	 1.00005000E+00	 3.00015000E-01	 2.37905000E-16	-3.29784000E-17	-2.55572000E-17	 8.88863883E-01	-4.44089210E-16	 1.00005000E+00	 3.00015000E-01
		 6.05723000E-16	 1.00005000E+00	 3.00015000E-01	-1.95656000E-16	-2.41083000E-18	-2.69892000E-18	 8.88863883E-01	 6.05723000E-16	 1.00005000E+00	 3.00015000E-01
		 1.13172000E-16	 1.00005000E+00	 3.00015000E-01	 9.27708000E-17	 9.62851000E-17	-2.96975000E-17	 8.88863883E-01	 1.13172000E-16	 1.00005000E+00	 3.00015000E-01
		-4.45360000E-16	 1.00005000E+00	 3.00015000E-01	 7.73604000E-17	 6.32971000E-18	 7.90104000E-18	 8.88863883E-01	-4.45360000E-16	 1.00005000E+00	 3.00015000E-01
FIELD RF 1
	RF 3 8 double
		 1.65822000E-16	-1.66667000E-01	-3.46945000E-18
		-3.61896000E-17	-1.66667000E-01	 3.12250000E-17
		 1.50379000E-16	 1.66667000E-01	 3.46945000E-18
		 6.79162000E-17	 1.66667000E-01	 3.46945000E-18
		-2.19617000E-16	-6.66667000E-01	 1.38778000E-17
		 3.55592000E-17	-3.97252000E-16	-2.77556000E-17
		-1.80584000E-16	 6.66667000E-01	 0.00000000E+00
		 1.67147000E-17	-7.48099000E-18	 0.00000000E+00
