<?xml version="1.0"?>
<VTKFile type="UnstructuredGrid" version="0.1" byte_order="LittleEndian">
	<UnstructuredGrid>
		<Piece NumberOfPoints="8" NumberOfCells="1">
			<Points>
				<DataArray type="Float64" NumberOfComponents="3" format="ascii">
					 0.00000000E+00	 0.00000000E+00	 0.00000000E+00
					 1.00000000E+00	 0.00000000E+00	 0.00000000E+00
					 1.00000000E+00	 1.00000000E+00	 0.00000000E+00
					 0.00000000E+00	 1.00000000E+00	 0.00000000E+00
					 5.00000000E-01	 0.00000000E+00	 0.00000000E+00
					 1.00000000E+00	 5.00000000E-01	 0.00000000E+00
					 5.00000000E-01	 1.00000000E+00	 0.00000000E+00
					 0.00000000E+00	 5.00000000E-01	 0.00000000E+00

				</DataArray>
			</Points>
			<Cells>
				<DataArray type="Int32" Name="connectivity" format="ascii">
					0 1 2 3 4 5 6 7 
				</DataArray>
				<DataArray type="Int32" Name="offsets" format="ascii">
					8 
				</DataArray>
				<DataArray type="UInt8" Name="types" format="ascii">
					23 
				</DataArray>
			</Cells>
			<PointData>
				<DataArray type="Float32" Name="U" NumberOfComponents="3" ComponentName0="D1" ComponentName1="D2" ComponentName2="D3" format="ascii">
					 0.00000000E+00	 0.00000000E+00	 0.00000000E+00
					-1.85714000E-06	 0.00000000E+00	 0.00000000E+00
					-1.85714000E-06	 4.33333000E-06	 0.00000000E+00
					 0.00000000E+00	 4.33333000E-06	 0.00000000E+00
					-9.28571000E-07	 0.00000000E+00	 0.00000000E+00
					-1.85714000E-06	 2.16667000E-06	 0.00000000E+00
					-9.28571000E-07	 4.33333000E-06	 0.00000000E+00
					 0.00000000E+00	 2.16667000E-06	 0.00000000E+00
				</DataArray>
				<DataArray type="Float32" Name="S" NumberOfComponents="10" ComponentName0="xx" ComponentName1="yy" ComponentName2="zz" ComponentName3="xy" ComponentName4="yz" ComponentName5="zx" ComponentName6="Mises" ComponentName7="Min Principal" ComponentName8="Mid Principal" ComponentName9="Max Principal" format="ascii">
					 0.00000000E+00	 1.00002000E+00	 3.00006000E-01	 0.00000000E+00	 0.00000000E+00	 0.00000000E+00	 8.88837218E-01	 0.00000000E+00	 3.00006000E-01	 1.00002000E+00
					 0.00000000E+00	 1.00002000E+00	 3.00006000E-01	 0.00000000E+00	 0.00000000E+00	 0.00000000E+00	 8.88837218E-01	 0.00000000E+00	 3.00006000E-01	 1.00002000E+00
					 0.00000000E+00	 1.00002000E+00	 3.00006000E-01	 0.00000000E+00	 0.00000000E+00	 0.00000000E+00	 8.88837218E-01	 0.00000000E+00	 3.00006000E-01	 1.00002000E+00
					 0.00000000E+00	 1.00002000E+00	 3.00006000E-01	 0.00000000E+00	 0.00000000E+00	 0.00000000E+00	 8.88837218E-01	 0.00000000E+00	 3.00006000E-01	 1.00002000E+00
					 0.00000000E+00	 1.00005000E+00	 3.00015000E-01	 0.00000000E+00	 0.00000000E+00	 0.00000000E+00	 8.88863883E-01	 0.00000000E+00	 3.00015000E-01	 1.00005000E+00
					 0.00000000E+00	 1.00005000E+00	 3.00015000E-01	 0.00000000E+00	 0.00000000E+00	 0.00000000E+00	 8.88863883E-01	 0.00000000E+00	 3.00015000E-01	 1.00005000E+00
					 0.00000000E+00	 1.00005000E+00	 3.00015000E-01	 0.00000000E+00	 0.00000000E+00	 0.00000000E+00	 8.88863883E-01	 0.00000000E+00	 3.00015000E-01	 1.00005000E+00
					 0.00000000E+00	 1.00005000E+00	 3.00015000E-01	 0.00000000E+00	 0.00000000E+00	 0.00000000E+00	 8.88863883E-01	 0.00000000E+00	 3.00015000E-01	 1.00005000E+00
				</DataArray>
				<DataArray type="Float32" Name="RF" NumberOfComponents="3" ComponentName0="F1" ComponentName1="F2" ComponentName2="F3" format="ascii">
					 0.00000000E+00	-1.66667000E-01	 0.00000000E+00
					 0.00000000E+00	-1.66667000E-01	 0.00000000E+00
					 0.00000000E+00	 1.66667000E-01	 0.00000000E+00
					 0.00000000E+00	 1.66667000E-01	 0.00000000E+00
					 0.00000000E+00	-6.66667000E-01	 0.00000000E+00
					 0.00000000E+00	 0.00000000E+00	 0.00000000E+00
					 0.00000000E+00	 6.66667000E-01	 0.00000000E+00
					 0.00000000E+00	 0.00000000E+00	 0.00000000E+00
				</DataArray>
			</PointData>
		</Piece>
	</UnstructuredGrid>
</VTKFile>