# vtk DataFile Version 3.0

ASCII
DATASET UNSTRUCTURED_GRID

POINTS 8 double
	 0.00000000E+00	 0.00000000E+00	 0.00000000E+00
	 1.00000000E+00	 0.00000000E+00	 0.00000000E+00
	 1.00000000E+00	 1.00000000E+00	 0.00000000E+00
	 0.00000000E+00	 1.00000000E+00	 0.00000000E+00
	 5.00000000E-01	 0.00000000E+00	 0.00000000E+00
	 1.00000000E+00	 5.00000000E-01	 0.00000000E+00
	 5.00000000E-01	 1.00000000E+00	 0.00000000E+00
	 0.00000000E+00	 5.00000000E-01	 0.00000000E+00

CELLS 1 9
	8 0 1 2 3 4 5 6 7 

CELL_TYPES 1
	23

POINT_DATA 8
FIELD U 1
	U 3 8 double
		 0.00000000E+00	 0.00000000E+00	 0.00000000E+00
		-1.85714000E-06	 0.00000000E+00	 0.00000000E+00
		-1.85714000E-06	 4.33333000E-06	 0.00000000E+00
		 0.00000000E+00	 4.33333000E-06	 0.00000000E+00
		-9.28571000E-07	 0.00000000E+00	 0.00000000E+00
		-1.85714000E-06	 2.16667000E-06	 0.00000000E+00
		-9.28571000E-07	 4.33333000E-06	 0.00000000E+00
		 0.00000000E+00	 2.16667000E-06	 0.00000000E+00
FIELD S 1
	S 10 8 double
		 0.00000000E+00	 1.00002000E+00	 3.00006000E-01	 0.00000000E+00	 0.00000000E+00	 0.00000000E+00	 8.88837218E-01	 0.00000000E+00	 3.00006000E-01	 1.00002000E+00
		 0.00000000E+00	 1.00002000E+00	 3.00006000E-01	 0.00000000E+00	 0.00000000E+00	 0.00000000E+00	 8.88837218E-01	 0.00000000E+00	 3.00006000E-01	 1.00002000E+00
		 0.00000000E+00	 1.00002000E+00	 3.00006000E-01	 0.00000000E+00	 0.00000000E+00	 0.00000000E+00	 8.88837218E-01	 0.00000000E+00	 3.00006000E-01	 1.00002000E+00
		 0.00000000E+00	 1.00002000E+00	 3.00006000E-01	 0.00000000E+00	 0.00000000E+00	 0.00000000E+00	 8.88837218E-01	 0.00000000E+00	 3.00006000E-01	 1.00002000E+00
		 0.00000000E+00	 1.00005000E+00	 3.00015000E-01	 0.00000000E+00	 0.00000000E+00	 0.00000000E+00	 8.88863883E-01	 0.00000000E+00	 3.00015000E-01	 1.00005000E+00
		 0.00000000E+00	 1.00005000E+00	 3.00015000E-01	 0.00000000E+00	 0.00000000E+00	 0.00000000E+00	 8.88863883E-01	 0.00000000E+00	 3.00015000E-01	 1.00005000E+00
		 0.00000000E+00	 1.00005000E+00	 3.00015000E-01	 0.00000000E+00	 0.00000000E+00	 0.00000000E+00	 8.88863883E-01	 0.00000000E+00	 3.00015000E-01	 1.00005000E+00
		 0.00000000E+00	 1.00005000E+00	 3.00015000E-01	 0.00000000E+00	 0.00000000E+00	 0.00000000E+00	 8.88863883E-01	 0.00000000E+00	 3.00015000E-01	 1.00005000E+00
FIELD RF 1
	RF 3 8 double
		 0.00000000E+00	-1.66667000E-01	 0.00000000E+00
		 0.00000000E+00	-1.66667000E-01	 0.00000000E+00
		 0.00000000E+00	 1.66667000E-01	 0.00000000E+00
		 0.00000000E+00	 1.66667000E-01	 0.00000000E+00
		 0.00000000E+00	-6.66667000E-01	 0.00000000E+00
		 0.00000000E+00	 0.00000000E+00	 0.00000000E+00
		 0.00000000E+00	 6.66667000E-01	 0.00000000E+00
		 0.00000000E+00	 0.00000000E+00	 0.00000000E+00
