# vtk DataFile Version 3.0

ASCII
DATASET UNSTRUCTURED_GRID

POINTS 40 double
	 5.00000000E+00	-5.00000000E+00	 0.00000000E+00
	-5.00000000E+00	-5.00000000E+00	 0.00000000E+00
	-5.00000000E+00	 5.00000000E+00	 0.00000000E+00
	 5.00000000E+00	 5.00000000E+00	 0.00000000E+00
	 0.00000000E+00	-5.00000000E+00	 0.00000000E+00
	-5.00000000E+00	 0.00000000E+00	 0.00000000E+00
	 0.00000000E+00	 5.00000000E+00	 0.00000000E+00
	 5.00000000E+00	 0.00000000E+00	 0.00000000E+00
	 5.00000000E+00	-5.00000000E+00	-1.50000000E+01
	-5.00000000E+00	-5.00000000E+00	-1.50000000E+01
	-5.00000000E+00	 5.00000000E+00	-1.50000000E+01
	 5.00000000E+00	 5.00000000E+00	-1.50000000E+01
	 5.00000000E+00	-5.00000000E+00	-3.00000000E+01
	-5.00000000E+00	-5.00000000E+00	-3.00000000E+01
	-5.00000000E+00	 5.00000000E+00	-3.00000000E+01
	 5.00000000E+00	 5.00000000E+00	-3.00000000E+01
	 0.00000000E+00	-5.00000000E+00	-3.00000000E+01
	-5.00000000E+00	 0.00000000E+00	-3.00000000E+01
	 0.00000000E+00	 5.00000000E+00	-3.00000000E+01
	 5.00000000E+00	 0.00000000E+00	-3.00000000E+01
	 5.00000000E+00	-5.00000000E+00	-3.00000000E+01
	-5.00000000E+00	-5.00000000E+00	-3.00000000E+01
	-5.00000000E+00	 5.00000000E+00	-3.00000000E+01
	 5.00000000E+00	 5.00000000E+00	-3.00000000E+01
	 0.00000000E+00	-5.00000000E+00	-3.00000000E+01
	-5.00000000E+00	 0.00000000E+00	-3.00000000E+01
	 0.00000000E+00	 5.00000000E+00	-3.00000000E+01
	 5.00000000E+00	 0.00000000E+00	-3.00000000E+01
	 5.00000000E+00	-5.00000000E+00	-1.80000000E+02
	-5.00000000E+00	-5.00000000E+00	-1.80000000E+02
	-5.00000000E+00	 5.00000000E+00	-1.80000000E+02
	 5.00000000E+00	 5.00000000E+00	-1.80000000E+02
	 5.00000000E+00	-5.00000000E+00	-3.30000000E+02
	-5.00000000E+00	-5.00000000E+00	-3.30000000E+02
	-5.00000000E+00	 5.00000000E+00	-3.30000000E+02
	 5.00000000E+00	 5.00000000E+00	-3.30000000E+02
	 0.00000000E+00	-5.00000000E+00	-3.30000000E+02
	-5.00000000E+00	 0.00000000E+00	-3.30000000E+02
	 0.00000000E+00	 5.00000000E+00	-3.30000000E+02
	 5.00000000E+00	 0.00000000E+00	-3.30000000E+02

CELLS 2 42
	20 0 12 13 1 3 15 14 2 8 16 9 4 11 18 10 6 7 19 17 5 
	20 20 32 33 21 23 35 34 22 28 36 29 24 31 38 30 26 27 39 37 25 

CELL_TYPES 2
	25
	25

POINT_DATA 40
FIELD U 1
	U 3 40 double
		-5.90621000E+00	-3.12463000E-08	-4.91719000E+00
		 5.90621000E+00	-3.12463000E-08	 4.91719000E+00
		 5.90621000E+00	 3.12463000E-08	 4.91719000E+00
		-5.90621000E+00	 3.12463000E-08	-4.91719000E+00
		 0.00000000E+00	-3.12463000E-08	 0.00000000E+00
		 5.90621000E+00	 0.00000000E+00	 4.91719000E+00
		 0.00000000E+00	 3.12463000E-08	 0.00000000E+00
		-5.90621000E+00	 0.00000000E+00	-4.91719000E+00
		-2.06578000E+01	-3.02400000E-08	 1.28014000E+01
		-8.84539000E+00	-3.02400000E-08	 2.26358000E+01
		-8.84539000E+00	 3.02400000E-08	 2.26358000E+01
		-2.06578000E+01	 3.02400000E-08	 1.28014000E+01
		-3.54094000E+01	-2.92251000E-08	 3.05200000E+01
		-2.35970000E+01	-2.92251000E-08	 4.03544000E+01
		-2.35970000E+01	 2.92251000E-08	 4.03544000E+01
		-3.54094000E+01	 2.92251000E-08	 3.05200000E+01
		-2.95032000E+01	-2.92251000E-08	 3.54372000E+01
		-2.35970000E+01	 0.00000000E+00	 4.03544000E+01
		-2.95032000E+01	 2.92251000E-08	 3.54372000E+01
		-3.54094000E+01	 0.00000000E+00	 3.05200000E+01
		-2.95048000E+01	 1.71606000E-07	 3.55628000E+01
		-2.95016000E+01	 1.71606000E-07	 3.53115000E+01
		-2.95016000E+01	-1.71606000E-07	 3.53115000E+01
		-2.95048000E+01	-1.71606000E-07	 3.55628000E+01
		-2.95032000E+01	 1.71606000E-07	 3.54372000E+01
		-2.95016000E+01	 0.00000000E+00	 3.53115000E+01
		-2.95032000E+01	-1.71606000E-07	 3.54372000E+01
		-2.95048000E+01	 0.00000000E+00	 3.55628000E+01
		-2.57361000E+01	 8.60870000E-08	 3.56101000E+01
		-2.57330000E+01	 8.60870000E-08	 3.53589000E+01
		-2.57330000E+01	-8.60870000E-08	 3.53589000E+01
		-2.57361000E+01	-8.60870000E-08	 3.56101000E+01
		-2.19673000E+01	 0.00000000E+00	 3.56575000E+01
		-2.19642000E+01	 0.00000000E+00	 3.54062000E+01
		-2.19642000E+01	 0.00000000E+00	 3.54062000E+01
		-2.19673000E+01	 0.00000000E+00	 3.56575000E+01
		-2.19658000E+01	 0.00000000E+00	 3.55318000E+01
		-2.19642000E+01	 0.00000000E+00	 3.54062000E+01
		-2.19658000E+01	 0.00000000E+00	 3.55318000E+01
		-2.19673000E+01	 0.00000000E+00	 3.56575000E+01
