# vtk DataFile Version 3.0

ASCII
DATASET UNSTRUCTURED_GRID

POINTS 40 double
	 5.00000000E+00	-5.00000000E+00	 0.00000000E+00
	-5.00000000E+00	-5.00000000E+00	 0.00000000E+00
	-5.00000000E+00	 5.00000000E+00	 0.00000000E+00
	 5.00000000E+00	 5.00000000E+00	 0.00000000E+00
	 0.00000000E+00	-5.00000000E+00	 0.00000000E+00
	-5.00000000E+00	 0.00000000E+00	 0.00000000E+00
	 0.00000000E+00	 5.00000000E+00	 0.00000000E+00
	 5.00000000E+00	 0.00000000E+00	 0.00000000E+00
	 5.00000000E+00	-5.00000000E+00	-1.50000000E+01
	-5.00000000E+00	-5.00000000E+00	-1.50000000E+01
	-5.00000000E+00	 5.00000000E+00	-1.50000000E+01
	 5.00000000E+00	 5.00000000E+00	-1.50000000E+01
	 5.00000000E+00	-5.00000000E+00	-3.00000000E+01
	-5.00000000E+00	-5.00000000E+00	-3.00000000E+01
	-5.00000000E+00	 5.00000000E+00	-3.00000000E+01
	 5.00000000E+00	 5.00000000E+00	-3.00000000E+01
	 0.00000000E+00	-5.00000000E+00	-3.00000000E+01
	-5.00000000E+00	 0.00000000E+00	-3.00000000E+01
	 0.00000000E+00	 5.00000000E+00	-3.00000000E+01
	 5.00000000E+00	 0.00000000E+00	-3.00000000E+01
	 5.00000000E+00	-5.00000000E+00	-3.00000000E+01
	-5.00000000E+00	-5.00000000E+00	-3.00000000E+01
	-5.00000000E+00	 5.00000000E+00	-3.00000000E+01
	 5.00000000E+00	 5.00000000E+00	-3.00000000E+01
	 0.00000000E+00	-5.00000000E+00	-3.00000000E+01
	-5.00000000E+00	 0.00000000E+00	-3.00000000E+01
	 0.00000000E+00	 5.00000000E+00	-3.00000000E+01
	 5.00000000E+00	 0.00000000E+00	-3.00000000E+01
	 5.00000000E+00	-5.00000000E+00	-1.80000000E+02
	-5.00000000E+00	-5.00000000E+00	-1.80000000E+02
	-5.00000000E+00	 5.00000000E+00	-1.80000000E+02
	 5.00000000E+00	 5.00000000E+00	-1.80000000E+02
	 5.00000000E+00	-5.00000000E+00	-3.30000000E+02
	-5.00000000E+00	-5.00000000E+00	-3.30000000E+02
	-5.00000000E+00	 5.00000000E+00	-3.30000000E+02
	 5.00000000E+00	 5.00000000E+00	-3.30000000E+02
	 0.00000000E+00	-5.00000000E+00	-3.30000000E+02
	-5.00000000E+00	 0.00000000E+00	-3.30000000E+02
	 0.00000000E+00	 5.00000000E+00	-3.30000000E+02
	 5.00000000E+00	 0.00000000E+00	-3.30000000E+02

CELLS 2 42
	20 0 12 13 1 3 15 14 2 8 16 9 4 11 18 10 6 7 19 17 5 
	20 20 32 33 21 23 35 34 22 28 36 29 24 31 38 30 26 27 39 37 25 

CELL_TYPES 2
	25
	25

POINT_DATA 40
FIELD U 1
	U 3 40 double
		-1.05905000E-01	 2.20387000E-07	-1.02364000E+00
		 1.05905000E-01	 2.20387000E-07	 1.02364000E+00
		 1.05905000E-01	-2.20387000E-07	 1.02364000E+00
		-1.05905000E-01	-2.20387000E-07	-1.02364000E+00
		 0.00000000E+00	 2.20387000E-07	 0.00000000E+00
		 1.05905000E-01	 0.00000000E+00	 1.02364000E+00
		 0.00000000E+00	-2.20387000E-07	 0.00000000E+00
		-1.05905000E-01	 0.00000000E+00	-1.02364000E+00
		-3.17682000E+00	 2.11783000E-07	-7.05926000E-01
		-2.96501000E+00	 2.11783000E-07	 1.34135000E+00
		-2.96501000E+00	-2.11783000E-07	 1.34135000E+00
		-3.17682000E+00	-2.11783000E-07	-7.05926000E-01
		-6.24774000E+00	 2.03180000E-07	-3.88212000E-01
		-6.03593000E+00	 2.03180000E-07	 1.65907000E+00
		-6.03593000E+00	-2.03180000E-07	 1.65907000E+00
		-6.24774000E+00	-2.03180000E-07	-3.88212000E-01
		-6.14183000E+00	 2.03180000E-07	 6.35427000E-01
		-6.03593000E+00	 0.00000000E+00	 1.65907000E+00
		-6.14183000E+00	-2.03180000E-07	 6.35427000E-01
		-6.24774000E+00	 0.00000000E+00	-3.88212000E-01
		-6.14414000E+00	 1.93007000E-07	 7.87252000E-01
		-6.13953000E+00	 1.93007000E-07	 4.83603000E-01
		-6.13953000E+00	-1.93007000E-07	 4.83603000E-01
		-6.14414000E+00	-1.93007000E-07	 7.87252000E-01
		-6.14183000E+00	 1.93007000E-07	 6.35427000E-01
		-6.13953000E+00	 0.00000000E+00	 4.83603000E-01
		-6.14183000E+00	-1.93007000E-07	 6.35427000E-01
		-6.14414000E+00	 0.00000000E+00	 7.87252000E-01
		-1.58733000E+00	 9.69470000E-08	 8.56607000E-01
		-1.58272000E+00	 9.69470000E-08	 5.52680000E-01
		-1.58272000E+00	-9.69470000E-08	 5.52680000E-01
		-1.58733000E+00	-9.69470000E-08	 8.56607000E-01
		 2.97365000E+00	 2.04607000E-09	 9.26099000E-01
		 2.97828000E+00	 2.04607000E-09	 6.21895000E-01
		 2.97828000E+00	-2.04607000E-09	 6.21895000E-01
		 2.97365000E+00	-2.04607000E-09	 9.26099000E-01
		 2.97596000E+00	 2.04607000E-09	 7.73997000E-01
		 2.97828000E+00	 0.00000000E+00	 6.21895000E-01
		 2.97596000E+00	-2.04607000E-09	 7.73997000E-01
		 2.97365000E+00	 0.00000000E+00	 9.26099000E-01
