<?xml version="1.0"?>
<VTKFile type="UnstructuredGrid" version="0.1" byte_order="LittleEndian">
	<UnstructuredGrid>
		<Piece NumberOfPoints="40" NumberOfCells="2">
			<Points>
				<DataArray type="Float64" NumberOfComponents="3" format="ascii">
					 5.00000000E+00	-5.00000000E+00	 0.00000000E+00
					-5.00000000E+00	-5.00000000E+00	 0.00000000E+00
					-5.00000000E+00	 5.00000000E+00	 0.00000000E+00
					 5.00000000E+00	 5.00000000E+00	 0.00000000E+00
					 0.00000000E+00	-5.00000000E+00	 0.00000000E+00
					-5.00000000E+00	 0.00000000E+00	 0.00000000E+00
					 0.00000000E+00	 5.00000000E+00	 0.00000000E+00
					 5.00000000E+00	 0.00000000E+00	 0.00000000E+00
					 5.00000000E+00	-5.00000000E+00	-1.50000000E+01
					-5.00000000E+00	-5.00000000E+00	-1.50000000E+01
					-5.00000000E+00	 5.00000000E+00	-1.50000000E+01
					 5.00000000E+00	 5.00000000E+00	-1.50000000E+01
					 5.00000000E+00	-5.00000000E+00	-3.00000000E+01
					-5.00000000E+00	-5.00000000E+00	-3.00000000E+01
					-5.00000000E+00	 5.00000000E+00	-3.00000000E+01
					 5.00000000E+00	 5.00000000E+00	-3.00000000E+01
					 0.00000000E+00	-5.00000000E+00	-3.00000000E+01
					-5.00000000E+00	 0.00000000E+00	-3.00000000E+01
					 0.00000000E+00	 5.00000000E+00	-3.00000000E+01
					 5.00000000E+00	 0.00000000E+00	-3.00000000E+01
					 5.00000000E+00	-5.00000000E+00	-3.00000000E+01
					-5.00000000E+00	-5.00000000E+00	-3.00000000E+01
					-5.00000000E+00	 5.00000000E+00	-3.00000000E+01
					 5.00000000E+00	 5.00000000E+00	-3.00000000E+01
					 0.00000000E+00	-5.00000000E+00	-3.00000000E+01
					-5.00000000E+00	 0.00000000E+00	-3.00000000E+01
					 0.00000000E+00	 5.00000000E+00	-3.00000000E+01
					 5.00000000E+00	 0.00000000E+00	-3.00000000E+01
					 5.00000000E+00	-5.00000000E+00	-1.80000000E+02
					-5.00000000E+00	-5.00000000E+00	-1.80000000E+02
					-5.00000000E+00	 5.00000000E+00	-1.80000000E+02
					 5.00000000E+00	 5.00000000E+00	-1.80000000E+02
					 5.00000000E+00	-5.00000000E+00	-3.30000000E+02
					-5.00000000E+00	-5.00000000E+00	-3.30000000E+02
					-5.00000000E+00	 5.00000000E+00	-3.30000000E+02
					 5.00000000E+00	 5.00000000E+00	-3.30000000E+02
					 0.00000000E+00	-5.00000000E+00	-3.30000000E+02
					-5.00000000E+00	 0.00000000E+00	-3.30000000E+02
					 0.00000000E+00	 5.00000000E+00	-3.30000000E+02
					 5.00000000E+00	 0.00000000E+00	-3.30000000E+02

				</DataArray>
			</Points>
			<Cells>
				<DataArray type="Int32" Name="connectivity" format="ascii">
					0 12 13 1 3 15 14 2 8 16 9 4 11 18 10 6 7 19 17 5 20 32 33 21 23 35 34 22 28 36 29 24 31 38 30 26 27 39 37 25 
				</DataArray>
				<DataArray type="Int32" Name="offsets" format="ascii">
					20 40 
				</DataArray>
				<DataArray type="UInt8" Name="types" format="ascii">
					25 25 
				</DataArray>
			</Cells>
			<PointData>
				<DataArray type="Float32" Name="U" NumberOfComponents="3" ComponentName0="D1" ComponentName1="D2" ComponentName2="D3" format="ascii">
					-9.94908000E+00	-1.61663000E-07	 7.11795000E-01
					 9.94908000E+00	-1.61663000E-07	-7.11795000E-01
					 9.94908000E+00	 1.61663000E-07	-7.11795000E-01
					-9.94908000E+00	 1.61663000E-07	 7.11795000E-01
					 0.00000000E+00	-1.61663000E-07	 0.00000000E+00
					 9.94908000E+00	 0.00000000E+00	-7.11795000E-01
					 0.00000000E+00	 1.61663000E-07	 0.00000000E+00
					-9.94908000E+00	 0.00000000E+00	 7.11795000E-01
					-7.81369000E+00	-1.53896000E-07	 3.05590000E+01
					 1.20845000E+01	-1.53896000E-07	 2.91354000E+01
					 1.20845000E+01	 1.53896000E-07	 2.91354000E+01
					-7.81369000E+00	 1.53896000E-07	 3.05590000E+01
					-5.67831000E+00	-1.46129000E-07	 6.04062000E+01
					 1.42198000E+01	-1.46129000E-07	 5.89827000E+01
					 1.42198000E+01	 1.46129000E-07	 5.89827000E+01
					-5.67831000E+00	 1.46129000E-07	 6.04062000E+01
					 4.27077000E+00	-1.46129000E-07	 5.96945000E+01
					 1.42198000E+01	 0.00000000E+00	 5.89827000E+01
					 4.27077000E+00	 1.46129000E-07	 5.96945000E+01
					-5.67831000E+00	 0.00000000E+00	 6.04062000E+01
					 4.09511000E+00	 1.45918000E-07	 5.83808000E+01
					 4.44642000E+00	 1.45918000E-07	 6.10081000E+01
					 4.44642000E+00	-1.45918000E-07	 6.10081000E+01
					 4.09511000E+00	-1.45918000E-07	 5.83808000E+01
					 4.27077000E+00	 1.45918000E-07	 5.96945000E+01
					 4.44642000E+00	 0.00000000E+00	 6.10081000E+01
					 4.27077000E+00	-1.45918000E-07	 5.96945000E+01
					 4.09511000E+00	 0.00000000E+00	 5.83808000E+01
					-3.53147000E+01	 7.30042000E-08	 6.36504000E+01
					-3.49633000E+01	 7.30042000E-08	 6.62778000E+01
					-3.49633000E+01	-7.30042000E-08	 6.62778000E+01
					-3.53147000E+01	-7.30042000E-08	 6.36504000E+01
					-7.47248000E+01	 0.00000000E+00	 6.89202000E+01
					-7.43735000E+01	 0.00000000E+00	 7.15475000E+01
					-7.43735000E+01	 0.00000000E+00	 7.15475000E+01
					-7.47248000E+01	 0.00000000E+00	 6.89202000E+01
					-7.45491000E+01	 0.00000000E+00	 7.02339000E+01
					-7.43735000E+01	 0.00000000E+00	 7.15475000E+01
					-7.45491000E+01	 0.00000000E+00	 7.02339000E+01
					-7.47248000E+01	 0.00000000E+00	 6.89202000E+01
				</DataArray>
			</PointData>
		</Piece>
	</UnstructuredGrid>
</VTKFile>