# vtk DataFile Version 3.0

ASCII
DATASET UNSTRUCTURED_GRID

POINTS 40 double
	 5.00000000E+00	-5.00000000E+00	 0.00000000E+00
	-5.00000000E+00	-5.00000000E+00	 0.00000000E+00
	-5.00000000E+00	 5.00000000E+00	 0.00000000E+00
	 5.00000000E+00	 5.00000000E+00	 0.00000000E+00
	 0.00000000E+00	-5.00000000E+00	 0.00000000E+00
	-5.00000000E+00	 0.00000000E+00	 0.00000000E+00
	 0.00000000E+00	 5.00000000E+00	 0.00000000E+00
	 5.00000000E+00	 0.00000000E+00	 0.00000000E+00
	 5.00000000E+00	-5.00000000E+00	-1.50000000E+01
	-5.00000000E+00	-5.00000000E+00	-1.50000000E+01
	-5.00000000E+00	 5.00000000E+00	-1.50000000E+01
	 5.00000000E+00	 5.00000000E+00	-1.50000000E+01
	 5.00000000E+00	-5.00000000E+00	-3.00000000E+01
	-5.00000000E+00	-5.00000000E+00	-3.00000000E+01
	-5.00000000E+00	 5.00000000E+00	-3.00000000E+01
	 5.00000000E+00	 5.00000000E+00	-3.00000000E+01
	 0.00000000E+00	-5.00000000E+00	-3.00000000E+01
	-5.00000000E+00	 0.00000000E+00	-3.00000000E+01
	 0.00000000E+00	 5.00000000E+00	-3.00000000E+01
	 5.00000000E+00	 0.00000000E+00	-3.00000000E+01
	 5.00000000E+00	-5.00000000E+00	-3.00000000E+01
	-5.00000000E+00	-5.00000000E+00	-3.00000000E+01
	-5.00000000E+00	 5.00000000E+00	-3.00000000E+01
	 5.00000000E+00	 5.00000000E+00	-3.00000000E+01
	 0.00000000E+00	-5.00000000E+00	-3.00000000E+01
	-5.00000000E+00	 0.00000000E+00	-3.00000000E+01
	 0.00000000E+00	 5.00000000E+00	-3.00000000E+01
	 5.00000000E+00	 0.00000000E+00	-3.00000000E+01
	 5.00000000E+00	-5.00000000E+00	-1.80000000E+02
	-5.00000000E+00	-5.00000000E+00	-1.80000000E+02
	-5.00000000E+00	 5.00000000E+00	-1.80000000E+02
	 5.00000000E+00	 5.00000000E+00	-1.80000000E+02
	 5.00000000E+00	-5.00000000E+00	-3.30000000E+02
	-5.00000000E+00	-5.00000000E+00	-3.30000000E+02
	-5.00000000E+00	 5.00000000E+00	-3.30000000E+02
	 5.00000000E+00	 5.00000000E+00	-3.30000000E+02
	 0.00000000E+00	-5.00000000E+00	-3.30000000E+02
	-5.00000000E+00	 0.00000000E+00	-3.30000000E+02
	 0.00000000E+00	 5.00000000E+00	-3.30000000E+02
	 5.00000000E+00	 0.00000000E+00	-3.30000000E+02

CELLS 2 42
	20 0 12 13 1 3 15 14 2 8 16 9 4 11 18 10 6 7 19 17 5 
	20 20 32 33 21 23 35 34 22 28 36 29 24 31 38 30 26 27 39 37 25 

CELL_TYPES 2
	25
	25

POINT_DATA 40
FIELD U 1
	U 3 40 double
		-6.58889000E-04	 1.00440000E-07	-8.11631000E-02
		 6.58889000E-04	 1.00440000E-07	 8.11631000E-02
		 6.58889000E-04	-1.00440000E-07	 8.11631000E-02
		-6.58889000E-04	-1.00440000E-07	-8.11631000E-02
		 0.00000000E+00	 1.00440000E-07	 0.00000000E+00
		 6.58889000E-04	 0.00000000E+00	 8.11631000E-02
		 0.00000000E+00	-1.00440000E-07	 0.00000000E+00
		-6.58889000E-04	 0.00000000E+00	-8.11631000E-02
		-2.43919000E-01	 9.38217000E-08	-7.90738000E-02
		-2.42605000E-01	 9.38217000E-08	 8.30172000E-02
		-2.42605000E-01	-9.38217000E-08	 8.30172000E-02
		-2.43919000E-01	-9.38217000E-08	-7.90738000E-02
		-4.86919000E-01	 8.76836000E-08	-7.70481000E-02
		-4.85607000E-01	 8.76836000E-08	 8.49266000E-02
		-4.85607000E-01	-8.76836000E-08	 8.49266000E-02
		-4.86919000E-01	-8.76836000E-08	-7.70481000E-02
		-4.86263000E-01	 8.76836000E-08	 3.93923000E-03
		-4.85607000E-01	 0.00000000E+00	 8.49266000E-02
		-4.86263000E-01	-8.76836000E-08	 3.93923000E-03
		-4.86919000E-01	 0.00000000E+00	-7.70481000E-02
		-4.86280000E-01	 1.29474000E-07	 1.69762000E-02
		-4.86245000E-01	 1.29474000E-07	-9.09774000E-03
		-4.86245000E-01	-1.29474000E-07	-9.09774000E-03
		-4.86280000E-01	-1.29474000E-07	 1.69762000E-02
		-4.86263000E-01	 1.29474000E-07	 3.93923000E-03
		-4.86245000E-01	 0.00000000E+00	-9.09774000E-03
		-4.86263000E-01	-1.29474000E-07	 3.93923000E-03
		-4.86280000E-01	 0.00000000E+00	 1.69762000E-02
		-1.12811000E-01	 3.36464000E-08	 1.62531000E-02
		-1.12783000E-01	 3.36464000E-08	-7.45905000E-03
		-1.12783000E-01	-3.36464000E-08	-7.45905000E-03
		-1.12811000E-01	-3.36464000E-08	 1.62531000E-02
		 2.25092000E-01	 2.17182000E-08	 1.54512000E-02
		 2.25115000E-01	 2.17182000E-08	-5.89930000E-03
		 2.25115000E-01	-2.17182000E-08	-5.89930000E-03
		 2.25092000E-01	-2.17182000E-08	 1.54512000E-02
		 2.25104000E-01	 2.17182000E-08	 4.77593000E-03
		 2.25115000E-01	 0.00000000E+00	-5.89930000E-03
		 2.25104000E-01	-2.17182000E-08	 4.77593000E-03
		 2.25092000E-01	 0.00000000E+00	 1.54512000E-02
