<?xml version="1.0"?>
<VTKFile type="UnstructuredGrid" version="0.1" byte_order="LittleEndian">
	<UnstructuredGrid>
		<Piece NumberOfPoints="40" NumberOfCells="2">
			<Points>
				<DataArray type="Float64" NumberOfComponents="3" format="ascii">
					 5.00000000E+00	-5.00000000E+00	 0.00000000E+00
					-5.00000000E+00	-5.00000000E+00	 0.00000000E+00
					-5.00000000E+00	 5.00000000E+00	 0.00000000E+00
					 5.00000000E+00	 5.00000000E+00	 0.00000000E+00
					 0.00000000E+00	-5.00000000E+00	 0.00000000E+00
					-5.00000000E+00	 0.00000000E+00	 0.00000000E+00
					 0.00000000E+00	 5.00000000E+00	 0.00000000E+00
					 5.00000000E+00	 0.00000000E+00	 0.00000000E+00
					 5.00000000E+00	-5.00000000E+00	-1.50000000E+01
					-5.00000000E+00	-5.00000000E+00	-1.50000000E+01
					-5.00000000E+00	 5.00000000E+00	-1.50000000E+01
					 5.00000000E+00	 5.00000000E+00	-1.50000000E+01
					 5.00000000E+00	-5.00000000E+00	-3.00000000E+01
					-5.00000000E+00	-5.00000000E+00	-3.00000000E+01
					-5.00000000E+00	 5.00000000E+00	-3.00000000E+01
					 5.00000000E+00	 5.00000000E+00	-3.00000000E+01
					 0.00000000E+00	-5.00000000E+00	-3.00000000E+01
					-5.00000000E+00	 0.00000000E+00	-3.00000000E+01
					 0.00000000E+00	 5.00000000E+00	-3.00000000E+01
					 5.00000000E+00	 0.00000000E+00	-3.00000000E+01
					 5.00000000E+00	-5.00000000E+00	-3.00000000E+01
					-5.00000000E+00	-5.00000000E+00	-3.00000000E+01
					-5.00000000E+00	 5.00000000E+00	-3.00000000E+01
					 5.00000000E+00	 5.00000000E+00	-3.00000000E+01
					 0.00000000E+00	-5.00000000E+00	-3.00000000E+01
					-5.00000000E+00	 0.00000000E+00	-3.00000000E+01
					 0.00000000E+00	 5.00000000E+00	-3.00000000E+01
					 5.00000000E+00	 0.00000000E+00	-3.00000000E+01
					 5.00000000E+00	-5.00000000E+00	-1.80000000E+02
					-5.00000000E+00	-5.00000000E+00	-1.80000000E+02
					-5.00000000E+00	 5.00000000E+00	-1.80000000E+02
					 5.00000000E+00	 5.00000000E+00	-1.80000000E+02
					 5.00000000E+00	-5.00000000E+00	-3.30000000E+02
					-5.00000000E+00	-5.00000000E+00	-3.30000000E+02
					-5.00000000E+00	 5.00000000E+00	-3.30000000E+02
					 5.00000000E+00	 5.00000000E+00	-3.30000000E+02
					 0.00000000E+00	-5.00000000E+00	-3.30000000E+02
					-5.00000000E+00	 0.00000000E+00	-3.30000000E+02
					 0.00000000E+00	 5.00000000E+00	-3.30000000E+02
					 5.00000000E+00	 0.00000000E+00	-3.30000000E+02

				</DataArray>
			</Points>
			<Cells>
				<DataArray type="Int32" Name="connectivity" format="ascii">
					0 12 13 1 3 15 14 2 8 16 9 4 11 18 10 6 7 19 17 5 20 32 33 21 23 35 34 22 28 36 29 24 31 38 30 26 27 39 37 25 
				</DataArray>
				<DataArray type="Int32" Name="offsets" format="ascii">
					20 40 
				</DataArray>
				<DataArray type="UInt8" Name="types" format="ascii">
					25 25 
				</DataArray>
			</Cells>
			<PointData>
				<DataArray type="Float32" Name="U" NumberOfComponents="3" ComponentName0="D1" ComponentName1="D2" ComponentName2="D3" format="ascii">
					-5.87052000E+00	-3.91772000E-08	 4.92364000E+00
					 5.87052000E+00	-3.91772000E-08	-4.92364000E+00
					 5.87052000E+00	 3.91772000E-08	-4.92364000E+00
					-5.87052000E+00	 3.91772000E-08	 4.92364000E+00
					 0.00000000E+00	-3.91772000E-08	 0.00000000E+00
					 5.87052000E+00	 0.00000000E+00	-4.92364000E+00
					 0.00000000E+00	 3.91772000E-08	 0.00000000E+00
					-5.87052000E+00	 0.00000000E+00	 4.92364000E+00
					 8.90041000E+00	-3.82309000E-08	 2.25352000E+01
					 2.06414000E+01	-3.82309000E-08	 1.26879000E+01
					 2.06414000E+01	 3.82309000E-08	 1.26879000E+01
					 8.90041000E+00	 3.82309000E-08	 2.25352000E+01
					 2.36713000E+01	-3.72752000E-08	 4.01466000E+01
					 3.54123000E+01	-3.72752000E-08	 3.02994000E+01
					 3.54123000E+01	 3.72752000E-08	 3.02994000E+01
					 2.36713000E+01	 3.72752000E-08	 4.01466000E+01
					 2.95418000E+01	-3.72752000E-08	 3.52230000E+01
					 3.54123000E+01	 0.00000000E+00	 3.02994000E+01
					 2.95418000E+01	 3.72752000E-08	 3.52230000E+01
					 2.36713000E+01	 0.00000000E+00	 4.01466000E+01
					 2.95247000E+01	 1.81603000E-07	 3.48092000E+01
					 2.95590000E+01	 1.81603000E-07	 3.56368000E+01
					 2.95590000E+01	-1.81603000E-07	 3.56368000E+01
					 2.95247000E+01	-1.81603000E-07	 3.48092000E+01
					 2.95418000E+01	 1.81603000E-07	 3.52230000E+01
					 2.95590000E+01	 0.00000000E+00	 3.56368000E+01
					 2.95418000E+01	-1.81603000E-07	 3.52230000E+01
					 2.95247000E+01	 0.00000000E+00	 3.48092000E+01
					 1.71112000E+01	 9.19112000E-08	 3.53237000E+01
					 1.71455000E+01	 9.19112000E-08	 3.61513000E+01
					 1.71455000E+01	-9.19112000E-08	 3.61513000E+01
					 1.71112000E+01	-9.19112000E-08	 3.53237000E+01
					 4.69748000E+00	 2.22513000E-09	 3.58383000E+01
					 4.73178000E+00	 2.22513000E-09	 3.66659000E+01
					 4.73178000E+00	-2.22513000E-09	 3.66659000E+01
					 4.69748000E+00	-2.22513000E-09	 3.58383000E+01
					 4.71463000E+00	 2.22513000E-09	 3.62521000E+01
					 4.73178000E+00	 0.00000000E+00	 3.66659000E+01
					 4.71463000E+00	-2.22513000E-09	 3.62521000E+01
					 4.69748000E+00	 0.00000000E+00	 3.58383000E+01
				</DataArray>
			</PointData>
		</Piece>
	</UnstructuredGrid>
</VTKFile>