# vtk DataFile Version 3.0

ASCII
DATASET UNSTRUCTURED_GRID

POINTS 40 double
	 5.00000000E+00	-5.00000000E+00	 0.00000000E+00
	-5.00000000E+00	-5.00000000E+00	 0.00000000E+00
	-5.00000000E+00	 5.00000000E+00	 0.00000000E+00
	 5.00000000E+00	 5.00000000E+00	 0.00000000E+00
	 0.00000000E+00	-5.00000000E+00	 0.00000000E+00
	-5.00000000E+00	 0.00000000E+00	 0.00000000E+00
	 0.00000000E+00	 5.00000000E+00	 0.00000000E+00
	 5.00000000E+00	 0.00000000E+00	 0.00000000E+00
	 5.00000000E+00	-5.00000000E+00	-1.50000000E+01
	-5.00000000E+00	-5.00000000E+00	-1.50000000E+01
	-5.00000000E+00	 5.00000000E+00	-1.50000000E+01
	 5.00000000E+00	 5.00000000E+00	-1.50000000E+01
	 5.00000000E+00	-5.00000000E+00	-3.00000000E+01
	-5.00000000E+00	-5.00000000E+00	-3.00000000E+01
	-5.00000000E+00	 5.00000000E+00	-3.00000000E+01
	 5.00000000E+00	 5.00000000E+00	-3.00000000E+01
	 0.00000000E+00	-5.00000000E+00	-3.00000000E+01
	-5.00000000E+00	 0.00000000E+00	-3.00000000E+01
	 0.00000000E+00	 5.00000000E+00	-3.00000000E+01
	 5.00000000E+00	 0.00000000E+00	-3.00000000E+01
	 5.00000000E+00	-5.00000000E+00	-3.00000000E+01
	-5.00000000E+00	-5.00000000E+00	-3.00000000E+01
	-5.00000000E+00	 5.00000000E+00	-3.00000000E+01
	 5.00000000E+00	 5.00000000E+00	-3.00000000E+01
	 0.00000000E+00	-5.00000000E+00	-3.00000000E+01
	-5.00000000E+00	 0.00000000E+00	-3.00000000E+01
	 0.00000000E+00	 5.00000000E+00	-3.00000000E+01
	 5.00000000E+00	 0.00000000E+00	-3.00000000E+01
	 5.00000000E+00	-5.00000000E+00	-1.80000000E+02
	-5.00000000E+00	-5.00000000E+00	-1.80000000E+02
	-5.00000000E+00	 5.00000000E+00	-1.80000000E+02
	 5.00000000E+00	 5.00000000E+00	-1.80000000E+02
	 5.00000000E+00	-5.00000000E+00	-3.30000000E+02
	-5.00000000E+00	-5.00000000E+00	-3.30000000E+02
	-5.00000000E+00	 5.00000000E+00	-3.30000000E+02
	 5.00000000E+00	 5.00000000E+00	-3.30000000E+02
	 0.00000000E+00	-5.00000000E+00	-3.30000000E+02
	-5.00000000E+00	 0.00000000E+00	-3.30000000E+02
	 0.00000000E+00	 5.00000000E+00	-3.30000000E+02
	 5.00000000E+00	 0.00000000E+00	-3.30000000E+02

CELLS 2 42
	20 0 12 13 1 3 15 14 2 8 16 9 4 11 18 10 6 7 19 17 5 
	20 20 32 33 21 23 35 34 22 28 36 29 24 31 38 30 26 27 39 37 25 

CELL_TYPES 2
	25
	25

POINT_DATA 40
FIELD U 1
	U 3 40 double
		-3.83382000E+00	 4.12927000E-08	-4.86210000E+00
		 3.83382000E+00	 4.12927000E-08	 4.86210000E+00
		 3.83382000E+00	-4.12927000E-08	 4.86210000E+00
		-3.83382000E+00	-4.12927000E-08	-4.86210000E+00
		 0.00000000E+00	 4.12927000E-08	 0.00000000E+00
		 3.83382000E+00	 0.00000000E+00	 4.86210000E+00
		 0.00000000E+00	-4.12927000E-08	 0.00000000E+00
		-3.83382000E+00	 0.00000000E+00	-4.86210000E+00
		-1.84201000E+01	 3.88361000E-08	 6.63935000E+00
		-1.07525000E+01	 3.88361000E-08	 1.63635000E+01
		-1.07525000E+01	-3.88361000E-08	 1.63635000E+01
		-1.84201000E+01	-3.88361000E-08	 6.63935000E+00
		-3.30064000E+01	 3.63885000E-08	 1.81408000E+01
		-2.53388000E+01	 3.63885000E-08	 2.78650000E+01
		-2.53388000E+01	-3.63885000E-08	 2.78650000E+01
		-3.30064000E+01	-3.63885000E-08	 1.81408000E+01
		-2.91726000E+01	 3.63885000E-08	 2.30029000E+01
		-2.53388000E+01	 0.00000000E+00	 2.78650000E+01
		-2.91726000E+01	-3.63885000E-08	 2.30029000E+01
		-3.30064000E+01	 0.00000000E+00	 1.81408000E+01
		-2.91890000E+01	 1.75655000E-07	 2.34081000E+01
		-2.91561000E+01	 1.75655000E-07	 2.25976000E+01
		-2.91561000E+01	-1.75655000E-07	 2.25976000E+01
		-2.91890000E+01	-1.75655000E-07	 2.34081000E+01
		-2.91726000E+01	 1.75655000E-07	 2.30029000E+01
		-2.91561000E+01	 0.00000000E+00	 2.25976000E+01
		-2.91726000E+01	-1.75655000E-07	 2.30029000E+01
		-2.91890000E+01	 0.00000000E+00	 2.34081000E+01
		-1.70325000E+01	 8.79164000E-08	 2.39015000E+01
		-1.69996000E+01	 8.79164000E-08	 2.30910000E+01
		-1.69996000E+01	-8.79164000E-08	 2.30910000E+01
		-1.70325000E+01	-8.79164000E-08	 2.39015000E+01
		-4.87570000E+00	 0.00000000E+00	 2.43949000E+01
		-4.84280000E+00	 0.00000000E+00	 2.35845000E+01
		-4.84280000E+00	 0.00000000E+00	 2.35845000E+01
		-4.87570000E+00	 0.00000000E+00	 2.43949000E+01
		-4.85925000E+00	 0.00000000E+00	 2.39897000E+01
		-4.84280000E+00	 0.00000000E+00	 2.35845000E+01
		-4.85925000E+00	 0.00000000E+00	 2.39897000E+01
		-4.87570000E+00	 0.00000000E+00	 2.43949000E+01
