# vtk DataFile Version 3.0

ASCII
DATASET UNSTRUCTURED_GRID

POINTS 40 double
	 5.00000000E+00	-5.00000000E+00	 0.00000000E+00
	-5.00000000E+00	-5.00000000E+00	 0.00000000E+00
	-5.00000000E+00	 5.00000000E+00	 0.00000000E+00
	 5.00000000E+00	 5.00000000E+00	 0.00000000E+00
	 0.00000000E+00	-5.00000000E+00	 0.00000000E+00
	-5.00000000E+00	 0.00000000E+00	 0.00000000E+00
	 0.00000000E+00	 5.00000000E+00	 0.00000000E+00
	 5.00000000E+00	 0.00000000E+00	 0.00000000E+00
	 5.00000000E+00	-5.00000000E+00	-1.50000000E+01
	-5.00000000E+00	-5.00000000E+00	-1.50000000E+01
	-5.00000000E+00	 5.00000000E+00	-1.50000000E+01
	 5.00000000E+00	 5.00000000E+00	-1.50000000E+01
	 5.00000000E+00	-5.00000000E+00	-3.00000000E+01
	-5.00000000E+00	-5.00000000E+00	-3.00000000E+01
	-5.00000000E+00	 5.00000000E+00	-3.00000000E+01
	 5.00000000E+00	 5.00000000E+00	-3.00000000E+01
	 0.00000000E+00	-5.00000000E+00	-3.00000000E+01
	-5.00000000E+00	 0.00000000E+00	-3.00000000E+01
	 0.00000000E+00	 5.00000000E+00	-3.00000000E+01
	 5.00000000E+00	 0.00000000E+00	-3.00000000E+01
	 5.00000000E+00	-5.00000000E+00	-3.00000000E+01
	-5.00000000E+00	-5.00000000E+00	-3.00000000E+01
	-5.00000000E+00	 5.00000000E+00	-3.00000000E+01
	 5.00000000E+00	 5.00000000E+00	-3.00000000E+01
	 0.00000000E+00	-5.00000000E+00	-3.00000000E+01
	-5.00000000E+00	 0.00000000E+00	-3.00000000E+01
	 0.00000000E+00	 5.00000000E+00	-3.00000000E+01
	 5.00000000E+00	 0.00000000E+00	-3.00000000E+01
	 5.00000000E+00	-5.00000000E+00	-1.80000000E+02
	-5.00000000E+00	-5.00000000E+00	-1.80000000E+02
	-5.00000000E+00	 5.00000000E+00	-1.80000000E+02
	 5.00000000E+00	 5.00000000E+00	-1.80000000E+02
	 5.00000000E+00	-5.00000000E+00	-3.30000000E+02
	-5.00000000E+00	-5.00000000E+00	-3.30000000E+02
	-5.00000000E+00	 5.00000000E+00	-3.30000000E+02
	 5.00000000E+00	 5.00000000E+00	-3.30000000E+02
	 0.00000000E+00	-5.00000000E+00	-3.30000000E+02
	-5.00000000E+00	 0.00000000E+00	-3.30000000E+02
	 0.00000000E+00	 5.00000000E+00	-3.30000000E+02
	 5.00000000E+00	 0.00000000E+00	-3.30000000E+02

CELLS 2 42
	20 0 12 13 1 3 15 14 2 8 16 9 4 11 18 10 6 7 19 17 5 
	20 20 32 33 21 23 35 34 22 28 36 29 24 31 38 30 26 27 39 37 25 

CELL_TYPES 2
	25
	25

POINT_DATA 40
FIELD U 1
	U 3 40 double
		-2.54238000E+00	 9.13127000E-08	-4.35432000E+00
		 2.54238000E+00	 9.13127000E-08	 4.35432000E+00
		 2.54238000E+00	-9.13127000E-08	 4.35432000E+00
		-2.54238000E+00	-9.13127000E-08	-4.35432000E+00
		 0.00000000E+00	 9.13127000E-08	 0.00000000E+00
		 2.54238000E+00	 0.00000000E+00	 4.35432000E+00
		 0.00000000E+00	-9.13127000E-08	 0.00000000E+00
		-2.54238000E+00	 0.00000000E+00	-4.35432000E+00
		-1.56053000E+01	 8.67044000E-08	 3.27281000E+00
		-1.05206000E+01	 8.67044000E-08	 1.19814000E+01
		-1.05206000E+01	-8.67044000E-08	 1.19814000E+01
		-1.56053000E+01	-8.67044000E-08	 3.27281000E+00
		-2.86683000E+01	 8.21039000E-08	 1.08999000E+01
		-2.35835000E+01	 8.21039000E-08	 1.96085000E+01
		-2.35835000E+01	-8.21039000E-08	 1.96085000E+01
		-2.86683000E+01	-8.21039000E-08	 1.08999000E+01
		-2.61259000E+01	 8.21039000E-08	 1.52542000E+01
		-2.35835000E+01	 0.00000000E+00	 1.96085000E+01
		-2.61259000E+01	-8.21039000E-08	 1.52542000E+01
		-2.86683000E+01	 0.00000000E+00	 1.08999000E+01
		-2.61486000E+01	 1.79954000E-07	 1.57302000E+01
		-2.61032000E+01	 1.79954000E-07	 1.47783000E+01
		-2.61032000E+01	-1.79954000E-07	 1.47783000E+01
		-2.61486000E+01	-1.79954000E-07	 1.57302000E+01
		-2.61259000E+01	 1.79954000E-07	 1.52542000E+01
		-2.61032000E+01	 0.00000000E+00	 1.47783000E+01
		-2.61259000E+01	-1.79954000E-07	 1.52542000E+01
		-2.61486000E+01	 0.00000000E+00	 1.57302000E+01
		-1.18705000E+01	 9.00084000E-08	 1.64112000E+01
		-1.18251000E+01	 9.00084000E-08	 1.54594000E+01
		-1.18251000E+01	-9.00084000E-08	 1.54594000E+01
		-1.18705000E+01	-9.00084000E-08	 1.64112000E+01
		 2.40795000E+00	 0.00000000E+00	 1.70924000E+01
		 2.45336000E+00	 0.00000000E+00	 1.61405000E+01
		 2.45336000E+00	 0.00000000E+00	 1.61405000E+01
		 2.40795000E+00	 0.00000000E+00	 1.70924000E+01
		 2.43065000E+00	 0.00000000E+00	 1.66164000E+01
		 2.45336000E+00	 0.00000000E+00	 1.61405000E+01
		 2.43065000E+00	 0.00000000E+00	 1.66164000E+01
		 2.40795000E+00	 0.00000000E+00	 1.70924000E+01
