# vtk DataFile Version 3.0

ASCII
DATASET UNSTRUCTURED_GRID

POINTS 40 double
	 5.00000000E+00	-5.00000000E+00	 0.00000000E+00
	-5.00000000E+00	-5.00000000E+00	 0.00000000E+00
	-5.00000000E+00	 5.00000000E+00	 0.00000000E+00
	 5.00000000E+00	 5.00000000E+00	 0.00000000E+00
	 0.00000000E+00	-5.00000000E+00	 0.00000000E+00
	-5.00000000E+00	 0.00000000E+00	 0.00000000E+00
	 0.00000000E+00	 5.00000000E+00	 0.00000000E+00
	 5.00000000E+00	 0.00000000E+00	 0.00000000E+00
	 5.00000000E+00	-5.00000000E+00	-1.50000000E+01
	-5.00000000E+00	-5.00000000E+00	-1.50000000E+01
	-5.00000000E+00	 5.00000000E+00	-1.50000000E+01
	 5.00000000E+00	 5.00000000E+00	-1.50000000E+01
	 5.00000000E+00	-5.00000000E+00	-3.00000000E+01
	-5.00000000E+00	-5.00000000E+00	-3.00000000E+01
	-5.00000000E+00	 5.00000000E+00	-3.00000000E+01
	 5.00000000E+00	 5.00000000E+00	-3.00000000E+01
	 0.00000000E+00	-5.00000000E+00	-3.00000000E+01
	-5.00000000E+00	 0.00000000E+00	-3.00000000E+01
	 0.00000000E+00	 5.00000000E+00	-3.00000000E+01
	 5.00000000E+00	 0.00000000E+00	-3.00000000E+01
	 5.00000000E+00	-5.00000000E+00	-3.00000000E+01
	-5.00000000E+00	-5.00000000E+00	-3.00000000E+01
	-5.00000000E+00	 5.00000000E+00	-3.00000000E+01
	 5.00000000E+00	 5.00000000E+00	-3.00000000E+01
	 0.00000000E+00	-5.00000000E+00	-3.00000000E+01
	-5.00000000E+00	 0.00000000E+00	-3.00000000E+01
	 0.00000000E+00	 5.00000000E+00	-3.00000000E+01
	 5.00000000E+00	 0.00000000E+00	-3.00000000E+01
	 5.00000000E+00	-5.00000000E+00	-1.80000000E+02
	-5.00000000E+00	-5.00000000E+00	-1.80000000E+02
	-5.00000000E+00	 5.00000000E+00	-1.80000000E+02
	 5.00000000E+00	 5.00000000E+00	-1.80000000E+02
	 5.00000000E+00	-5.00000000E+00	-3.30000000E+02
	-5.00000000E+00	-5.00000000E+00	-3.30000000E+02
	-5.00000000E+00	 5.00000000E+00	-3.30000000E+02
	 5.00000000E+00	 5.00000000E+00	-3.30000000E+02
	 0.00000000E+00	-5.00000000E+00	-3.30000000E+02
	-5.00000000E+00	 0.00000000E+00	-3.30000000E+02
	 0.00000000E+00	 5.00000000E+00	-3.30000000E+02
	 5.00000000E+00	 0.00000000E+00	-3.30000000E+02

CELLS 2 42
	20 0 12 13 1 3 15 14 2 8 16 9 4 11 18 10 6 7 19 17 5 
	20 20 32 33 21 23 35 34 22 28 36 29 24 31 38 30 26 27 39 37 25 

CELL_TYPES 2
	25
	25

POINT_DATA 40
FIELD U 1
	U 3 40 double
		-1.44024000E+00	 1.37564000E-07	-3.51114000E+00
		 1.44024000E+00	 1.37564000E-07	 3.51114000E+00
		 1.44024000E+00	-1.37564000E-07	 3.51114000E+00
		-1.44024000E+00	-1.37564000E-07	-3.51114000E+00
		 0.00000000E+00	 1.37564000E-07	 0.00000000E+00
		 1.44024000E+00	 0.00000000E+00	 3.51114000E+00
		 0.00000000E+00	-1.37564000E-07	 0.00000000E+00
		-1.44024000E+00	 0.00000000E+00	-3.51114000E+00
		-1.19737000E+01	 1.31134000E-07	 8.09579000E-01
		-9.09318000E+00	 1.31134000E-07	 7.83185000E+00
		-9.09318000E+00	-1.31134000E-07	 7.83185000E+00
		-1.19737000E+01	-1.31134000E-07	 8.09579000E-01
		-2.25070000E+01	 1.24709000E-07	 5.13028000E+00
		-1.96266000E+01	 1.24709000E-07	 1.21525000E+01
		-1.96266000E+01	-1.24709000E-07	 1.21525000E+01
		-2.25070000E+01	-1.24709000E-07	 5.13028000E+00
		-2.10668000E+01	 1.24709000E-07	 8.64141000E+00
		-1.96266000E+01	 0.00000000E+00	 1.21525000E+01
		-2.10668000E+01	-1.24709000E-07	 8.64141000E+00
		-2.25070000E+01	 0.00000000E+00	 5.13028000E+00
		-2.10871000E+01	 1.85780000E-07	 9.09122000E+00
		-2.10465000E+01	 1.85780000E-07	 8.19160000E+00
		-2.10465000E+01	-1.85780000E-07	 8.19160000E+00
		-2.10871000E+01	-1.85780000E-07	 9.09122000E+00
		-2.10668000E+01	 1.85780000E-07	 8.64141000E+00
		-2.10465000E+01	 0.00000000E+00	 8.19160000E+00
		-2.10668000E+01	-1.85780000E-07	 8.64141000E+00
		-2.10871000E+01	 0.00000000E+00	 9.09122000E+00
		-7.59262000E+00	 9.28502000E-08	 9.69945000E+00
		-7.55207000E+00	 9.28502000E-08	 8.79981000E+00
		-7.55207000E+00	-9.28502000E-08	 8.79981000E+00
		-7.59262000E+00	-9.28502000E-08	 9.69945000E+00
		 5.90200000E+00	 0.00000000E+00	 1.03077000E+01
		 5.94255000E+00	 0.00000000E+00	 9.40805000E+00
		 5.94255000E+00	 0.00000000E+00	 9.40805000E+00
		 5.90200000E+00	 0.00000000E+00	 1.03077000E+01
		 5.92228000E+00	 0.00000000E+00	 9.85787000E+00
		 5.94255000E+00	 0.00000000E+00	 9.40805000E+00
		 5.92228000E+00	 0.00000000E+00	 9.85787000E+00
		 5.90200000E+00	 0.00000000E+00	 1.03077000E+01
