# vtk DataFile Version 3.0

ASCII
DATASET UNSTRUCTURED_GRID

POINTS 40 double
	 5.00000000E+00	-5.00000000E+00	 0.00000000E+00
	-5.00000000E+00	-5.00000000E+00	 0.00000000E+00
	-5.00000000E+00	 5.00000000E+00	 0.00000000E+00
	 5.00000000E+00	 5.00000000E+00	 0.00000000E+00
	 0.00000000E+00	-5.00000000E+00	 0.00000000E+00
	-5.00000000E+00	 0.00000000E+00	 0.00000000E+00
	 0.00000000E+00	 5.00000000E+00	 0.00000000E+00
	 5.00000000E+00	 0.00000000E+00	 0.00000000E+00
	 5.00000000E+00	-5.00000000E+00	-1.50000000E+01
	-5.00000000E+00	-5.00000000E+00	-1.50000000E+01
	-5.00000000E+00	 5.00000000E+00	-1.50000000E+01
	 5.00000000E+00	 5.00000000E+00	-1.50000000E+01
	 5.00000000E+00	-5.00000000E+00	-3.00000000E+01
	-5.00000000E+00	-5.00000000E+00	-3.00000000E+01
	-5.00000000E+00	 5.00000000E+00	-3.00000000E+01
	 5.00000000E+00	 5.00000000E+00	-3.00000000E+01
	 0.00000000E+00	-5.00000000E+00	-3.00000000E+01
	-5.00000000E+00	 0.00000000E+00	-3.00000000E+01
	 0.00000000E+00	 5.00000000E+00	-3.00000000E+01
	 5.00000000E+00	 0.00000000E+00	-3.00000000E+01
	 5.00000000E+00	-5.00000000E+00	-3.00000000E+01
	-5.00000000E+00	-5.00000000E+00	-3.00000000E+01
	-5.00000000E+00	 5.00000000E+00	-3.00000000E+01
	 5.00000000E+00	 5.00000000E+00	-3.00000000E+01
	 0.00000000E+00	-5.00000000E+00	-3.00000000E+01
	-5.00000000E+00	 0.00000000E+00	-3.00000000E+01
	 0.00000000E+00	 5.00000000E+00	-3.00000000E+01
	 5.00000000E+00	 0.00000000E+00	-3.00000000E+01
	 5.00000000E+00	-5.00000000E+00	-1.80000000E+02
	-5.00000000E+00	-5.00000000E+00	-1.80000000E+02
	-5.00000000E+00	 5.00000000E+00	-1.80000000E+02
	 5.00000000E+00	 5.00000000E+00	-1.80000000E+02
	 5.00000000E+00	-5.00000000E+00	-3.30000000E+02
	-5.00000000E+00	-5.00000000E+00	-3.30000000E+02
	-5.00000000E+00	 5.00000000E+00	-3.30000000E+02
	 5.00000000E+00	 5.00000000E+00	-3.30000000E+02
	 0.00000000E+00	-5.00000000E+00	-3.30000000E+02
	-5.00000000E+00	 0.00000000E+00	-3.30000000E+02
	 0.00000000E+00	 5.00000000E+00	-3.30000000E+02
	 5.00000000E+00	 0.00000000E+00	-3.30000000E+02

CELLS 2 42
	20 0 12 13 1 3 15 14 2 8 16 9 4 11 18 10 6 7 19 17 5 
	20 20 32 33 21 23 35 34 22 28 36 29 24 31 38 30 26 27 39 37 25 

CELL_TYPES 2
	25
	25

POINT_DATA 40
FIELD U 1
	U 3 40 double
		-9.57754000E+00	-1.46228000E-07	-2.01149000E+00
		 9.57754000E+00	-1.46228000E-07	 2.01149000E+00
		 9.57754000E+00	 1.46228000E-07	 2.01149000E+00
		-9.57754000E+00	 1.46228000E-07	-2.01149000E+00
		 0.00000000E+00	-1.46228000E-07	 0.00000000E+00
		 9.57754000E+00	 0.00000000E+00	 2.01149000E+00
		 0.00000000E+00	 1.46228000E-07	 0.00000000E+00
		-9.57754000E+00	 0.00000000E+00	-2.01149000E+00
		-1.56120000E+01	-1.39083000E-07	 2.67211000E+01
		 3.54306000E+00	-1.39083000E-07	 3.07441000E+01
		 3.54306000E+00	 1.39083000E-07	 3.07441000E+01
		-1.56120000E+01	 1.39083000E-07	 2.67211000E+01
		-2.16465000E+01	-1.31936000E-07	 5.54537000E+01
		-2.49144000E+00	-1.31936000E-07	 5.94767000E+01
		-2.49144000E+00	 1.31936000E-07	 5.94767000E+01
		-2.16465000E+01	 1.31936000E-07	 5.54537000E+01
		-1.20690000E+01	-1.31936000E-07	 5.74652000E+01
		-2.49144000E+00	 0.00000000E+00	 5.94767000E+01
		-1.20690000E+01	 1.31936000E-07	 5.74652000E+01
		-2.16465000E+01	 0.00000000E+00	 5.54537000E+01
		-1.21545000E+01	 1.57021000E-07	 5.65446000E+01
		-1.19835000E+01	 1.57021000E-07	 5.83859000E+01
		-1.19835000E+01	-1.57021000E-07	 5.83859000E+01
		-1.21545000E+01	-1.57021000E-07	 5.65446000E+01
		-1.20690000E+01	 1.57021000E-07	 5.74652000E+01
		-1.19835000E+01	 0.00000000E+00	 5.83859000E+01
		-1.20690000E+01	-1.57021000E-07	 5.74652000E+01
		-1.21545000E+01	 0.00000000E+00	 5.65446000E+01
		-3.97747000E+01	 7.88820000E-08	 5.91094000E+01
		-3.96037000E+01	 7.88820000E-08	 6.09508000E+01
		-3.96037000E+01	-7.88820000E-08	 6.09508000E+01
		-3.97747000E+01	-7.88820000E-08	 5.91094000E+01
		-6.73951000E+01	 0.00000000E+00	 6.16743000E+01
		-6.72241000E+01	 0.00000000E+00	 6.35156000E+01
		-6.72241000E+01	 0.00000000E+00	 6.35156000E+01
		-6.73951000E+01	 0.00000000E+00	 6.16743000E+01
		-6.73096000E+01	 0.00000000E+00	 6.25950000E+01
		-6.72241000E+01	 0.00000000E+00	 6.35156000E+01
		-6.73096000E+01	 0.00000000E+00	 6.25950000E+01
		-6.73951000E+01	 0.00000000E+00	 6.16743000E+01
