<?xml version="1.0"?>
<VTKFile type="UnstructuredGrid" version="0.1" byte_order="LittleEndian">
	<UnstructuredGrid>
		<Piece NumberOfPoints="40" NumberOfCells="2">
			<Points>
				<DataArray type="Float64" NumberOfComponents="3" format="ascii">
					 5.00000000E+00	-5.00000000E+00	 0.00000000E+00
					-5.00000000E+00	-5.00000000E+00	 0.00000000E+00
					-5.00000000E+00	 5.00000000E+00	 0.00000000E+00
					 5.00000000E+00	 5.00000000E+00	 0.00000000E+00
					 0.00000000E+00	-5.00000000E+00	 0.00000000E+00
					-5.00000000E+00	 0.00000000E+00	 0.00000000E+00
					 0.00000000E+00	 5.00000000E+00	 0.00000000E+00
					 5.00000000E+00	 0.00000000E+00	 0.00000000E+00
					 5.00000000E+00	-5.00000000E+00	-1.50000000E+01
					-5.00000000E+00	-5.00000000E+00	-1.50000000E+01
					-5.00000000E+00	 5.00000000E+00	-1.50000000E+01
					 5.00000000E+00	 5.00000000E+00	-1.50000000E+01
					 5.00000000E+00	-5.00000000E+00	-3.00000000E+01
					-5.00000000E+00	-5.00000000E+00	-3.00000000E+01
					-5.00000000E+00	 5.00000000E+00	-3.00000000E+01
					 5.00000000E+00	 5.00000000E+00	-3.00000000E+01
					 0.00000000E+00	-5.00000000E+00	-3.00000000E+01
					-5.00000000E+00	 0.00000000E+00	-3.00000000E+01
					 0.00000000E+00	 5.00000000E+00	-3.00000000E+01
					 5.00000000E+00	 0.00000000E+00	-3.00000000E+01
					 5.00000000E+00	-5.00000000E+00	-3.00000000E+01
					-5.00000000E+00	-5.00000000E+00	-3.00000000E+01
					-5.00000000E+00	 5.00000000E+00	-3.00000000E+01
					 5.00000000E+00	 5.00000000E+00	-3.00000000E+01
					 0.00000000E+00	-5.00000000E+00	-3.00000000E+01
					-5.00000000E+00	 0.00000000E+00	-3.00000000E+01
					 0.00000000E+00	 5.00000000E+00	-3.00000000E+01
					 5.00000000E+00	 0.00000000E+00	-3.00000000E+01
					 5.00000000E+00	-5.00000000E+00	-1.80000000E+02
					-5.00000000E+00	-5.00000000E+00	-1.80000000E+02
					-5.00000000E+00	 5.00000000E+00	-1.80000000E+02
					 5.00000000E+00	 5.00000000E+00	-1.80000000E+02
					 5.00000000E+00	-5.00000000E+00	-3.30000000E+02
					-5.00000000E+00	-5.00000000E+00	-3.30000000E+02
					-5.00000000E+00	 5.00000000E+00	-3.30000000E+02
					 5.00000000E+00	 5.00000000E+00	-3.30000000E+02
					 0.00000000E+00	-5.00000000E+00	-3.30000000E+02
					-5.00000000E+00	 0.00000000E+00	-3.30000000E+02
					 0.00000000E+00	 5.00000000E+00	-3.30000000E+02
					 5.00000000E+00	 0.00000000E+00	-3.30000000E+02

				</DataArray>
			</Points>
			<Cells>
				<DataArray type="Int32" Name="connectivity" format="ascii">
					0 12 13 1 3 15 14 2 8 16 9 4 11 18 10 6 7 19 17 5 20 32 33 21 23 35 34 22 28 36 29 24 31 38 30 26 27 39 37 25 
				</DataArray>
				<DataArray type="Int32" Name="offsets" format="ascii">
					20 40 
				</DataArray>
				<DataArray type="UInt8" Name="types" format="ascii">
					25 25 
				</DataArray>
			</Cells>
			<PointData>
				<DataArray type="Float32" Name="U" NumberOfComponents="3" ComponentName0="D1" ComponentName1="D2" ComponentName2="D3" format="ascii">
					-7.82280000E+00	-9.22548000E-08	-4.12696000E+00
					 7.82280000E+00	-9.22548000E-08	 4.12696000E+00
					 7.82280000E+00	 9.22548000E-08	 4.12696000E+00
					-7.82280000E+00	 9.22548000E-08	-4.12696000E+00
					 0.00000000E+00	-9.22548000E-08	 0.00000000E+00
					 7.82280000E+00	 0.00000000E+00	 4.12696000E+00
					 0.00000000E+00	 9.22548000E-08	 0.00000000E+00
					-7.82280000E+00	 0.00000000E+00	-4.12696000E+00
					-2.02037000E+01	-8.80442000E-08	 1.93414000E+01
					-4.55809000E+00	-8.80442000E-08	 2.75954000E+01
					-4.55809000E+00	 8.80442000E-08	 2.75954000E+01
					-2.02037000E+01	 8.80442000E-08	 1.93414000E+01
					-3.25846000E+01	-8.38272000E-08	 4.28098000E+01
					-1.69390000E+01	-8.38272000E-08	 5.10637000E+01
					-1.69390000E+01	 8.38272000E-08	 5.10637000E+01
					-3.25846000E+01	 8.38272000E-08	 4.28098000E+01
					-2.47618000E+01	-8.38272000E-08	 4.69368000E+01
					-1.69390000E+01	 0.00000000E+00	 5.10637000E+01
					-2.47618000E+01	 8.38272000E-08	 4.69368000E+01
					-3.25846000E+01	 0.00000000E+00	 4.28098000E+01
					-2.47711000E+01	 1.67510000E-07	 4.66321000E+01
					-2.47525000E+01	 1.67510000E-07	 4.72414000E+01
					-2.47525000E+01	-1.67510000E-07	 4.72414000E+01
					-2.47711000E+01	-1.67510000E-07	 4.66321000E+01
					-2.47618000E+01	 1.67510000E-07	 4.69368000E+01
					-2.47525000E+01	 0.00000000E+00	 4.72414000E+01
					-2.47618000E+01	-1.67510000E-07	 4.69368000E+01
					-2.47711000E+01	 0.00000000E+00	 4.66321000E+01
					-3.39098000E+01	 8.42221000E-08	 4.69108000E+01
					-3.38912000E+01	 8.42221000E-08	 4.75200000E+01
					-3.38912000E+01	-8.42221000E-08	 4.75200000E+01
					-3.39098000E+01	-8.42221000E-08	 4.69108000E+01
					-4.30485000E+01	 0.00000000E+00	 4.71894000E+01
					-4.30299000E+01	 0.00000000E+00	 4.77987000E+01
					-4.30299000E+01	 0.00000000E+00	 4.77987000E+01
					-4.30485000E+01	 0.00000000E+00	 4.71894000E+01
					-4.30392000E+01	 0.00000000E+00	 4.74940000E+01
					-4.30299000E+01	 0.00000000E+00	 4.77987000E+01
					-4.30392000E+01	 0.00000000E+00	 4.74940000E+01
					-4.30485000E+01	 0.00000000E+00	 4.71894000E+01
				</DataArray>
			</PointData>
		</Piece>
	</UnstructuredGrid>
</VTKFile>