<?xml version="1.0"?>
<VTKFile type="UnstructuredGrid" version="0.1" byte_order="LittleEndian">
	<UnstructuredGrid>
		<Piece NumberOfPoints="40" NumberOfCells="2">
			<Points>
				<DataArray type="Float64" NumberOfComponents="3" format="ascii">
					 5.00000000E+00	-5.00000000E+00	 0.00000000E+00
					-5.00000000E+00	-5.00000000E+00	 0.00000000E+00
					-5.00000000E+00	 5.00000000E+00	 0.00000000E+00
					 5.00000000E+00	 5.00000000E+00	 0.00000000E+00
					 0.00000000E+00	-5.00000000E+00	 0.00000000E+00
					-5.00000000E+00	 0.00000000E+00	 0.00000000E+00
					 0.00000000E+00	 5.00000000E+00	 0.00000000E+00
					 5.00000000E+00	 0.00000000E+00	 0.00000000E+00
					 5.00000000E+00	-5.00000000E+00	-1.50000000E+01
					-5.00000000E+00	-5.00000000E+00	-1.50000000E+01
					-5.00000000E+00	 5.00000000E+00	-1.50000000E+01
					 5.00000000E+00	 5.00000000E+00	-1.50000000E+01
					 5.00000000E+00	-5.00000000E+00	-3.00000000E+01
					-5.00000000E+00	-5.00000000E+00	-3.00000000E+01
					-5.00000000E+00	 5.00000000E+00	-3.00000000E+01
					 5.00000000E+00	 5.00000000E+00	-3.00000000E+01
					 0.00000000E+00	-5.00000000E+00	-3.00000000E+01
					-5.00000000E+00	 0.00000000E+00	-3.00000000E+01
					 0.00000000E+00	 5.00000000E+00	-3.00000000E+01
					 5.00000000E+00	 0.00000000E+00	-3.00000000E+01
					 5.00000000E+00	-5.00000000E+00	-3.00000000E+01
					-5.00000000E+00	-5.00000000E+00	-3.00000000E+01
					-5.00000000E+00	 5.00000000E+00	-3.00000000E+01
					 5.00000000E+00	 5.00000000E+00	-3.00000000E+01
					 0.00000000E+00	-5.00000000E+00	-3.00000000E+01
					-5.00000000E+00	 0.00000000E+00	-3.00000000E+01
					 0.00000000E+00	 5.00000000E+00	-3.00000000E+01
					 5.00000000E+00	 0.00000000E+00	-3.00000000E+01
					 5.00000000E+00	-5.00000000E+00	-1.80000000E+02
					-5.00000000E+00	-5.00000000E+00	-1.80000000E+02
					-5.00000000E+00	 5.00000000E+00	-1.80000000E+02
					 5.00000000E+00	 5.00000000E+00	-1.80000000E+02
					 5.00000000E+00	-5.00000000E+00	-3.30000000E+02
					-5.00000000E+00	-5.00000000E+00	-3.30000000E+02
					-5.00000000E+00	 5.00000000E+00	-3.30000000E+02
					 5.00000000E+00	 5.00000000E+00	-3.30000000E+02
					 0.00000000E+00	-5.00000000E+00	-3.30000000E+02
					-5.00000000E+00	 0.00000000E+00	-3.30000000E+02
					 0.00000000E+00	 5.00000000E+00	-3.30000000E+02
					 5.00000000E+00	 0.00000000E+00	-3.30000000E+02

				</DataArray>
			</Points>
			<Cells>
				<DataArray type="Int32" Name="connectivity" format="ascii">
					0 12 13 1 3 15 14 2 8 16 9 4 11 18 10 6 7 19 17 5 20 32 33 21 23 35 34 22 28 36 29 24 31 38 30 26 27 39 37 25 
				</DataArray>
				<DataArray type="Int32" Name="offsets" format="ascii">
					20 40 
				</DataArray>
				<DataArray type="UInt8" Name="types" format="ascii">
					25 25 
				</DataArray>
			</Cells>
			<PointData>
				<DataArray type="Float32" Name="U" NumberOfComponents="3" ComponentName0="D1" ComponentName1="D2" ComponentName2="D3" format="ascii">
					-2.52841000E-05	 3.80304000E-07	-1.57809000E-02
					 2.52841000E-05	 3.80304000E-07	 1.57809000E-02
					 2.52841000E-05	-3.80304000E-07	 1.57809000E-02
					-2.52841000E-05	-3.80304000E-07	-1.57809000E-02
					 0.00000000E+00	 3.80304000E-07	 0.00000000E+00
					 2.52841000E-05	 0.00000000E+00	 1.57809000E-02
					 0.00000000E+00	-3.80304000E-07	 0.00000000E+00
					-2.52841000E-05	 0.00000000E+00	-1.57809000E-02
					-4.67292000E-02	 3.69834000E-07	-1.53846000E-02
					-4.66807000E-02	 3.69834000E-07	 1.55226000E-02
					-4.66807000E-02	-3.69834000E-07	 1.55226000E-02
					-4.67292000E-02	-3.69834000E-07	-1.53846000E-02
					-9.27161000E-02	 3.63150000E-07	-1.51583000E-02
					-9.26686000E-02	 3.63150000E-07	 1.54299000E-02
					-9.26686000E-02	-3.63150000E-07	 1.54299000E-02
					-9.27161000E-02	-3.63150000E-07	-1.51583000E-02
					-9.26923000E-02	 3.63150000E-07	 1.35805000E-04
					-9.26686000E-02	 0.00000000E+00	 1.54299000E-02
					-9.26923000E-02	-3.63150000E-07	 1.35805000E-04
					-9.27161000E-02	 0.00000000E+00	-1.51583000E-02
					-9.26950000E-02	 5.62849000E-07	 4.72691000E-03
					-9.26896000E-02	 5.62849000E-07	-4.45530000E-03
					-9.26896000E-02	-5.62849000E-07	-4.45530000E-03
					-9.26950000E-02	-5.62849000E-07	 4.72691000E-03
					-9.26923000E-02	 5.62849000E-07	 1.35805000E-04
					-9.26896000E-02	 0.00000000E+00	-4.45530000E-03
					-9.26923000E-02	-5.62849000E-07	 1.35805000E-04
					-9.26950000E-02	 0.00000000E+00	 4.72691000E-03
					-3.25865000E-04	 9.60679000E-08	 1.69311000E-03
					-3.25190000E-04	 9.60679000E-08	-1.41655000E-03
					-3.25190000E-04	-9.60679000E-08	-1.41655000E-03
					-3.25865000E-04	-9.60679000E-08	 1.69311000E-03
					 5.98030000E-04	 1.83959000E-07	-1.35019000E-03
					 5.98837000E-04	 1.83959000E-07	 1.61270000E-03
					 5.98837000E-04	-1.83959000E-07	 1.61270000E-03
					 5.98030000E-04	-1.83959000E-07	-1.35019000E-03
					 5.98434000E-04	 1.83959000E-07	 1.31258000E-04
					 5.98837000E-04	 0.00000000E+00	 1.61270000E-03
					 5.98434000E-04	-1.83959000E-07	 1.31258000E-04
					 5.98030000E-04	 0.00000000E+00	-1.35019000E-03
				</DataArray>
			</PointData>
		</Piece>
	</UnstructuredGrid>
</VTKFile>