<?xml version="1.0"?>
<VTKFile type="UnstructuredGrid" version="0.1" byte_order="LittleEndian">
	<UnstructuredGrid>
		<Piece NumberOfPoints="40" NumberOfCells="2">
			<Points>
				<DataArray type="Float64" NumberOfComponents="3" format="ascii">
					 5.00000000E+00	-5.00000000E+00	 0.00000000E+00
					-5.00000000E+00	-5.00000000E+00	 0.00000000E+00
					-5.00000000E+00	 5.00000000E+00	 0.00000000E+00
					 5.00000000E+00	 5.00000000E+00	 0.00000000E+00
					 0.00000000E+00	-5.00000000E+00	 0.00000000E+00
					-5.00000000E+00	 0.00000000E+00	 0.00000000E+00
					 0.00000000E+00	 5.00000000E+00	 0.00000000E+00
					 5.00000000E+00	 0.00000000E+00	 0.00000000E+00
					 5.00000000E+00	-5.00000000E+00	-1.50000000E+01
					-5.00000000E+00	-5.00000000E+00	-1.50000000E+01
					-5.00000000E+00	 5.00000000E+00	-1.50000000E+01
					 5.00000000E+00	 5.00000000E+00	-1.50000000E+01
					 5.00000000E+00	-5.00000000E+00	-3.00000000E+01
					-5.00000000E+00	-5.00000000E+00	-3.00000000E+01
					-5.00000000E+00	 5.00000000E+00	-3.00000000E+01
					 5.00000000E+00	 5.00000000E+00	-3.00000000E+01
					 0.00000000E+00	-5.00000000E+00	-3.00000000E+01
					-5.00000000E+00	 0.00000000E+00	-3.00000000E+01
					 0.00000000E+00	 5.00000000E+00	-3.00000000E+01
					 5.00000000E+00	 0.00000000E+00	-3.00000000E+01
					 5.00000000E+00	-5.00000000E+00	-3.00000000E+01
					-5.00000000E+00	-5.00000000E+00	-3.00000000E+01
					-5.00000000E+00	 5.00000000E+00	-3.00000000E+01
					 5.00000000E+00	 5.00000000E+00	-3.00000000E+01
					 0.00000000E+00	-5.00000000E+00	-3.00000000E+01
					-5.00000000E+00	 0.00000000E+00	-3.00000000E+01
					 0.00000000E+00	 5.00000000E+00	-3.00000000E+01
					 5.00000000E+00	 0.00000000E+00	-3.00000000E+01
					 5.00000000E+00	-5.00000000E+00	-1.80000000E+02
					-5.00000000E+00	-5.00000000E+00	-1.80000000E+02
					-5.00000000E+00	 5.00000000E+00	-1.80000000E+02
					 5.00000000E+00	 5.00000000E+00	-1.80000000E+02
					 5.00000000E+00	-5.00000000E+00	-3.30000000E+02
					-5.00000000E+00	-5.00000000E+00	-3.30000000E+02
					-5.00000000E+00	 5.00000000E+00	-3.30000000E+02
					 5.00000000E+00	 5.00000000E+00	-3.30000000E+02
					 0.00000000E+00	-5.00000000E+00	-3.30000000E+02
					-5.00000000E+00	 0.00000000E+00	-3.30000000E+02
					 0.00000000E+00	 5.00000000E+00	-3.30000000E+02
					 5.00000000E+00	 0.00000000E+00	-3.30000000E+02

				</DataArray>
			</Points>
			<Cells>
				<DataArray type="Int32" Name="connectivity" format="ascii">
					0 12 13 1 3 15 14 2 8 16 9 4 11 18 10 6 7 19 17 5 20 32 33 21 23 35 34 22 28 36 29 24 31 38 30 26 27 39 37 25 
				</DataArray>
				<DataArray type="Int32" Name="offsets" format="ascii">
					20 40 
				</DataArray>
				<DataArray type="UInt8" Name="types" format="ascii">
					25 25 
				</DataArray>
			</Cells>
			<PointData>
				<DataArray type="Float32" Name="U" NumberOfComponents="3" ComponentName0="D1" ComponentName1="D2" ComponentName2="D3" format="ascii">
					-1.48631000E-03	 2.53150000E-07	-1.21895000E-01
					 1.48631000E-03	 2.53150000E-07	 1.21895000E-01
					 1.48631000E-03	-2.53150000E-07	 1.21895000E-01
					-1.48631000E-03	-2.53150000E-07	-1.21895000E-01
					 0.00000000E+00	 2.53150000E-07	 0.00000000E+00
					 1.48631000E-03	 0.00000000E+00	 1.21895000E-01
					 0.00000000E+00	-2.53150000E-07	 0.00000000E+00
					-1.48631000E-03	 0.00000000E+00	-1.21895000E-01
					-3.67084000E-01	 2.43528000E-07	-1.17396000E-01
					-3.64114000E-01	 2.43528000E-07	 1.26303000E-01
					-3.64114000E-01	-2.43528000E-07	 1.26303000E-01
					-3.67084000E-01	-2.43528000E-07	-1.17396000E-01
					-7.32580000E-01	 2.34067000E-07	-1.12922000E-01
					-7.29611000E-01	 2.34067000E-07	 1.30732000E-01
					-7.29611000E-01	-2.34067000E-07	 1.30732000E-01
					-7.32580000E-01	-2.34067000E-07	-1.12922000E-01
					-7.31096000E-01	 2.34067000E-07	 8.90476000E-03
					-7.29611000E-01	 0.00000000E+00	 1.30732000E-01
					-7.31096000E-01	-2.34067000E-07	 8.90476000E-03
					-7.32580000E-01	 0.00000000E+00	-1.12922000E-01
					-7.31133000E-01	 2.82439000E-07	 2.80654000E-02
					-7.31059000E-01	 2.82439000E-07	-1.02559000E-02
					-7.31059000E-01	-2.82439000E-07	-1.02559000E-02
					-7.31133000E-01	-2.82439000E-07	 2.80654000E-02
					-7.31096000E-01	 2.82439000E-07	 8.90476000E-03
					-7.31059000E-01	 0.00000000E+00	-1.02559000E-02
					-7.31096000E-01	-2.82439000E-07	 8.90476000E-03
					-7.31133000E-01	 0.00000000E+00	 2.80654000E-02
					-1.74082000E-01	 1.14406000E-07	 2.78915000E-02
					-1.74017000E-01	 1.14406000E-07	-8.05084000E-03
					-1.74017000E-01	-1.14406000E-07	-8.05084000E-03
					-1.74082000E-01	-1.14406000E-07	 2.78915000E-02
					 3.47146000E-01	 3.14760000E-08	 2.76014000E-02
					 3.47203000E-01	 3.14760000E-08	-5.96201000E-03
					 3.47203000E-01	-3.14760000E-08	-5.96201000E-03
					 3.47146000E-01	-3.14760000E-08	 2.76014000E-02
					 3.47175000E-01	 3.14760000E-08	 1.08197000E-02
					 3.47203000E-01	 0.00000000E+00	-5.96201000E-03
					 3.47175000E-01	-3.14760000E-08	 1.08197000E-02
					 3.47146000E-01	 0.00000000E+00	 2.76014000E-02
				</DataArray>
			</PointData>
		</Piece>
	</UnstructuredGrid>
</VTKFile>