# vtk DataFile Version 3.0

ASCII
DATASET UNSTRUCTURED_GRID

POINTS 40 double
	 5.00000000E+00	-5.00000000E+00	 0.00000000E+00
	-5.00000000E+00	-5.00000000E+00	 0.00000000E+00
	-5.00000000E+00	 5.00000000E+00	 0.00000000E+00
	 5.00000000E+00	 5.00000000E+00	 0.00000000E+00
	 0.00000000E+00	-5.00000000E+00	 0.00000000E+00
	-5.00000000E+00	 0.00000000E+00	 0.00000000E+00
	 0.00000000E+00	 5.00000000E+00	 0.00000000E+00
	 5.00000000E+00	 0.00000000E+00	 0.00000000E+00
	 5.00000000E+00	-5.00000000E+00	-1.50000000E+01
	-5.00000000E+00	-5.00000000E+00	-1.50000000E+01
	-5.00000000E+00	 5.00000000E+00	-1.50000000E+01
	 5.00000000E+00	 5.00000000E+00	-1.50000000E+01
	 5.00000000E+00	-5.00000000E+00	-3.00000000E+01
	-5.00000000E+00	-5.00000000E+00	-3.00000000E+01
	-5.00000000E+00	 5.00000000E+00	-3.00000000E+01
	 5.00000000E+00	 5.00000000E+00	-3.00000000E+01
	 0.00000000E+00	-5.00000000E+00	-3.00000000E+01
	-5.00000000E+00	 0.00000000E+00	-3.00000000E+01
	 0.00000000E+00	 5.00000000E+00	-3.00000000E+01
	 5.00000000E+00	 0.00000000E+00	-3.00000000E+01
	 5.00000000E+00	-5.00000000E+00	-3.00000000E+01
	-5.00000000E+00	-5.00000000E+00	-3.00000000E+01
	-5.00000000E+00	 5.00000000E+00	-3.00000000E+01
	 5.00000000E+00	 5.00000000E+00	-3.00000000E+01
	 0.00000000E+00	-5.00000000E+00	-3.00000000E+01
	-5.00000000E+00	 0.00000000E+00	-3.00000000E+01
	 0.00000000E+00	 5.00000000E+00	-3.00000000E+01
	 5.00000000E+00	 0.00000000E+00	-3.00000000E+01
	 5.00000000E+00	-5.00000000E+00	-1.80000000E+02
	-5.00000000E+00	-5.00000000E+00	-1.80000000E+02
	-5.00000000E+00	 5.00000000E+00	-1.80000000E+02
	 5.00000000E+00	 5.00000000E+00	-1.80000000E+02
	 5.00000000E+00	-5.00000000E+00	-3.30000000E+02
	-5.00000000E+00	-5.00000000E+00	-3.30000000E+02
	-5.00000000E+00	 5.00000000E+00	-3.30000000E+02
	 5.00000000E+00	 5.00000000E+00	-3.30000000E+02
	 0.00000000E+00	-5.00000000E+00	-3.30000000E+02
	-5.00000000E+00	 0.00000000E+00	-3.30000000E+02
	 0.00000000E+00	 5.00000000E+00	-3.30000000E+02
	 5.00000000E+00	 0.00000000E+00	-3.30000000E+02

CELLS 2 42
	20 0 12 13 1 3 15 14 2 8 16 9 4 11 18 10 6 7 19 17 5 
	20 20 32 33 21 23 35 34 22 28 36 29 24 31 38 30 26 27 39 37 25 

CELL_TYPES 2
	25
	25

POINT_DATA 40
FIELD U 1
	U 3 40 double
		-8.34129000E+00	-1.28814000E-07	 3.71965000E+00
		 8.34129000E+00	-1.28814000E-07	-3.71965000E+00
		 8.34129000E+00	 1.28814000E-07	-3.71965000E+00
		-8.34129000E+00	 1.28814000E-07	 3.71965000E+00
		 0.00000000E+00	-1.28814000E-07	 0.00000000E+00
		 8.34129000E+00	 0.00000000E+00	-3.71965000E+00
		 0.00000000E+00	 1.28814000E-07	 0.00000000E+00
		-8.34129000E+00	 0.00000000E+00	 3.71965000E+00
		 2.81767000E+00	-1.23736000E-07	 2.87435000E+01
		 1.95002000E+01	-1.23736000E-07	 2.13042000E+01
		 1.95002000E+01	 1.23736000E-07	 2.13042000E+01
		 2.81767000E+00	 1.23736000E-07	 2.87435000E+01
		 1.39766000E+01	-1.18655000E-07	 5.37674000E+01
		 3.06592000E+01	-1.18655000E-07	 4.63280000E+01
		 3.06592000E+01	 1.18655000E-07	 4.63280000E+01
		 1.39766000E+01	 1.18655000E-07	 5.37674000E+01
		 2.23179000E+01	-1.18655000E-07	 5.00477000E+01
		 3.06592000E+01	 0.00000000E+00	 4.63280000E+01
		 2.23179000E+01	 1.18655000E-07	 5.00477000E+01
		 1.39766000E+01	 0.00000000E+00	 5.37674000E+01
		 2.21826000E+01	 1.53788000E-07	 4.88922000E+01
		 2.24533000E+01	 1.53788000E-07	 5.12032000E+01
		 2.24533000E+01	-1.53788000E-07	 5.12032000E+01
		 2.21826000E+01	-1.53788000E-07	 4.88922000E+01
		 2.23179000E+01	 1.53788000E-07	 5.00477000E+01
		 2.24533000E+01	 0.00000000E+00	 5.12032000E+01
		 2.23179000E+01	-1.53788000E-07	 5.00477000E+01
		 2.21826000E+01	 0.00000000E+00	 4.88922000E+01
		-1.24833000E+01	 7.71474000E-08	 5.29529000E+01
		-1.22125000E+01	 7.71474000E-08	 5.52639000E+01
		-1.22125000E+01	-7.71474000E-08	 5.52639000E+01
		-1.24833000E+01	-7.71474000E-08	 5.29529000E+01
		-4.71495000E+01	 0.00000000E+00	 5.70136000E+01
		-4.68788000E+01	 0.00000000E+00	 5.93247000E+01
		-4.68788000E+01	 0.00000000E+00	 5.93247000E+01
		-4.71495000E+01	 0.00000000E+00	 5.70136000E+01
		-4.70141000E+01	 0.00000000E+00	 5.81692000E+01
		-4.68788000E+01	 0.00000000E+00	 5.93247000E+01
		-4.70141000E+01	 0.00000000E+00	 5.81692000E+01
		-4.71495000E+01	 0.00000000E+00	 5.70136000E+01
