<?xml version="1.0"?>
<VTKFile type="UnstructuredGrid" version="0.1" byte_order="LittleEndian">
	<UnstructuredGrid>
		<Piece NumberOfPoints="40" NumberOfCells="2">
			<Points>
				<DataArray type="Float64" NumberOfComponents="3" format="ascii">
					 5.00000000E+00	-5.00000000E+00	 0.00000000E+00
					-5.00000000E+00	-5.00000000E+00	 0.00000000E+00
					-5.00000000E+00	 5.00000000E+00	 0.00000000E+00
					 5.00000000E+00	 5.00000000E+00	 0.00000000E+00
					 0.00000000E+00	-5.00000000E+00	 0.00000000E+00
					-5.00000000E+00	 0.00000000E+00	 0.00000000E+00
					 0.00000000E+00	 5.00000000E+00	 0.00000000E+00
					 5.00000000E+00	 0.00000000E+00	 0.00000000E+00
					 5.00000000E+00	-5.00000000E+00	-1.50000000E+01
					-5.00000000E+00	-5.00000000E+00	-1.50000000E+01
					-5.00000000E+00	 5.00000000E+00	-1.50000000E+01
					 5.00000000E+00	 5.00000000E+00	-1.50000000E+01
					 5.00000000E+00	-5.00000000E+00	-3.00000000E+01
					-5.00000000E+00	-5.00000000E+00	-3.00000000E+01
					-5.00000000E+00	 5.00000000E+00	-3.00000000E+01
					 5.00000000E+00	 5.00000000E+00	-3.00000000E+01
					 0.00000000E+00	-5.00000000E+00	-3.00000000E+01
					-5.00000000E+00	 0.00000000E+00	-3.00000000E+01
					 0.00000000E+00	 5.00000000E+00	-3.00000000E+01
					 5.00000000E+00	 0.00000000E+00	-3.00000000E+01
					 5.00000000E+00	-5.00000000E+00	-3.00000000E+01
					-5.00000000E+00	-5.00000000E+00	-3.00000000E+01
					-5.00000000E+00	 5.00000000E+00	-3.00000000E+01
					 5.00000000E+00	 5.00000000E+00	-3.00000000E+01
					 0.00000000E+00	-5.00000000E+00	-3.00000000E+01
					-5.00000000E+00	 0.00000000E+00	-3.00000000E+01
					 0.00000000E+00	 5.00000000E+00	-3.00000000E+01
					 5.00000000E+00	 0.00000000E+00	-3.00000000E+01
					 5.00000000E+00	-5.00000000E+00	-1.80000000E+02
					-5.00000000E+00	-5.00000000E+00	-1.80000000E+02
					-5.00000000E+00	 5.00000000E+00	-1.80000000E+02
					 5.00000000E+00	 5.00000000E+00	-1.80000000E+02
					 5.00000000E+00	-5.00000000E+00	-3.30000000E+02
					-5.00000000E+00	-5.00000000E+00	-3.30000000E+02
					-5.00000000E+00	 5.00000000E+00	-3.30000000E+02
					 5.00000000E+00	 5.00000000E+00	-3.30000000E+02
					 0.00000000E+00	-5.00000000E+00	-3.30000000E+02
					-5.00000000E+00	 0.00000000E+00	-3.30000000E+02
					 0.00000000E+00	 5.00000000E+00	-3.30000000E+02
					 5.00000000E+00	 0.00000000E+00	-3.30000000E+02

				</DataArray>
			</Points>
			<Cells>
				<DataArray type="Int32" Name="connectivity" format="ascii">
					0 12 13 1 3 15 14 2 8 16 9 4 11 18 10 6 7 19 17 5 20 32 33 21 23 35 34 22 28 36 29 24 31 38 30 26 27 39 37 25 
				</DataArray>
				<DataArray type="Int32" Name="offsets" format="ascii">
					20 40 
				</DataArray>
				<DataArray type="UInt8" Name="types" format="ascii">
					25 25 
				</DataArray>
			</Cells>
			<PointData>
				<DataArray type="Float32" Name="U" NumberOfComponents="3" ComponentName0="D1" ComponentName1="D2" ComponentName2="D3" format="ascii">
					-2.44287000E-06	 4.58281000E-07	-4.45487000E-03
					 2.44287000E-06	 4.58281000E-07	 4.45487000E-03
					 2.44287000E-06	-4.58281000E-07	 4.45487000E-03
					-2.44287000E-06	-4.58281000E-07	-4.45487000E-03
					 0.00000000E+00	 4.58281000E-07	 0.00000000E+00
					 2.44287000E-06	 0.00000000E+00	 4.45487000E-03
					 0.00000000E+00	-4.58281000E-07	 0.00000000E+00
					-2.44287000E-06	 0.00000000E+00	-4.45487000E-03
					-1.42111000E-02	 4.45305000E-07	-4.88879000E-03
					-1.42055000E-02	 4.45305000E-07	 4.89323000E-03
					-1.42055000E-02	-4.45305000E-07	 4.89323000E-03
					-1.42111000E-02	-4.45305000E-07	-4.88879000E-03
					-2.93860000E-02	 4.39080000E-07	-5.10102000E-03
					-2.93799000E-02	 4.39080000E-07	 5.11200000E-03
					-2.93799000E-02	-4.39080000E-07	 5.11200000E-03
					-2.93860000E-02	-4.39080000E-07	-5.10102000E-03
					-2.93829000E-02	 4.39080000E-07	 5.49033000E-06
					-2.93799000E-02	 0.00000000E+00	 5.11200000E-03
					-2.93829000E-02	-4.39080000E-07	 5.49033000E-06
					-2.93860000E-02	 0.00000000E+00	-5.10102000E-03
					-2.93838000E-02	 4.99348000E-07	 1.93037000E-03
					-2.93821000E-02	 4.99348000E-07	-1.91939000E-03
					-2.93821000E-02	-4.99348000E-07	-1.91939000E-03
					-2.93838000E-02	-4.99348000E-07	 1.93037000E-03
					-2.93829000E-02	 4.99348000E-07	 5.49033000E-06
					-2.93821000E-02	 0.00000000E+00	-1.91939000E-03
					-2.93829000E-02	-4.99348000E-07	 5.49033000E-06
					-2.93838000E-02	 0.00000000E+00	 1.93037000E-03
					 4.61550000E-03	 2.04174000E-07	 3.11769000E-04
					 4.61593000E-03	 2.04174000E-07	-3.59613000E-04
					 4.61593000E-03	-2.04174000E-07	-3.59613000E-04
					 4.61550000E-03	-2.04174000E-07	 3.11769000E-04
					-9.24286000E-03	 6.09210000E-08	-1.28812000E-03
					-9.24243000E-03	 6.09210000E-08	 1.21887000E-03
					-9.24243000E-03	-6.09210000E-08	 1.21887000E-03
					-9.24286000E-03	-6.09210000E-08	-1.28812000E-03
					-9.24265000E-03	 6.09210000E-08	-3.46227000E-05
					-9.24243000E-03	 0.00000000E+00	 1.21887000E-03
					-9.24265000E-03	-6.09210000E-08	-3.46227000E-05
					-9.24286000E-03	 0.00000000E+00	-1.28812000E-03
				</DataArray>
			</PointData>
		</Piece>
	</UnstructuredGrid>
</VTKFile>