<?xml version="1.0"?>
<VTKFile type="UnstructuredGrid" version="0.1" byte_order="LittleEndian">
	<UnstructuredGrid>
		<Piece NumberOfPoints="40" NumberOfCells="2">
			<Points>
				<DataArray type="Float64" NumberOfComponents="3" format="ascii">
					 5.00000000E+00	-5.00000000E+00	 0.00000000E+00
					-5.00000000E+00	-5.00000000E+00	 0.00000000E+00
					-5.00000000E+00	 5.00000000E+00	 0.00000000E+00
					 5.00000000E+00	 5.00000000E+00	 0.00000000E+00
					 0.00000000E+00	-5.00000000E+00	 0.00000000E+00
					-5.00000000E+00	 0.00000000E+00	 0.00000000E+00
					 0.00000000E+00	 5.00000000E+00	 0.00000000E+00
					 5.00000000E+00	 0.00000000E+00	 0.00000000E+00
					 5.00000000E+00	-5.00000000E+00	-1.50000000E+01
					-5.00000000E+00	-5.00000000E+00	-1.50000000E+01
					-5.00000000E+00	 5.00000000E+00	-1.50000000E+01
					 5.00000000E+00	 5.00000000E+00	-1.50000000E+01
					 5.00000000E+00	-5.00000000E+00	-3.00000000E+01
					-5.00000000E+00	-5.00000000E+00	-3.00000000E+01
					-5.00000000E+00	 5.00000000E+00	-3.00000000E+01
					 5.00000000E+00	 5.00000000E+00	-3.00000000E+01
					 0.00000000E+00	-5.00000000E+00	-3.00000000E+01
					-5.00000000E+00	 0.00000000E+00	-3.00000000E+01
					 0.00000000E+00	 5.00000000E+00	-3.00000000E+01
					 5.00000000E+00	 0.00000000E+00	-3.00000000E+01
					 5.00000000E+00	-5.00000000E+00	-3.00000000E+01
					-5.00000000E+00	-5.00000000E+00	-3.00000000E+01
					-5.00000000E+00	 5.00000000E+00	-3.00000000E+01
					 5.00000000E+00	 5.00000000E+00	-3.00000000E+01
					 0.00000000E+00	-5.00000000E+00	-3.00000000E+01
					-5.00000000E+00	 0.00000000E+00	-3.00000000E+01
					 0.00000000E+00	 5.00000000E+00	-3.00000000E+01
					 5.00000000E+00	 0.00000000E+00	-3.00000000E+01
					 5.00000000E+00	-5.00000000E+00	-1.80000000E+02
					-5.00000000E+00	-5.00000000E+00	-1.80000000E+02
					-5.00000000E+00	 5.00000000E+00	-1.80000000E+02
					 5.00000000E+00	 5.00000000E+00	-1.80000000E+02
					 5.00000000E+00	-5.00000000E+00	-3.30000000E+02
					-5.00000000E+00	-5.00000000E+00	-3.30000000E+02
					-5.00000000E+00	 5.00000000E+00	-3.30000000E+02
					 5.00000000E+00	 5.00000000E+00	-3.30000000E+02
					 0.00000000E+00	-5.00000000E+00	-3.30000000E+02
					-5.00000000E+00	 0.00000000E+00	-3.30000000E+02
					 0.00000000E+00	 5.00000000E+00	-3.30000000E+02
					 5.00000000E+00	 0.00000000E+00	-3.30000000E+02

				</DataArray>
			</Points>
			<Cells>
				<DataArray type="Int32" Name="connectivity" format="ascii">
					0 12 13 1 3 15 14 2 8 16 9 4 11 18 10 6 7 19 17 5 20 32 33 21 23 35 34 22 28 36 29 24 31 38 30 26 27 39 37 25 
				</DataArray>
				<DataArray type="Int32" Name="offsets" format="ascii">
					20 40 
				</DataArray>
				<DataArray type="UInt8" Name="types" format="ascii">
					25 25 
				</DataArray>
			</Cells>
			<PointData>
				<DataArray type="Float32" Name="U" NumberOfComponents="3" ComponentName0="D1" ComponentName1="D2" ComponentName2="D3" format="ascii">
					-7.22280000E+00	-7.35420000E-08	-4.47874000E+00
					 7.22280000E+00	-7.35420000E-08	 4.47874000E+00
					 7.22280000E+00	 7.35420000E-08	 4.47874000E+00
					-7.22280000E+00	 7.35420000E-08	-4.47874000E+00
					 0.00000000E+00	-7.35420000E-08	 0.00000000E+00
					 7.22280000E+00	 0.00000000E+00	 4.47874000E+00
					 0.00000000E+00	 7.35420000E-08	 0.00000000E+00
					-7.22280000E+00	 0.00000000E+00	-4.47874000E+00
					-2.06590000E+01	-7.03345000E-08	 1.71896000E+01
					-6.21345000E+00	-7.03345000E-08	 2.61471000E+01
					-6.21345000E+00	 7.03345000E-08	 2.61471000E+01
					-2.06590000E+01	 7.03345000E-08	 1.71896000E+01
					-3.40953000E+01	-6.71197000E-08	 3.88580000E+01
					-1.96497000E+01	-6.71197000E-08	 4.78155000E+01
					-1.96497000E+01	 6.71197000E-08	 4.78155000E+01
					-3.40953000E+01	 6.71197000E-08	 3.88580000E+01
					-2.68725000E+01	-6.71197000E-08	 4.33367000E+01
					-1.96497000E+01	 0.00000000E+00	 4.78155000E+01
					-2.68725000E+01	 6.71197000E-08	 4.33367000E+01
					-3.40953000E+01	 0.00000000E+00	 3.88580000E+01
					-2.68748000E+01	 1.69128000E-07	 4.31863000E+01
					-2.68702000E+01	 1.69128000E-07	 4.34872000E+01
					-2.68702000E+01	-1.69128000E-07	 4.34872000E+01
					-2.68748000E+01	-1.69128000E-07	 4.31863000E+01
					-2.68725000E+01	 1.69128000E-07	 4.33367000E+01
					-2.68702000E+01	 0.00000000E+00	 4.34872000E+01
					-2.68725000E+01	-1.69128000E-07	 4.33367000E+01
					-2.68748000E+01	 0.00000000E+00	 4.31863000E+01
					-3.13885000E+01	 8.49909000E-08	 4.32542000E+01
					-3.13840000E+01	 8.49909000E-08	 4.35551000E+01
					-3.13840000E+01	-8.49909000E-08	 4.35551000E+01
					-3.13885000E+01	-8.49909000E-08	 4.32542000E+01
					-3.59022000E+01	 0.00000000E+00	 4.33221000E+01
					-3.58977000E+01	 0.00000000E+00	 4.36230000E+01
					-3.58977000E+01	 0.00000000E+00	 4.36230000E+01
					-3.59022000E+01	 0.00000000E+00	 4.33221000E+01
					-3.58999000E+01	 0.00000000E+00	 4.34726000E+01
					-3.58977000E+01	 0.00000000E+00	 4.36230000E+01
					-3.58999000E+01	 0.00000000E+00	 4.34726000E+01
					-3.59022000E+01	 0.00000000E+00	 4.33221000E+01
				</DataArray>
			</PointData>
		</Piece>
	</UnstructuredGrid>
</VTKFile>