<?xml version="1.0"?>
<VTKFile type="UnstructuredGrid" version="0.1" byte_order="LittleEndian">
	<UnstructuredGrid>
		<Piece NumberOfPoints="40" NumberOfCells="2">
			<Points>
				<DataArray type="Float64" NumberOfComponents="3" format="ascii">
					 5.00000000E+00	-5.00000000E+00	 0.00000000E+00
					-5.00000000E+00	-5.00000000E+00	 0.00000000E+00
					-5.00000000E+00	 5.00000000E+00	 0.00000000E+00
					 5.00000000E+00	 5.00000000E+00	 0.00000000E+00
					 0.00000000E+00	-5.00000000E+00	 0.00000000E+00
					-5.00000000E+00	 0.00000000E+00	 0.00000000E+00
					 0.00000000E+00	 5.00000000E+00	 0.00000000E+00
					 5.00000000E+00	 0.00000000E+00	 0.00000000E+00
					 5.00000000E+00	-5.00000000E+00	-1.50000000E+01
					-5.00000000E+00	-5.00000000E+00	-1.50000000E+01
					-5.00000000E+00	 5.00000000E+00	-1.50000000E+01
					 5.00000000E+00	 5.00000000E+00	-1.50000000E+01
					 5.00000000E+00	-5.00000000E+00	-3.00000000E+01
					-5.00000000E+00	-5.00000000E+00	-3.00000000E+01
					-5.00000000E+00	 5.00000000E+00	-3.00000000E+01
					 5.00000000E+00	 5.00000000E+00	-3.00000000E+01
					 0.00000000E+00	-5.00000000E+00	-3.00000000E+01
					-5.00000000E+00	 0.00000000E+00	-3.00000000E+01
					 0.00000000E+00	 5.00000000E+00	-3.00000000E+01
					 5.00000000E+00	 0.00000000E+00	-3.00000000E+01
					 5.00000000E+00	-5.00000000E+00	-3.00000000E+01
					-5.00000000E+00	-5.00000000E+00	-3.00000000E+01
					-5.00000000E+00	 5.00000000E+00	-3.00000000E+01
					 5.00000000E+00	 5.00000000E+00	-3.00000000E+01
					 0.00000000E+00	-5.00000000E+00	-3.00000000E+01
					-5.00000000E+00	 0.00000000E+00	-3.00000000E+01
					 0.00000000E+00	 5.00000000E+00	-3.00000000E+01
					 5.00000000E+00	 0.00000000E+00	-3.00000000E+01
					 5.00000000E+00	-5.00000000E+00	-1.80000000E+02
					-5.00000000E+00	-5.00000000E+00	-1.80000000E+02
					-5.00000000E+00	 5.00000000E+00	-1.80000000E+02
					 5.00000000E+00	 5.00000000E+00	-1.80000000E+02
					 5.00000000E+00	-5.00000000E+00	-3.30000000E+02
					-5.00000000E+00	-5.00000000E+00	-3.30000000E+02
					-5.00000000E+00	 5.00000000E+00	-3.30000000E+02
					 5.00000000E+00	 5.00000000E+00	-3.30000000E+02
					 0.00000000E+00	-5.00000000E+00	-3.30000000E+02
					-5.00000000E+00	 0.00000000E+00	-3.30000000E+02
					 0.00000000E+00	 5.00000000E+00	-3.30000000E+02
					 5.00000000E+00	 0.00000000E+00	-3.30000000E+02

				</DataArray>
			</Points>
			<Cells>
				<DataArray type="Int32" Name="connectivity" format="ascii">
					0 12 13 1 3 15 14 2 8 16 9 4 11 18 10 6 7 19 17 5 20 32 33 21 23 35 34 22 28 36 29 24 31 38 30 26 27 39 37 25 
				</DataArray>
				<DataArray type="Int32" Name="offsets" format="ascii">
					20 40 
				</DataArray>
				<DataArray type="UInt8" Name="types" format="ascii">
					25 25 
				</DataArray>
			</Cells>
			<PointData>
				<DataArray type="Float32" Name="U" NumberOfComponents="3" ComponentName0="D1" ComponentName1="D2" ComponentName2="D3" format="ascii">
					-3.61637000E-08	 2.63041000E-08	-3.14000000E-04
					 3.61637000E-08	 2.63041000E-08	 3.14000000E-04
					 3.61637000E-08	-2.63041000E-08	 3.14000000E-04
					-3.61637000E-08	-2.63041000E-08	-3.14000000E-04
					 0.00000000E+00	 2.63041000E-08	 0.00000000E+00
					 3.61637000E-08	 0.00000000E+00	 3.14000000E-04
					 0.00000000E+00	-2.63041000E-08	 0.00000000E+00
					-3.61637000E-08	 0.00000000E+00	-3.14000000E-04
					-2.29971000E-04	 1.75138000E-08	-7.39540000E-06
					-2.29936000E-04	 1.75138000E-08	 6.96495000E-06
					-2.29936000E-04	-1.75138000E-08	 6.96495000E-06
					-2.29971000E-04	-1.75138000E-08	-7.39540000E-06
					-4.38634000E-06	 1.18855000E-08	 8.41685000E-05
					-4.36114000E-06	 1.18855000E-08	-8.48765000E-05
					-4.36114000E-06	-1.18855000E-08	-8.48765000E-05
					-4.38634000E-06	-1.18855000E-08	 8.41685000E-05
					-4.37375000E-06	 1.18855000E-08	-3.54021000E-07
					-4.36114000E-06	 0.00000000E+00	-8.48765000E-05
					-4.37375000E-06	-1.18855000E-08	-3.54021000E-07
					-4.38634000E-06	 0.00000000E+00	 8.41685000E-05
					-4.37619000E-06	 2.44298000E-09	-7.18541000E-08
					-4.37130000E-06	 2.44298000E-09	-6.36187000E-07
					-4.37130000E-06	-2.44298000E-09	-6.36187000E-07
					-4.37619000E-06	-2.44298000E-09	-7.18541000E-08
					-4.37375000E-06	 2.44298000E-09	-3.54021000E-07
					-4.37130000E-06	 0.00000000E+00	-6.36187000E-07
					-4.37375000E-06	-2.44298000E-09	-3.54021000E-07
					-4.37619000E-06	 0.00000000E+00	-7.18541000E-08
					 7.23756000E-07	 0.00000000E+00	-4.55903000E-07
					 7.24806000E-07	 0.00000000E+00	-5.50650000E-07
					 7.24806000E-07	 0.00000000E+00	-5.50650000E-07
					 7.23756000E-07	 0.00000000E+00	-4.55903000E-07
					-1.44875000E-06	-1.39315000E-09	-6.47019000E-07
					-1.45153000E-06	-1.39315000E-09	-2.72178000E-07
					-1.45153000E-06	 1.39315000E-09	-2.72178000E-07
					-1.44875000E-06	 1.39315000E-09	-6.47019000E-07
					-1.45014000E-06	-1.39315000E-09	-4.59599000E-07
					-1.45153000E-06	 0.00000000E+00	-2.72178000E-07
					-1.45014000E-06	 1.39315000E-09	-4.59599000E-07
					-1.44875000E-06	 0.00000000E+00	-6.47019000E-07
				</DataArray>
			</PointData>
		</Piece>
	</UnstructuredGrid>
</VTKFile>