# vtk DataFile Version 3.0

ASCII
DATASET UNSTRUCTURED_GRID

POINTS 8 double
	 1.00000000E+00	 0.00000000E+00	-5.00000000E-03
	 1.00000000E+00	 0.00000000E+00	 5.00000000E-03
	 0.00000000E+00	 0.00000000E+00	-5.00000000E-03
	 0.00000000E+00	 0.00000000E+00	 5.00000000E-03
	 0.00000000E+00	 1.00000000E+00	-5.00000000E-03
	 0.00000000E+00	 1.00000000E+00	 5.00000000E-03
	 1.00000000E+00	 1.00000000E+00	-5.00000000E-03
	 1.00000000E+00	 1.00000000E+00	 5.00000000E-03

CELLS 1 9
	8 0 6 4 2 1 7 5 3 

CELL_TYPES 1
	12

POINT_DATA 8
FIELD U 1
	U 3 8 double
		 0.00000000E+00	 0.00000000E+00	 0.00000000E+00
		 0.00000000E+00	 0.00000000E+00	 0.00000000E+00
		 1.85714000E-04	 0.00000000E+00	 0.00000000E+00
		 1.85714000E-04	 0.00000000E+00	 0.00000000E+00
		 1.85714000E-04	 4.33333000E-04	 0.00000000E+00
		 1.85714000E-04	 4.33333000E-04	 0.00000000E+00
		 0.00000000E+00	 4.33333000E-04	 0.00000000E+00
		 0.00000000E+00	 4.33333000E-04	 0.00000000E+00
FIELD S 1
	S 10 8 double
		 0.00000000E+00	 9.99960000E+01	 2.99988000E+01	 0.00000000E+00	 0.00000000E+00	 0.00000000E+00	 8.88783889E+01	 0.00000000E+00	 2.99988000E+01	 9.99960000E+01
		 0.00000000E+00	 9.99960000E+01	 2.99988000E+01	 0.00000000E+00	 0.00000000E+00	 0.00000000E+00	 8.88783889E+01	 0.00000000E+00	 2.99988000E+01	 9.99960000E+01
		 0.00000000E+00	 9.99960000E+01	 2.99988000E+01	 0.00000000E+00	 0.00000000E+00	 0.00000000E+00	 8.88783889E+01	 0.00000000E+00	 2.99988000E+01	 9.99960000E+01
		 0.00000000E+00	 9.99960000E+01	 2.99988000E+01	 0.00000000E+00	 0.00000000E+00	 0.00000000E+00	 8.88783889E+01	 0.00000000E+00	 2.99988000E+01	 9.99960000E+01
		 0.00000000E+00	 9.99960000E+01	 2.99988000E+01	 0.00000000E+00	 0.00000000E+00	 0.00000000E+00	 8.88783889E+01	 0.00000000E+00	 2.99988000E+01	 9.99960000E+01
		 0.00000000E+00	 9.99960000E+01	 2.99988000E+01	 0.00000000E+00	 0.00000000E+00	 0.00000000E+00	 8.88783889E+01	 0.00000000E+00	 2.99988000E+01	 9.99960000E+01
		 0.00000000E+00	 9.99960000E+01	 2.99988000E+01	 0.00000000E+00	 0.00000000E+00	 0.00000000E+00	 8.88783889E+01	 0.00000000E+00	 2.99988000E+01	 9.99960000E+01
		 0.00000000E+00	 9.99960000E+01	 2.99988000E+01	 0.00000000E+00	 0.00000000E+00	 0.00000000E+00	 8.88783889E+01	 0.00000000E+00	 2.99988000E+01	 9.99960000E+01
FIELD RF 1
	RF 3 8 double
		 0.00000000E+00	-2.50000000E-01	-7.50000000E+00
		 0.00000000E+00	-2.50000000E-01	 7.50000000E+00
		 0.00000000E+00	-2.50000000E-01	-7.50000000E+00
		 0.00000000E+00	-2.50000000E-01	 7.50000000E+00
		 0.00000000E+00	 2.50000000E-01	-7.50000000E+00
		 0.00000000E+00	 2.50000000E-01	 7.50000000E+00
		 0.00000000E+00	 2.50000000E-01	-7.50000000E+00
		 0.00000000E+00	 2.50000000E-01	 7.50000000E+00
