# vtk DataFile Version 3.0

ASCII
DATASET UNSTRUCTURED_GRID

POINTS 20 double
	 1.00000000E+00	 0.00000000E+00	-5.00000000E-03
	 1.00000000E+00	 0.00000000E+00	 0.00000000E+00
	 1.00000000E+00	 0.00000000E+00	 5.00000000E-03
	 0.00000000E+00	 0.00000000E+00	-5.00000000E-03
	 0.00000000E+00	 0.00000000E+00	 0.00000000E+00
	 0.00000000E+00	 0.00000000E+00	 5.00000000E-03
	 0.00000000E+00	 1.00000000E+00	-5.00000000E-03
	 0.00000000E+00	 1.00000000E+00	 0.00000000E+00
	 0.00000000E+00	 1.00000000E+00	 5.00000000E-03
	 1.00000000E+00	 1.00000000E+00	-5.00000000E-03
	 1.00000000E+00	 1.00000000E+00	 0.00000000E+00
	 1.00000000E+00	 1.00000000E+00	 5.00000000E-03
	 1.00000000E+00	 5.00000000E-01	-5.00000000E-03
	 1.00000000E+00	 5.00000000E-01	 5.00000000E-03
	 5.00000000E-01	 1.00000000E+00	-5.00000000E-03
	 5.00000000E-01	 1.00000000E+00	 5.00000000E-03
	 0.00000000E+00	 5.00000000E-01	-5.00000000E-03
	 0.00000000E+00	 5.00000000E-01	 5.00000000E-03
	 5.00000000E-01	 0.00000000E+00	-5.00000000E-03
	 5.00000000E-01	 0.00000000E+00	 5.00000000E-03

CELLS 1 21
	20 0 9 6 3 2 11 8 5 12 14 16 18 13 15 17 19 1 10 7 4 

CELL_TYPES 1
	25

POINT_DATA 20
FIELD U 1
	U 3 20 double
		 0.00000000E+00	 0.00000000E+00	 0.00000000E+00
		 0.00000000E+00	 0.00000000E+00	 0.00000000E+00
		 0.00000000E+00	 0.00000000E+00	 0.00000000E+00
		 1.85714000E-04	 0.00000000E+00	 0.00000000E+00
		 1.85714000E-04	 0.00000000E+00	 0.00000000E+00
		 1.85714000E-04	 0.00000000E+00	 0.00000000E+00
		 1.85714000E-04	 4.33333000E-04	 0.00000000E+00
		 1.85714000E-04	 4.33333000E-04	 0.00000000E+00
		 1.85714000E-04	 4.33333000E-04	 0.00000000E+00
		 0.00000000E+00	 4.33333000E-04	 0.00000000E+00
		 0.00000000E+00	 4.33333000E-04	 0.00000000E+00
		 0.00000000E+00	 4.33333000E-04	 0.00000000E+00
		 0.00000000E+00	 2.16667000E-04	 0.00000000E+00
		 0.00000000E+00	 2.16667000E-04	 0.00000000E+00
		 9.28571000E-05	 4.33333000E-04	 0.00000000E+00
		 9.28571000E-05	 4.33333000E-04	 0.00000000E+00
		 1.85714000E-04	 2.16667000E-04	 0.00000000E+00
		 1.85714000E-04	 2.16667000E-04	 0.00000000E+00
		 9.28571000E-05	 0.00000000E+00	 0.00000000E+00
		 9.28571000E-05	 0.00000000E+00	 0.00000000E+00
FIELD S 1
	S 10 20 double
		-4.99245000E-07	 9.99960000E+01	 2.99988000E+01	-2.95785000E-07	 0.00000000E+00	 0.00000000E+00	 8.88783893E+01	-4.99245001E-07	 2.99988000E+01	 9.99960000E+01
		-4.99243000E-07	 1.00005000E+02	 3.00015000E+01	-2.95785000E-07	 0.00000000E+00	 0.00000000E+00	 8.88863886E+01	-4.99243001E-07	 3.00015000E+01	 1.00005000E+02
		-4.99245000E-07	 9.99960000E+01	 2.99988000E+01	-2.95785000E-07	 0.00000000E+00	 0.00000000E+00	 8.88783893E+01	-4.99245001E-07	 2.99988000E+01	 9.99960000E+01
		-4.99064000E-07	 9.99960000E+01	 2.99988000E+01	 2.95918000E-07	 0.00000000E+00	 0.00000000E+00	 8.88783893E+01	-4.99064001E-07	 2.99988000E+01	 9.99960000E+01
		-4.99063000E-07	 1.00005000E+02	 3.00015000E+01	 2.95918000E-07	 0.00000000E+00	 0.00000000E+00	 8.88863886E+01	-4.99063001E-07	 3.00015000E+01	 1.00005000E+02
		-4.99064000E-07	 9.99960000E+01	 2.99988000E+01	 2.95918000E-07	 0.00000000E+00	 0.00000000E+00	 8.88783893E+01	-4.99064001E-07	 2.99988000E+01	 9.99960000E+01
		 8.33944000E-07	 9.99960000E+01	 2.99988000E+01	 1.03703000E-06	 0.00000000E+00	 0.00000000E+00	 8.88783883E+01	 8.33943989E-07	 2.99988000E+01	 9.99960000E+01
		 8.33945000E-07	 1.00005000E+02	 3.00015000E+01	 1.03703000E-06	 0.00000000E+00	 0.00000000E+00	 8.88863877E+01	 8.33944989E-07	 3.00015000E+01	 1.00005000E+02
		 8.33944000E-07	 9.99960000E+01	 2.99988000E+01	 1.03703000E-06	 0.00000000E+00	 0.00000000E+00	 8.88783883E+01	 8.33943989E-07	 2.99988000E+01	 9.99960000E+01
		 8.34112000E-07	 9.99960000E+01	 2.99988000E+01	-1.03696000E-06	 0.00000000E+00	 0.00000000E+00	 8.88783883E+01	 8.34111989E-07	 2.99988000E+01	 9.99960000E+01
		 8.34113000E-07	 1.00005000E+02	 3.00015000E+01	-1.03696000E-06	 0.00000000E+00	 0.00000000E+00	 8.88863877E+01	 8.34112989E-07	 3.00015000E+01	 1.00005000E+02
		 8.34112000E-07	 9.99960000E+01	 2.99988000E+01	-1.03696000E-06	 0.00000000E+00	 0.00000000E+00	 8.88783883E+01	 8.34111989E-07	 2.99988000E+01	 9.99960000E+01
		-7.58611000E-07	 1.00005000E+02	 3.00015000E+01	-6.66387000E-07	 0.00000000E+00	 0.00000000E+00	 8.88863888E+01	-7.58611004E-07	 3.00015000E+01	 1.00005000E+02
		-7.58611000E-07	 1.00005000E+02	 3.00015000E+01	-6.66387000E-07	 0.00000000E+00	 0.00000000E+00	 8.88863888E+01	-7.58611004E-07	 3.00015000E+01	 1.00005000E+02
		 1.50883000E-06	 1.00005000E+02	 3.00015000E+01	 0.00000000E+00	 0.00000000E+00	 0.00000000E+00	 8.88863872E+01	 1.50883000E-06	 3.00015000E+01	 1.00005000E+02
		 1.50883000E-06	 1.00005000E+02	 3.00015000E+01	 0.00000000E+00	 0.00000000E+00	 0.00000000E+00	 8.88863872E+01	 1.50883000E-06	 3.00015000E+01	 1.00005000E+02
		-7.58605000E-07	 1.00005000E+02	 3.00015000E+01	 6.66458000E-07	 0.00000000E+00	 0.00000000E+00	 8.88863888E+01	-7.58605004E-07	 3.00015000E+01	 1.00005000E+02
		-7.58605000E-07	 1.00005000E+02	 3.00015000E+01	 6.66458000E-07	 0.00000000E+00	 0.00000000E+00	 8.88863888E+01	-7.58605004E-07	 3.00015000E+01	 1.00005000E+02
		 1.75652000E-07	 1.00005000E+02	 3.00015000E+01	 0.00000000E+00	 0.00000000E+00	 0.00000000E+00	 8.88863881E+01	 1.75652000E-07	 3.00015000E+01	 1.00005000E+02
		 1.75652000E-07	 1.00005000E+02	 3.00015000E+01	 0.00000000E+00	 0.00000000E+00	 0.00000000E+00	 8.88863881E+01	 1.75652000E-07	 3.00015000E+01	 1.00005000E+02
FIELD E 1
	E 10 20 double
		-1.85707000E-04	 4.33316000E-04	 0.00000000E+00	 0.00000000E+00	 0.00000000E+00	 0.00000000E+00	 3.66799770E-04	-1.85707000E-04	 0.00000000E+00	 4.33316000E-04
		-1.85724000E-04	 4.33355000E-04	 0.00000000E+00	 0.00000000E+00	 0.00000000E+00	 0.00000000E+00	 3.66832922E-04	-1.85724000E-04	 0.00000000E+00	 4.33355000E-04
		-1.85707000E-04	 4.33316000E-04	 0.00000000E+00	 0.00000000E+00	 0.00000000E+00	 0.00000000E+00	 3.66799770E-04	-1.85707000E-04	 0.00000000E+00	 4.33316000E-04
		-1.85707000E-04	 4.33316000E-04	 0.00000000E+00	 0.00000000E+00	 0.00000000E+00	 0.00000000E+00	 3.66799770E-04	-1.85707000E-04	 0.00000000E+00	 4.33316000E-04
		-1.85724000E-04	 4.33355000E-04	 0.00000000E+00	 0.00000000E+00	 0.00000000E+00	 0.00000000E+00	 3.66832922E-04	-1.85724000E-04	 0.00000000E+00	 4.33355000E-04
		-1.85707000E-04	 4.33316000E-04	 0.00000000E+00	 0.00000000E+00	 0.00000000E+00	 0.00000000E+00	 3.66799770E-04	-1.85707000E-04	 0.00000000E+00	 4.33316000E-04
		-1.85707000E-04	 4.33316000E-04	 0.00000000E+00	 0.00000000E+00	 0.00000000E+00	 0.00000000E+00	 3.66799770E-04	-1.85707000E-04	 0.00000000E+00	 4.33316000E-04
		-1.85724000E-04	 4.33355000E-04	 0.00000000E+00	 0.00000000E+00	 0.00000000E+00	 0.00000000E+00	 3.66832922E-04	-1.85724000E-04	 0.00000000E+00	 4.33355000E-04
		-1.85707000E-04	 4.33316000E-04	 0.00000000E+00	 0.00000000E+00	 0.00000000E+00	 0.00000000E+00	 3.66799770E-04	-1.85707000E-04	 0.00000000E+00	 4.33316000E-04
		-1.85707000E-04	 4.33316000E-04	 0.00000000E+00	 0.00000000E+00	 0.00000000E+00	 0.00000000E+00	 3.66799770E-04	-1.85707000E-04	 0.00000000E+00	 4.33316000E-04
		-1.85724000E-04	 4.33355000E-04	 0.00000000E+00	 0.00000000E+00	 0.00000000E+00	 0.00000000E+00	 3.66832922E-04	-1.85724000E-04	 0.00000000E+00	 4.33355000E-04
		-1.85707000E-04	 4.33316000E-04	 0.00000000E+00	 0.00000000E+00	 0.00000000E+00	 0.00000000E+00	 3.66799770E-04	-1.85707000E-04	 0.00000000E+00	 4.33316000E-04
		-1.85724000E-04	 4.33355000E-04	 0.00000000E+00	 0.00000000E+00	 0.00000000E+00	 0.00000000E+00	 3.66832922E-04	-1.85724000E-04	 0.00000000E+00	 4.33355000E-04
		-1.85724000E-04	 4.33355000E-04	 0.00000000E+00	 0.00000000E+00	 0.00000000E+00	 0.00000000E+00	 3.66832922E-04	-1.85724000E-04	 0.00000000E+00	 4.33355000E-04
		-1.85724000E-04	 4.33355000E-04	 0.00000000E+00	 0.00000000E+00	 0.00000000E+00	 0.00000000E+00	 3.66832922E-04	-1.85724000E-04	 0.00000000E+00	 4.33355000E-04
		-1.85724000E-04	 4.33355000E-04	 0.00000000E+00	 0.00000000E+00	 0.00000000E+00	 0.00000000E+00	 3.66832922E-04	-1.85724000E-04	 0.00000000E+00	 4.33355000E-04
		-1.85724000E-04	 4.33355000E-04	 0.00000000E+00	 0.00000000E+00	 0.00000000E+00	 0.00000000E+00	 3.66832922E-04	-1.85724000E-04	 0.00000000E+00	 4.33355000E-04
		-1.85724000E-04	 4.33355000E-04	 0.00000000E+00	 0.00000000E+00	 0.00000000E+00	 0.00000000E+00	 3.66832922E-04	-1.85724000E-04	 0.00000000E+00	 4.33355000E-04
		-1.85724000E-04	 4.33355000E-04	 0.00000000E+00	 0.00000000E+00	 0.00000000E+00	 0.00000000E+00	 3.66832922E-04	-1.85724000E-04	 0.00000000E+00	 4.33355000E-04
		-1.85724000E-04	 4.33355000E-04	 0.00000000E+00	 0.00000000E+00	 0.00000000E+00	 0.00000000E+00	 3.66832922E-04	-1.85724000E-04	 0.00000000E+00	 4.33355000E-04
FIELD RF 1
	RF 3 20 double
		 0.00000000E+00	 8.33333000E-02	 2.50000000E+00
		 0.00000000E+00	-3.33333000E-01	 0.00000000E+00
		 0.00000000E+00	 8.33333000E-02	-2.50000000E+00
		 0.00000000E+00	 8.33333000E-02	 2.50000000E+00
		 0.00000000E+00	-3.33333000E-01	 0.00000000E+00
		 0.00000000E+00	 8.33333000E-02	-2.50000000E+00
		 0.00000000E+00	-8.33333000E-02	 2.50000000E+00
		 0.00000000E+00	 3.33333000E-01	 0.00000000E+00
		 0.00000000E+00	-8.33333000E-02	-2.50000000E+00
		 0.00000000E+00	-8.33333000E-02	 2.50000000E+00
		 0.00000000E+00	 3.33333000E-01	 0.00000000E+00
		 0.00000000E+00	-8.33333000E-02	-2.50000000E+00
		 0.00000000E+00	 0.00000000E+00	-1.00000000E+01
		 0.00000000E+00	 0.00000000E+00	 1.00000000E+01
		 0.00000000E+00	 3.33333000E-01	-1.00000000E+01
		 0.00000000E+00	 3.33333000E-01	 1.00000000E+01
		 0.00000000E+00	 0.00000000E+00	-1.00000000E+01
		 0.00000000E+00	 0.00000000E+00	 1.00000000E+01
		 0.00000000E+00	-3.33333000E-01	-1.00000000E+01
		 0.00000000E+00	-3.33333000E-01	 1.00000000E+01
