    1C
    1UUSER                                                              
    1UDATE              01.august.2019                                  
    1UTIME              09:38:41                                        
    1UHOST                                                              
    1UPGM               CalculiX                                        
    1UVERSION           Version 2.15                             
    1UCOMPILETIME       Fri 15 Mar 11:57:46 CET 2019                    
    1UDIR                                                               
    1UDBN                                                               
    1UMAT    1EL                                                        
    2C                            21                                     1
 -1         1-7.45058E-09-7.45058E-09 0.00000E+00
 -1         2 5.00000E-01-7.45058E-09 0.00000E+00
 -1         3 5.00000E-01 5.00000E-01 0.00000E+00
 -1         4-7.45058E-09 5.00000E-01 0.00000E+00
 -1         5 2.50000E-01-7.45058E-09 0.00000E+00
 -1         6 5.00000E-01 2.50000E-01 0.00000E+00
 -1         7 2.50000E-01 5.00000E-01 0.00000E+00
 -1         8-7.45058E-09 2.50000E-01 0.00000E+00
 -1         9 5.00000E-01 1.00000E+00 0.00000E+00
 -1        10-7.45058E-09 1.00000E+00 0.00000E+00
 -1        11 5.00000E-01 7.50000E-01 0.00000E+00
 -1        12 2.50000E-01 1.00000E+00 0.00000E+00
 -1        13-7.45058E-09 7.50000E-01 0.00000E+00
 -1        14 1.00000E+00-7.45058E-09 0.00000E+00
 -1        15 1.00000E+00 5.00000E-01 0.00000E+00
 -1        16 7.50000E-01-7.45058E-09 0.00000E+00
 -1        17 1.00000E+00 2.50000E-01 0.00000E+00
 -1        18 7.50000E-01 5.00000E-01 0.00000E+00
 -1        19 1.00000E+00 1.00000E+00 0.00000E+00
 -1        20 1.00000E+00 7.50000E-01 0.00000E+00
 -1        21 7.50000E-01 1.00000E+00 0.00000E+00
 -3
    3C                             4                                     1
 -1         1   10    0    1
 -2         1         2         3         4         5         6         7         8
 -1         2   10    0    1
 -2         4         3         9        10         7        11        12        13
 -1         3   10    0    1
 -2         2        14        15         3        16        17        18         6
 -1         4   10    0    1
 -2         3        15        19         9        18        20        21        11
 -3
 9999
