<?xml version="1.0"?>
<VTKFile type="UnstructuredGrid" version="0.1" byte_order="LittleEndian">
	<UnstructuredGrid>
		<Piece NumberOfPoints="40" NumberOfCells="2">
			<Points>
				<DataArray type="Float64" NumberOfComponents="3" format="ascii">
					 0.00000000E+00	 0.00000000E+00	-5.00000000E-02
					 0.00000000E+00	 0.00000000E+00	 0.00000000E+00
					 0.00000000E+00	 0.00000000E+00	 5.00000000E-02
					 1.00000000E+00	 0.00000000E+00	-5.00000000E-02
					 1.00000000E+00	 0.00000000E+00	 0.00000000E+00
					 1.00000000E+00	 0.00000000E+00	 5.00000000E-02
					 2.00000000E+00	 0.00000000E+00	-5.00000000E-02
					 2.00000000E+00	 0.00000000E+00	 0.00000000E+00
					 2.00000000E+00	 0.00000000E+00	 5.00000000E-02
					 0.00000000E+00	 1.00000000E+00	-5.00000000E-02
					 0.00000000E+00	 1.00000000E+00	 0.00000000E+00
					 0.00000000E+00	 1.00000000E+00	 5.00000000E-02
					 1.00000000E+00	 1.00000000E+00	-5.00000000E-02
					 1.00000000E+00	 1.00000000E+00	 0.00000000E+00
					 1.00000000E+00	 1.00000000E+00	 5.00000000E-02
					 2.00000000E+00	 1.00000000E+00	-5.00000000E-02
					 2.00000000E+00	 1.00000000E+00	 0.00000000E+00
					 2.00000000E+00	 1.00000000E+00	 5.00000000E-02
					 5.00000000E-01	 0.00000000E+00	-5.00000000E-02
					 5.00000000E-01	 0.00000000E+00	 5.00000000E-02
					 1.50000000E+00	 0.00000000E+00	-5.00000000E-02
					 1.50000000E+00	 0.00000000E+00	 5.00000000E-02
					 0.00000000E+00	 5.00000000E-01	-5.00000000E-02
					 0.00000000E+00	 5.00000000E-01	 5.00000000E-02
					 1.00000000E+00	 5.00000000E-01	-5.00000000E-02
					 1.00000000E+00	 5.00000000E-01	 5.00000000E-02
					 2.00000000E+00	 5.00000000E-01	-5.00000000E-02
					 2.00000000E+00	 5.00000000E-01	 5.00000000E-02
					 5.00000000E-01	 1.00000000E+00	-5.00000000E-02
					 5.00000000E-01	 1.00000000E+00	 5.00000000E-02
					 1.50000000E+00	 1.00000000E+00	-5.00000000E-02
					 1.50000000E+00	 1.00000000E+00	 5.00000000E-02
					 1.00000000E+00	 0.00000000E+00	-5.00000000E-02
					 1.00000000E+00	 0.00000000E+00	 0.00000000E+00
					 1.00000000E+00	 0.00000000E+00	 5.00000000E-02
					 1.00000000E+00	 1.00000000E+00	-5.00000000E-02
					 1.00000000E+00	 1.00000000E+00	 0.00000000E+00
					 1.00000000E+00	 1.00000000E+00	 5.00000000E-02
					 1.00000000E+00	 5.00000000E-01	-5.00000000E-02
					 1.00000000E+00	 5.00000000E-01	 5.00000000E-02

				</DataArray>
			</Points>
			<Cells>
				<DataArray type="Int32" Name="connectivity" format="ascii">
					0 32 35 9 2 34 37 11 18 38 28 22 19 39 29 23 1 33 36 10 3 6 15 12 5 8 17 14 20 26 30 24 21 27 31 25 4 7 16 13 
				</DataArray>
				<DataArray type="Int32" Name="offsets" format="ascii">
					20 40 
				</DataArray>
				<DataArray type="UInt8" Name="types" format="ascii">
					25 25 
				</DataArray>
			</Cells>
			<PointData>
				<DataArray type="Float32" Name="U" NumberOfComponents="3" ComponentName0="D1" ComponentName1="D2" ComponentName2="D3" format="ascii">
					 0.00000000E+00	 0.00000000E+00	 0.00000000E+00
					 0.00000000E+00	 0.00000000E+00	 0.00000000E+00
					 0.00000000E+00	 0.00000000E+00	 0.00000000E+00
					 4.17100000E-04	-8.41744000E-05	 0.00000000E+00
					 4.17100000E-04	-8.41744000E-05	 0.00000000E+00
					 4.17100000E-04	-8.41744000E-05	 0.00000000E+00
					 0.00000000E+00	 0.00000000E+00	 0.00000000E+00
					 0.00000000E+00	 0.00000000E+00	 0.00000000E+00
					 0.00000000E+00	 0.00000000E+00	 0.00000000E+00
					 0.00000000E+00	 0.00000000E+00	 0.00000000E+00
					 0.00000000E+00	 0.00000000E+00	 0.00000000E+00
					 0.00000000E+00	 0.00000000E+00	 0.00000000E+00
					 4.17100000E-04	 8.41744000E-05	 0.00000000E+00
					 4.17100000E-04	 8.41744000E-05	 0.00000000E+00
					 4.17100000E-04	 8.41744000E-05	 0.00000000E+00
					 0.00000000E+00	 0.00000000E+00	 0.00000000E+00
					 0.00000000E+00	 0.00000000E+00	 0.00000000E+00
					 0.00000000E+00	 0.00000000E+00	 0.00000000E+00
					-1.99531000E-04	-8.98332000E-05	 0.00000000E+00
					-1.99531000E-04	-8.98332000E-05	 0.00000000E+00
					 1.99531000E-04	-8.98332000E-05	 0.00000000E+00
					 1.99531000E-04	-8.98332000E-05	 0.00000000E+00
					 0.00000000E+00	 0.00000000E+00	 0.00000000E+00
					 0.00000000E+00	 0.00000000E+00	 0.00000000E+00
					 4.17100000E-04	 0.00000000E+00	 0.00000000E+00
					 4.17100000E-04	 0.00000000E+00	 0.00000000E+00
					 0.00000000E+00	 0.00000000E+00	 0.00000000E+00
					 0.00000000E+00	 0.00000000E+00	 0.00000000E+00
					-1.99531000E-04	 8.98332000E-05	 0.00000000E+00
					-1.99531000E-04	 8.98332000E-05	 0.00000000E+00
					 1.99531000E-04	 8.98332000E-05	 0.00000000E+00
					 1.99531000E-04	 8.98332000E-05	 0.00000000E+00
					-4.17100000E-04	-8.41744000E-05	 0.00000000E+00
					-4.17100000E-04	-8.41744000E-05	 0.00000000E+00
					-4.17100000E-04	-8.41744000E-05	 0.00000000E+00
					-4.17100000E-04	 8.41744000E-05	 0.00000000E+00
					-4.17100000E-04	 8.41744000E-05	 0.00000000E+00
					-4.17100000E-04	 8.41744000E-05	 0.00000000E+00
					-4.17100000E-04	 0.00000000E+00	 0.00000000E+00
					-4.17100000E-04	 0.00000000E+00	 0.00000000E+00
				</DataArray>
				<DataArray type="Float32" Name="S" NumberOfComponents="10" ComponentName0="xx" ComponentName1="yy" ComponentName2="zz" ComponentName3="xy" ComponentName4="yz" ComponentName5="zx" ComponentName6="Mises" ComponentName7="Min Principal" ComponentName8="Mid Principal" ComponentName9="Max Principal" format="ascii">
					-1.07709000E+02	-4.61623000E+01	-4.61613000E+01	-2.22245000E+01	 0.00000000E+00	 0.00000000E+00	 7.25936845E+01	-1.14895200E+02	-4.61613000E+01	-3.89760995E+01
					-1.07718000E+02	-4.61632000E+01	-4.61643000E+01	-2.22245000E+01	 0.00000000E+00	 0.00000000E+00	 7.25996618E+01	-1.14903434E+02	-4.61643000E+01	-3.89777662E+01
					-1.07709000E+02	-4.61623000E+01	-4.61613000E+01	-2.22245000E+01	 0.00000000E+00	 0.00000000E+00	 7.25936845E+01	-1.14895200E+02	-4.61613000E+01	-3.89760995E+01
					-1.07709000E+02	-7.31239000E+00	-3.45064000E+01	-8.62702000E+00	 0.00000000E+00	 0.00000000E+00	 9.11706284E+01	-1.08444920E+02	-3.45064000E+01	-6.57646978E+00
					-1.07718000E+02	-7.31334000E+00	-3.45094000E+01	-8.62702000E+00	 0.00000000E+00	 0.00000000E+00	 9.11777752E+01	-1.08453862E+02	-3.45094000E+01	-6.57747793E+00
					-1.07709000E+02	-7.31239000E+00	-3.45064000E+01	-8.62702000E+00	 0.00000000E+00	 0.00000000E+00	 9.11706284E+01	-1.08444920E+02	-3.45064000E+01	-6.57646978E+00
					-1.07709000E+02	-4.61623000E+01	-4.61613000E+01	 2.22245000E+01	 0.00000000E+00	 0.00000000E+00	 7.25936845E+01	-1.14895200E+02	-4.61613000E+01	-3.89760995E+01
					-1.07718000E+02	-4.61632000E+01	-4.61643000E+01	 2.22245000E+01	 0.00000000E+00	 0.00000000E+00	 7.25996618E+01	-1.14903434E+02	-4.61643000E+01	-3.89777662E+01
					-1.07709000E+02	-4.61623000E+01	-4.61613000E+01	 2.22245000E+01	 0.00000000E+00	 0.00000000E+00	 7.25936845E+01	-1.14895200E+02	-4.61613000E+01	-3.89760995E+01
					-1.07709000E+02	-4.61623000E+01	-4.61613000E+01	 2.22245000E+01	 0.00000000E+00	 0.00000000E+00	 7.25936845E+01	-1.14895200E+02	-4.61613000E+01	-3.89760995E+01
					-1.07718000E+02	-4.61632000E+01	-4.61643000E+01	 2.22245000E+01	 0.00000000E+00	 0.00000000E+00	 7.25996618E+01	-1.14903434E+02	-4.61643000E+01	-3.89777662E+01
					-1.07709000E+02	-4.61623000E+01	-4.61613000E+01	 2.22245000E+01	 0.00000000E+00	 0.00000000E+00	 7.25936845E+01	-1.14895200E+02	-4.61613000E+01	-3.89760995E+01
					-1.07709000E+02	-7.31239000E+00	-3.45064000E+01	 8.62702000E+00	 0.00000000E+00	 0.00000000E+00	 9.11706284E+01	-1.08444920E+02	-3.45064000E+01	-6.57646978E+00
					-1.07718000E+02	-7.31334000E+00	-3.45094000E+01	 8.62702000E+00	 0.00000000E+00	 0.00000000E+00	 9.11777752E+01	-1.08453862E+02	-3.45094000E+01	-6.57747793E+00
					-1.07709000E+02	-7.31239000E+00	-3.45064000E+01	 8.62702000E+00	 0.00000000E+00	 0.00000000E+00	 9.11706284E+01	-1.08444920E+02	-3.45064000E+01	-6.57646978E+00
					-1.07709000E+02	-4.61623000E+01	-4.61613000E+01	-2.22245000E+01	 0.00000000E+00	 0.00000000E+00	 7.25936845E+01	-1.14895200E+02	-4.61613000E+01	-3.89760995E+01
					-1.07718000E+02	-4.61632000E+01	-4.61643000E+01	-2.22245000E+01	 0.00000000E+00	 0.00000000E+00	 7.25996618E+01	-1.14903434E+02	-4.61643000E+01	-3.89777662E+01
					-1.07709000E+02	-4.61623000E+01	-4.61613000E+01	-2.22245000E+01	 0.00000000E+00	 0.00000000E+00	 7.25936845E+01	-1.14895200E+02	-4.61613000E+01	-3.89760995E+01
					-9.61485000E+01	 2.56783000E-01	-2.87675000E+01	-6.79873000E+00	 0.00000000E+00	 0.00000000E+00	 8.64694256E+01	-9.66256015E+01	-2.87675000E+01	 7.33884486E-01
					-9.61485000E+01	 2.56783000E-01	-2.87675000E+01	-6.79873000E+00	 0.00000000E+00	 0.00000000E+00	 8.64694256E+01	-9.66256015E+01	-2.87675000E+01	 7.33884486E-01
					-9.61485000E+01	 2.56783000E-01	-2.87675000E+01	 6.79873000E+00	 0.00000000E+00	 0.00000000E+00	 8.64694256E+01	-9.66256015E+01	-2.87675000E+01	 7.33884486E-01
					-9.61485000E+01	 2.56783000E-01	-2.87675000E+01	 6.79873000E+00	 0.00000000E+00	 0.00000000E+00	 8.64694256E+01	-9.66256015E+01	-2.87675000E+01	 7.33884486E-01
					-1.07718000E+02	-4.61632000E+01	-4.61643000E+01	 0.00000000E+00	 0.00000000E+00	 0.00000000E+00	 6.15542500E+01	-1.07718000E+02	-4.61643000E+01	-4.61632000E+01
					-1.07718000E+02	-4.61632000E+01	-4.61643000E+01	 0.00000000E+00	 0.00000000E+00	 0.00000000E+00	 6.15542500E+01	-1.07718000E+02	-4.61643000E+01	-4.61632000E+01
					-1.07718000E+02	-7.31334000E+00	-3.45094000E+01	 0.00000000E+00	 0.00000000E+00	 0.00000000E+00	 8.99450403E+01	-1.07718000E+02	-3.45094000E+01	-7.31334000E+00
					-1.07718000E+02	-7.31334000E+00	-3.45094000E+01	 0.00000000E+00	 0.00000000E+00	 0.00000000E+00	 8.99450403E+01	-1.07718000E+02	-3.45094000E+01	-7.31334000E+00
					-1.07718000E+02	-4.61632000E+01	-4.61643000E+01	 0.00000000E+00	 0.00000000E+00	 0.00000000E+00	 6.15542500E+01	-1.07718000E+02	-4.61643000E+01	-4.61632000E+01
					-1.07718000E+02	-4.61632000E+01	-4.61643000E+01	 0.00000000E+00	 0.00000000E+00	 0.00000000E+00	 6.15542500E+01	-1.07718000E+02	-4.61643000E+01	-4.61632000E+01
					-9.61485000E+01	 2.56783000E-01	-2.87675000E+01	 6.79873000E+00	 0.00000000E+00	 0.00000000E+00	 8.64694256E+01	-9.66256015E+01	-2.87675000E+01	 7.33884486E-01
					-9.61485000E+01	 2.56783000E-01	-2.87675000E+01	 6.79873000E+00	 0.00000000E+00	 0.00000000E+00	 8.64694256E+01	-9.66256015E+01	-2.87675000E+01	 7.33884486E-01
					-9.61485000E+01	 2.56783000E-01	-2.87675000E+01	-6.79873000E+00	 0.00000000E+00	 0.00000000E+00	 8.64694256E+01	-9.66256015E+01	-2.87675000E+01	 7.33884486E-01
					-9.61485000E+01	 2.56783000E-01	-2.87675000E+01	-6.79873000E+00	 0.00000000E+00	 0.00000000E+00	 8.64694256E+01	-9.66256015E+01	-2.87675000E+01	 7.33884486E-01
					-1.07709000E+02	-7.31239000E+00	-3.45064000E+01	 8.62702000E+00	 0.00000000E+00	 0.00000000E+00	 9.11706284E+01	-1.08444920E+02	-3.45064000E+01	-6.57646978E+00
					-1.07718000E+02	-7.31334000E+00	-3.45094000E+01	 8.62702000E+00	 0.00000000E+00	 0.00000000E+00	 9.11777752E+01	-1.08453862E+02	-3.45094000E+01	-6.57747793E+00
					-1.07709000E+02	-7.31239000E+00	-3.45064000E+01	 8.62702000E+00	 0.00000000E+00	 0.00000000E+00	 9.11706284E+01	-1.08444920E+02	-3.45064000E+01	-6.57646978E+00
					-1.07709000E+02	-7.31239000E+00	-3.45064000E+01	-8.62702000E+00	 0.00000000E+00	 0.00000000E+00	 9.11706284E+01	-1.08444920E+02	-3.45064000E+01	-6.57646978E+00
					-1.07718000E+02	-7.31334000E+00	-3.45094000E+01	-8.62702000E+00	 0.00000000E+00	 0.00000000E+00	 9.11777752E+01	-1.08453862E+02	-3.45094000E+01	-6.57747793E+00
					-1.07709000E+02	-7.31239000E+00	-3.45064000E+01	-8.62702000E+00	 0.00000000E+00	 0.00000000E+00	 9.11706284E+01	-1.08444920E+02	-3.45064000E+01	-6.57646978E+00
					-1.07718000E+02	-7.31334000E+00	-3.45094000E+01	 0.00000000E+00	 0.00000000E+00	 0.00000000E+00	 8.99450403E+01	-1.07718000E+02	-3.45094000E+01	-7.31334000E+00
					-1.07718000E+02	-7.31334000E+00	-3.45094000E+01	 0.00000000E+00	 0.00000000E+00	 0.00000000E+00	 8.99450403E+01	-1.07718000E+02	-3.45094000E+01	-7.31334000E+00
				</DataArray>
			</PointData>
		</Piece>
	</UnstructuredGrid>
</VTKFile>