# vtk DataFile Version 3.0

ASCII
DATASET UNSTRUCTURED_GRID

POINTS 40 double
	 0.00000000E+00	 0.00000000E+00	-5.00000000E-02
	 0.00000000E+00	 0.00000000E+00	 0.00000000E+00
	 0.00000000E+00	 0.00000000E+00	 5.00000000E-02
	 1.00000000E+00	 0.00000000E+00	-5.00000000E-02
	 1.00000000E+00	 0.00000000E+00	 0.00000000E+00
	 1.00000000E+00	 0.00000000E+00	 5.00000000E-02
	 2.00000000E+00	 0.00000000E+00	-5.00000000E-02
	 2.00000000E+00	 0.00000000E+00	 0.00000000E+00
	 2.00000000E+00	 0.00000000E+00	 5.00000000E-02
	 0.00000000E+00	 1.00000000E+00	-5.00000000E-02
	 0.00000000E+00	 1.00000000E+00	 0.00000000E+00
	 0.00000000E+00	 1.00000000E+00	 5.00000000E-02
	 1.00000000E+00	 1.00000000E+00	-5.00000000E-02
	 1.00000000E+00	 1.00000000E+00	 0.00000000E+00
	 1.00000000E+00	 1.00000000E+00	 5.00000000E-02
	 2.00000000E+00	 1.00000000E+00	-5.00000000E-02
	 2.00000000E+00	 1.00000000E+00	 0.00000000E+00
	 2.00000000E+00	 1.00000000E+00	 5.00000000E-02
	 5.00000000E-01	 0.00000000E+00	-5.00000000E-02
	 5.00000000E-01	 0.00000000E+00	 5.00000000E-02
	 1.50000000E+00	 0.00000000E+00	-5.00000000E-02
	 1.50000000E+00	 0.00000000E+00	 5.00000000E-02
	 0.00000000E+00	 5.00000000E-01	-5.00000000E-02
	 0.00000000E+00	 5.00000000E-01	 5.00000000E-02
	 1.00000000E+00	 5.00000000E-01	-5.00000000E-02
	 1.00000000E+00	 5.00000000E-01	 5.00000000E-02
	 2.00000000E+00	 5.00000000E-01	-5.00000000E-02
	 2.00000000E+00	 5.00000000E-01	 5.00000000E-02
	 5.00000000E-01	 1.00000000E+00	-5.00000000E-02
	 5.00000000E-01	 1.00000000E+00	 5.00000000E-02
	 1.50000000E+00	 1.00000000E+00	-5.00000000E-02
	 1.50000000E+00	 1.00000000E+00	 5.00000000E-02
	 1.00000000E+00	 0.00000000E+00	-5.00000000E-02
	 1.00000000E+00	 0.00000000E+00	 0.00000000E+00
	 1.00000000E+00	 0.00000000E+00	 5.00000000E-02
	 1.00000000E+00	 1.00000000E+00	-5.00000000E-02
	 1.00000000E+00	 1.00000000E+00	 0.00000000E+00
	 1.00000000E+00	 1.00000000E+00	 5.00000000E-02
	 1.00000000E+00	 5.00000000E-01	-5.00000000E-02
	 1.00000000E+00	 5.00000000E-01	 5.00000000E-02

CELLS 2 42
	20 0 32 35 9 2 34 37 11 18 38 28 22 19 39 29 23 1 33 36 10 
	20 3 6 15 12 5 8 17 14 20 26 30 24 21 27 31 25 4 7 16 13 

CELL_TYPES 2
	25
	25

POINT_DATA 40
FIELD U 1
	U 3 40 double
		 0.00000000E+00	 0.00000000E+00	 0.00000000E+00
		 0.00000000E+00	 0.00000000E+00	 0.00000000E+00
		 0.00000000E+00	 0.00000000E+00	 0.00000000E+00
		 4.17100000E-04	-8.41744000E-05	 0.00000000E+00
		 4.17100000E-04	-8.41744000E-05	 0.00000000E+00
		 4.17100000E-04	-8.41744000E-05	 0.00000000E+00
		 0.00000000E+00	 0.00000000E+00	 0.00000000E+00
		 0.00000000E+00	 0.00000000E+00	 0.00000000E+00
		 0.00000000E+00	 0.00000000E+00	 0.00000000E+00
		 0.00000000E+00	 0.00000000E+00	 0.00000000E+00
		 0.00000000E+00	 0.00000000E+00	 0.00000000E+00
		 0.00000000E+00	 0.00000000E+00	 0.00000000E+00
		 4.17100000E-04	 8.41744000E-05	 0.00000000E+00
		 4.17100000E-04	 8.41744000E-05	 0.00000000E+00
		 4.17100000E-04	 8.41744000E-05	 0.00000000E+00
		 0.00000000E+00	 0.00000000E+00	 0.00000000E+00
		 0.00000000E+00	 0.00000000E+00	 0.00000000E+00
		 0.00000000E+00	 0.00000000E+00	 0.00000000E+00
		-1.99531000E-04	-8.98332000E-05	 0.00000000E+00
		-1.99531000E-04	-8.98332000E-05	 0.00000000E+00
		 1.99531000E-04	-8.98332000E-05	 0.00000000E+00
		 1.99531000E-04	-8.98332000E-05	 0.00000000E+00
		 0.00000000E+00	 0.00000000E+00	 0.00000000E+00
		 0.00000000E+00	 0.00000000E+00	 0.00000000E+00
		 4.17100000E-04	 0.00000000E+00	 0.00000000E+00
		 4.17100000E-04	 0.00000000E+00	 0.00000000E+00
		 0.00000000E+00	 0.00000000E+00	 0.00000000E+00
		 0.00000000E+00	 0.00000000E+00	 0.00000000E+00
		-1.99531000E-04	 8.98332000E-05	 0.00000000E+00
		-1.99531000E-04	 8.98332000E-05	 0.00000000E+00
		 1.99531000E-04	 8.98332000E-05	 0.00000000E+00
		 1.99531000E-04	 8.98332000E-05	 0.00000000E+00
		-4.17100000E-04	-8.41744000E-05	 0.00000000E+00
		-4.17100000E-04	-8.41744000E-05	 0.00000000E+00
		-4.17100000E-04	-8.41744000E-05	 0.00000000E+00
		-4.17100000E-04	 8.41744000E-05	 0.00000000E+00
		-4.17100000E-04	 8.41744000E-05	 0.00000000E+00
		-4.17100000E-04	 8.41744000E-05	 0.00000000E+00
		-4.17100000E-04	 0.00000000E+00	 0.00000000E+00
		-4.17100000E-04	 0.00000000E+00	 0.00000000E+00
FIELD S 1
	S 10 40 double
		-1.07709000E+02	-4.61623000E+01	-4.61613000E+01	-2.22245000E+01	 0.00000000E+00	 0.00000000E+00	 7.25936845E+01	-1.14895200E+02	-4.61613000E+01	-3.89760995E+01
		-1.07718000E+02	-4.61632000E+01	-4.61643000E+01	-2.22245000E+01	 0.00000000E+00	 0.00000000E+00	 7.25996618E+01	-1.14903434E+02	-4.61643000E+01	-3.89777662E+01
		-1.07709000E+02	-4.61623000E+01	-4.61613000E+01	-2.22245000E+01	 0.00000000E+00	 0.00000000E+00	 7.25936845E+01	-1.14895200E+02	-4.61613000E+01	-3.89760995E+01
		-1.07709000E+02	-7.31239000E+00	-3.45064000E+01	-8.62702000E+00	 0.00000000E+00	 0.00000000E+00	 9.11706284E+01	-1.08444920E+02	-3.45064000E+01	-6.57646978E+00
		-1.07718000E+02	-7.31334000E+00	-3.45094000E+01	-8.62702000E+00	 0.00000000E+00	 0.00000000E+00	 9.11777752E+01	-1.08453862E+02	-3.45094000E+01	-6.57747793E+00
		-1.07709000E+02	-7.31239000E+00	-3.45064000E+01	-8.62702000E+00	 0.00000000E+00	 0.00000000E+00	 9.11706284E+01	-1.08444920E+02	-3.45064000E+01	-6.57646978E+00
		-1.07709000E+02	-4.61623000E+01	-4.61613000E+01	 2.22245000E+01	 0.00000000E+00	 0.00000000E+00	 7.25936845E+01	-1.14895200E+02	-4.61613000E+01	-3.89760995E+01
		-1.07718000E+02	-4.61632000E+01	-4.61643000E+01	 2.22245000E+01	 0.00000000E+00	 0.00000000E+00	 7.25996618E+01	-1.14903434E+02	-4.61643000E+01	-3.89777662E+01
		-1.07709000E+02	-4.61623000E+01	-4.61613000E+01	 2.22245000E+01	 0.00000000E+00	 0.00000000E+00	 7.25936845E+01	-1.14895200E+02	-4.61613000E+01	-3.89760995E+01
		-1.07709000E+02	-4.61623000E+01	-4.61613000E+01	 2.22245000E+01	 0.00000000E+00	 0.00000000E+00	 7.25936845E+01	-1.14895200E+02	-4.61613000E+01	-3.89760995E+01
		-1.07718000E+02	-4.61632000E+01	-4.61643000E+01	 2.22245000E+01	 0.00000000E+00	 0.00000000E+00	 7.25996618E+01	-1.14903434E+02	-4.61643000E+01	-3.89777662E+01
		-1.07709000E+02	-4.61623000E+01	-4.61613000E+01	 2.22245000E+01	 0.00000000E+00	 0.00000000E+00	 7.25936845E+01	-1.14895200E+02	-4.61613000E+01	-3.89760995E+01
		-1.07709000E+02	-7.31239000E+00	-3.45064000E+01	 8.62702000E+00	 0.00000000E+00	 0.00000000E+00	 9.11706284E+01	-1.08444920E+02	-3.45064000E+01	-6.57646978E+00
		-1.07718000E+02	-7.31334000E+00	-3.45094000E+01	 8.62702000E+00	 0.00000000E+00	 0.00000000E+00	 9.11777752E+01	-1.08453862E+02	-3.45094000E+01	-6.57747793E+00
		-1.07709000E+02	-7.31239000E+00	-3.45064000E+01	 8.62702000E+00	 0.00000000E+00	 0.00000000E+00	 9.11706284E+01	-1.08444920E+02	-3.45064000E+01	-6.57646978E+00
		-1.07709000E+02	-4.61623000E+01	-4.61613000E+01	-2.22245000E+01	 0.00000000E+00	 0.00000000E+00	 7.25936845E+01	-1.14895200E+02	-4.61613000E+01	-3.89760995E+01
		-1.07718000E+02	-4.61632000E+01	-4.61643000E+01	-2.22245000E+01	 0.00000000E+00	 0.00000000E+00	 7.25996618E+01	-1.14903434E+02	-4.61643000E+01	-3.89777662E+01
		-1.07709000E+02	-4.61623000E+01	-4.61613000E+01	-2.22245000E+01	 0.00000000E+00	 0.00000000E+00	 7.25936845E+01	-1.14895200E+02	-4.61613000E+01	-3.89760995E+01
		-9.61485000E+01	 2.56783000E-01	-2.87675000E+01	-6.79873000E+00	 0.00000000E+00	 0.00000000E+00	 8.64694256E+01	-9.66256015E+01	-2.87675000E+01	 7.33884486E-01
		-9.61485000E+01	 2.56783000E-01	-2.87675000E+01	-6.79873000E+00	 0.00000000E+00	 0.00000000E+00	 8.64694256E+01	-9.66256015E+01	-2.87675000E+01	 7.33884486E-01
		-9.61485000E+01	 2.56783000E-01	-2.87675000E+01	 6.79873000E+00	 0.00000000E+00	 0.00000000E+00	 8.64694256E+01	-9.66256015E+01	-2.87675000E+01	 7.33884486E-01
		-9.61485000E+01	 2.56783000E-01	-2.87675000E+01	 6.79873000E+00	 0.00000000E+00	 0.00000000E+00	 8.64694256E+01	-9.66256015E+01	-2.87675000E+01	 7.33884486E-01
		-1.07718000E+02	-4.61632000E+01	-4.61643000E+01	 0.00000000E+00	 0.00000000E+00	 0.00000000E+00	 6.15542500E+01	-1.07718000E+02	-4.61643000E+01	-4.61632000E+01
		-1.07718000E+02	-4.61632000E+01	-4.61643000E+01	 0.00000000E+00	 0.00000000E+00	 0.00000000E+00	 6.15542500E+01	-1.07718000E+02	-4.61643000E+01	-4.61632000E+01
		-1.07718000E+02	-7.31334000E+00	-3.45094000E+01	 0.00000000E+00	 0.00000000E+00	 0.00000000E+00	 8.99450403E+01	-1.07718000E+02	-3.45094000E+01	-7.31334000E+00
		-1.07718000E+02	-7.31334000E+00	-3.45094000E+01	 0.00000000E+00	 0.00000000E+00	 0.00000000E+00	 8.99450403E+01	-1.07718000E+02	-3.45094000E+01	-7.31334000E+00
		-1.07718000E+02	-4.61632000E+01	-4.61643000E+01	 0.00000000E+00	 0.00000000E+00	 0.00000000E+00	 6.15542500E+01	-1.07718000E+02	-4.61643000E+01	-4.61632000E+01
		-1.07718000E+02	-4.61632000E+01	-4.61643000E+01	 0.00000000E+00	 0.00000000E+00	 0.00000000E+00	 6.15542500E+01	-1.07718000E+02	-4.61643000E+01	-4.61632000E+01
		-9.61485000E+01	 2.56783000E-01	-2.87675000E+01	 6.79873000E+00	 0.00000000E+00	 0.00000000E+00	 8.64694256E+01	-9.66256015E+01	-2.87675000E+01	 7.33884486E-01
		-9.61485000E+01	 2.56783000E-01	-2.87675000E+01	 6.79873000E+00	 0.00000000E+00	 0.00000000E+00	 8.64694256E+01	-9.66256015E+01	-2.87675000E+01	 7.33884486E-01
		-9.61485000E+01	 2.56783000E-01	-2.87675000E+01	-6.79873000E+00	 0.00000000E+00	 0.00000000E+00	 8.64694256E+01	-9.66256015E+01	-2.87675000E+01	 7.33884486E-01
		-9.61485000E+01	 2.56783000E-01	-2.87675000E+01	-6.79873000E+00	 0.00000000E+00	 0.00000000E+00	 8.64694256E+01	-9.66256015E+01	-2.87675000E+01	 7.33884486E-01
		-1.07709000E+02	-7.31239000E+00	-3.45064000E+01	 8.62702000E+00	 0.00000000E+00	 0.00000000E+00	 9.11706284E+01	-1.08444920E+02	-3.45064000E+01	-6.57646978E+00
		-1.07718000E+02	-7.31334000E+00	-3.45094000E+01	 8.62702000E+00	 0.00000000E+00	 0.00000000E+00	 9.11777752E+01	-1.08453862E+02	-3.45094000E+01	-6.57747793E+00
		-1.07709000E+02	-7.31239000E+00	-3.45064000E+01	 8.62702000E+00	 0.00000000E+00	 0.00000000E+00	 9.11706284E+01	-1.08444920E+02	-3.45064000E+01	-6.57646978E+00
		-1.07709000E+02	-7.31239000E+00	-3.45064000E+01	-8.62702000E+00	 0.00000000E+00	 0.00000000E+00	 9.11706284E+01	-1.08444920E+02	-3.45064000E+01	-6.57646978E+00
		-1.07718000E+02	-7.31334000E+00	-3.45094000E+01	-8.62702000E+00	 0.00000000E+00	 0.00000000E+00	 9.11777752E+01	-1.08453862E+02	-3.45094000E+01	-6.57747793E+00
		-1.07709000E+02	-7.31239000E+00	-3.45064000E+01	-8.62702000E+00	 0.00000000E+00	 0.00000000E+00	 9.11706284E+01	-1.08444920E+02	-3.45064000E+01	-6.57646978E+00
		-1.07718000E+02	-7.31334000E+00	-3.45094000E+01	 0.00000000E+00	 0.00000000E+00	 0.00000000E+00	 8.99450403E+01	-1.07718000E+02	-3.45094000E+01	-7.31334000E+00
		-1.07718000E+02	-7.31334000E+00	-3.45094000E+01	 0.00000000E+00	 0.00000000E+00	 0.00000000E+00	 8.99450403E+01	-1.07718000E+02	-3.45094000E+01	-7.31334000E+00
