    1C
    1UUSER                                                              
    1UDATE              01.august.2019                                  
    1UTIME              09:38:49                                        
    1UHOST                                                              
    1UPGM               CalculiX                                        
    1UVERSION           Version 2.15                             
    1UCOMPILETIME       Fri 15 Mar 11:57:46 CET 2019                    
    1UDIR                                                               
    1UDBN                                                               
    1UMAT    1EL                                                        
    2C                            96                                     1
 -1         3 2.00000E-01 1.00000E+00 0.00000E+00
 -1         4 2.00000E-01 0.00000E+00 0.00000E+00
 -1         5 1.41421E-01 0.00000E+00-1.41421E-01
 -1         6 1.41421E-01 1.00000E+00-1.41421E-01
 -1         7 1.00000E+00 1.00000E+00 0.00000E+00
 -1         8 1.00000E+00 0.00000E+00 0.00000E+00
 -1         9 7.07107E-01 0.00000E+00-7.07107E-01
 -1        10 7.07107E-01 1.00000E+00-7.07107E-01
 -1        11 2.00000E-01 5.00000E-01 0.00000E+00
 -1        12 1.84776E-01 0.00000E+00-7.65367E-02
 -1        13 1.41421E-01 5.00000E-01-1.41421E-01
 -1        14 1.84776E-01 1.00000E+00-7.65367E-02
 -1        15 6.00000E-01 1.00000E+00 0.00000E+00
 -1        16 6.00000E-01 0.00000E+00 0.00000E+00
 -1        17 4.24264E-01 0.00000E+00-4.24264E-01
 -1        18 4.24264E-01 1.00000E+00-4.24264E-01
 -1        19 1.00000E+00 5.00000E-01 0.00000E+00
 -1        20 9.23880E-01 0.00000E+00-3.82683E-01
 -1        21 7.07107E-01 5.00000E-01-7.07107E-01
 -1        22 9.23880E-01 1.00000E+00-3.82683E-01
 -1        23 2.77556E-17 0.00000E+00-2.00000E-01
 -1        24 2.77556E-17 1.00000E+00-2.00000E-01
 -1        25 2.22045E-16 0.00000E+00-1.00000E+00
 -1        26 2.22045E-16 1.00000E+00-1.00000E+00
 -1        27 7.65367E-02 0.00000E+00-1.84776E-01
 -1        28 2.77556E-17 5.00000E-01-2.00000E-01
 -1        29 7.65367E-02 1.00000E+00-1.84776E-01
 -1        30 1.24900E-16 0.00000E+00-6.00000E-01
 -1        31 1.24900E-16 1.00000E+00-6.00000E-01
 -1        32 3.82683E-01 0.00000E+00-9.23880E-01
 -1        33 2.22045E-16 5.00000E-01-1.00000E+00
 -1        34 3.82683E-01 1.00000E+00-9.23880E-01
 -1        35-1.41421E-01 0.00000E+00-1.41421E-01
 -1        36-1.41421E-01 1.00000E+00-1.41421E-01
 -1        37-7.07107E-01 0.00000E+00-7.07107E-01
 -1        38-7.07107E-01 1.00000E+00-7.07107E-01
 -1        39-7.65367E-02 0.00000E+00-1.84776E-01
 -1        40-1.41421E-01 5.00000E-01-1.41421E-01
 -1        41-7.65367E-02 1.00000E+00-1.84776E-01
 -1        42-4.24264E-01 0.00000E+00-4.24264E-01
 -1        43-4.24264E-01 1.00000E+00-4.24264E-01
 -1        44-3.82683E-01 0.00000E+00-9.23880E-01
 -1        45-7.07107E-01 5.00000E-01-7.07107E-01
 -1        46-3.82683E-01 1.00000E+00-9.23880E-01
 -1        47-2.00000E-01 0.00000E+00-8.32667E-17
 -1        48-2.00000E-01 1.00000E+00-8.32667E-17
 -1        49-1.00000E+00 0.00000E+00-2.77556E-16
 -1        50-1.00000E+00 1.00000E+00-2.77556E-16
 -1        51-1.84776E-01 0.00000E+00-7.65367E-02
 -1        52-2.00000E-01 5.00000E-01-8.32667E-17
 -1        53-1.84776E-01 1.00000E+00-7.65367E-02
 -1        54-6.00000E-01 0.00000E+00-1.80411E-16
 -1        55-6.00000E-01 1.00000E+00-1.80411E-16
 -1        56-9.23880E-01 0.00000E+00-3.82683E-01
 -1        57-1.00000E+00 5.00000E-01-2.77556E-16
 -1        58-9.23880E-01 1.00000E+00-3.82683E-01
 -1        59-1.41421E-01 0.00000E+00 1.41421E-01
 -1        60-1.41421E-01 1.00000E+00 1.41421E-01
 -1        61-7.07107E-01 0.00000E+00 7.07107E-01
 -1        62-7.07107E-01 1.00000E+00 7.07107E-01
 -1        63-1.84776E-01 0.00000E+00 7.65367E-02
 -1        64-1.41421E-01 5.00000E-01 1.41421E-01
 -1        65-1.84776E-01 1.00000E+00 7.65367E-02
 -1        66-4.24264E-01 0.00000E+00 4.24264E-01
 -1        67-4.24264E-01 1.00000E+00 4.24264E-01
 -1        68-9.23880E-01 0.00000E+00 3.82683E-01
 -1        69-7.07107E-01 5.00000E-01 7.07107E-01
 -1        70-9.23880E-01 1.00000E+00 3.82683E-01
 -1        71-1.11022E-16 0.00000E+00 2.00000E-01
 -1        72-1.11022E-16 1.00000E+00 2.00000E-01
 -1        73-4.44089E-16 0.00000E+00 1.00000E+00
 -1        74-4.44089E-16 1.00000E+00 1.00000E+00
 -1        75-7.65367E-02 0.00000E+00 1.84776E-01
 -1        76-1.11022E-16 5.00000E-01 2.00000E-01
 -1        77-7.65367E-02 1.00000E+00 1.84776E-01
 -1        78-2.77556E-16 0.00000E+00 6.00000E-01
 -1        79-2.77556E-16 1.00000E+00 6.00000E-01
 -1        80-3.82683E-01 0.00000E+00 9.23880E-01
 -1        81-4.44089E-16 5.00000E-01 1.00000E+00
 -1        82-3.82683E-01 1.00000E+00 9.23880E-01
 -1        83 1.41421E-01 0.00000E+00 1.41421E-01
 -1        84 1.41421E-01 1.00000E+00 1.41421E-01
 -1        85 7.07107E-01 0.00000E+00 7.07107E-01
 -1        86 7.07107E-01 1.00000E+00 7.07107E-01
 -1        87 7.65367E-02 0.00000E+00 1.84776E-01
 -1        88 1.41421E-01 5.00000E-01 1.41421E-01
 -1        89 7.65367E-02 1.00000E+00 1.84776E-01
 -1        90 4.24264E-01 0.00000E+00 4.24264E-01
 -1        91 4.24264E-01 1.00000E+00 4.24264E-01
 -1        92 3.82683E-01 0.00000E+00 9.23880E-01
 -1        93 7.07107E-01 5.00000E-01 7.07107E-01
 -1        94 3.82683E-01 1.00000E+00 9.23880E-01
 -1        95 1.84776E-01 0.00000E+00 7.65367E-02
 -1        96 1.84776E-01 1.00000E+00 7.65367E-02
 -1        97 9.23880E-01 0.00000E+00 3.82683E-01
 -1        98 9.23880E-01 1.00000E+00 3.82683E-01
 -3
    3C                             8                                     1
 -1         2    4    0    1
 -2         3         4         5         6         7         8         9        10        11        12
 -2        13        14        15        16        17        18        19        20        21        22
 -1         3    4    0    1
 -2         6         5        23        24        10         9        25        26        13        27
 -2        28        29        18        17        30        31        21        32        33        34
 -1         4    4    0    1
 -2        24        23        35        36        26        25        37        38        28        39
 -2        40        41        31        30        42        43        33        44        45        46
 -1         5    4    0    1
 -2        36        35        47        48        38        37        49        50        40        51
 -2        52        53        43        42        54        55        45        56        57        58
 -1         6    4    0    1
 -2        48        47        59        60        50        49        61        62        52        63
 -2        64        65        55        54        66        67        57        68        69        70
 -1         7    4    0    1
 -2        60        59        71        72        62        61        73        74        64        75
 -2        76        77        67        66        78        79        69        80        81        82
 -1         8    4    0    1
 -2        72        71        83        84        74        73        85        86        76        87
 -2        88        89        79        78        90        91        81        92        93        94
 -1         9    4    0    1
 -2        84        83         4         3        86        85         8         7        88        95
 -2        11        96        91        90        16        15        93        97        19        98
 -3
 9999
