<?xml version="1.0"?>
<VTKFile type="UnstructuredGrid" version="0.1" byte_order="LittleEndian">
	<UnstructuredGrid>
		<Piece NumberOfPoints="13" NumberOfCells="7">
			<Points>
				<DataArray type="Float64" NumberOfComponents="3" format="ascii">
					 5.00000000E-01	 0.00000000E+00	 0.00000000E+00
					 1.00000000E+00	 0.00000000E+00	 0.00000000E+00
					 1.50000000E+00	 0.00000000E+00	 0.00000000E+00
					 2.00000000E+00	 0.00000000E+00	 0.00000000E+00
					 2.50000000E+00	 0.00000000E+00	 0.00000000E+00
					 3.00000000E+00	 0.00000000E+00	 0.00000000E+00
					 3.50000000E+00	 0.00000000E+00	 0.00000000E+00
					 4.00000000E+00	 0.00000000E+00	 0.00000000E+00
					 4.50000000E+00	 0.00000000E+00	 0.00000000E+00
					 5.00000000E+00	 0.00000000E+00	 0.00000000E+00
					 5.50000000E+00	 0.00000000E+00	 0.00000000E+00
					 6.00000000E+00	 0.00000000E+00	 0.00000000E+00
					 6.50000000E+00	 0.00000000E+00	 0.00000000E+00

				</DataArray>
			</Points>
			<Cells>
				<DataArray type="Int32" Name="connectivity" format="ascii">
					0 1 1 3 2 3 5 4 5 7 6 7 9 8 9 11 10 11 12 
				</DataArray>
				<DataArray type="Int32" Name="offsets" format="ascii">
					2 5 8 11 14 17 19 
				</DataArray>
				<DataArray type="UInt8" Name="types" format="ascii">
					3 21 21 21 21 21 3 
				</DataArray>
			</Cells>
			<PointData>
				<DataArray type="Float32" Name="TOTEMP" NumberOfComponents="1" ComponentName0="TT" format="ascii">
					 2.93000000E+02
					 2.93000000E+02
					 2.93000000E+02
					 2.93000000E+02
					 2.93000000E+02
					 2.93000000E+02
					 7.45500000E+02
					 1.19800000E+03
					 1.19800000E+03
					 1.19800000E+03
					 1.19800000E+03
					 1.19800000E+03
					 1.19800000E+03
				</DataArray>
				<DataArray type="Float32" Name="MAFLOW" NumberOfComponents="1" ComponentName0="MF" format="ascii">
					 4.65813000E-01
					 4.65813000E-01
					 4.65813000E-01
					 4.65813000E-01
					 4.65813000E-01
					 4.65813000E-01
					 4.65813000E-01
					 4.65813000E-01
					 4.65813000E-01
					 4.65813000E-01
					 4.65813000E-01
					 4.65813000E-01
					 4.65813000E-01
				</DataArray>
				<DataArray type="Float32" Name="TOPRES" NumberOfComponents="1" ComponentName0="PT" format="ascii">
					 1.00000000E+05
					 1.00000000E+05
					 9.99954000E+04
					 9.99909000E+04
					 1.81525000E+05
					 2.63060000E+05
					 2.30167000E+05
					 1.97274000E+05
					 1.80778000E+05
					 1.64282000E+05
					 1.32141000E+05
					 1.00000000E+05
					 1.00000000E+05
				</DataArray>
			</PointData>
		</Piece>
	</UnstructuredGrid>
</VTKFile>