# vtk DataFile Version 3.0

ASCII
DATASET UNSTRUCTURED_GRID

POINTS 13 double
	 5.00000000E-01	 0.00000000E+00	 0.00000000E+00
	 1.00000000E+00	 0.00000000E+00	 0.00000000E+00
	 1.50000000E+00	 0.00000000E+00	 0.00000000E+00
	 2.00000000E+00	 0.00000000E+00	 0.00000000E+00
	 2.50000000E+00	 0.00000000E+00	 0.00000000E+00
	 3.00000000E+00	 0.00000000E+00	 0.00000000E+00
	 3.50000000E+00	 0.00000000E+00	 0.00000000E+00
	 4.00000000E+00	 0.00000000E+00	 0.00000000E+00
	 4.50000000E+00	 0.00000000E+00	 0.00000000E+00
	 5.00000000E+00	 0.00000000E+00	 0.00000000E+00
	 5.50000000E+00	 0.00000000E+00	 0.00000000E+00
	 6.00000000E+00	 0.00000000E+00	 0.00000000E+00
	 6.50000000E+00	 0.00000000E+00	 0.00000000E+00

CELLS 7 26
	2 0 1 
	3 1 3 2 
	3 3 5 4 
	3 5 7 6 
	3 7 9 8 
	3 9 11 10 
	2 11 12 

CELL_TYPES 7
	3
	21
	21
	21
	21
	21
	3

POINT_DATA 13
FIELD TOTEMP 1
	TOTEMP 1 13 double
		 2.93000000E+02
		 2.93000000E+02
		 2.93000000E+02
		 2.93000000E+02
		 2.93000000E+02
		 2.93000000E+02
		 7.45500000E+02
		 1.19800000E+03
		 1.19800000E+03
		 1.19800000E+03
		 1.19800000E+03
		 1.19800000E+03
		 1.19800000E+03
FIELD MAFLOW 1
	MAFLOW 1 13 double
		 4.65813000E-01
		 4.65813000E-01
		 4.65813000E-01
		 4.65813000E-01
		 4.65813000E-01
		 4.65813000E-01
		 4.65813000E-01
		 4.65813000E-01
		 4.65813000E-01
		 4.65813000E-01
		 4.65813000E-01
		 4.65813000E-01
		 4.65813000E-01
FIELD TOPRES 1
	TOPRES 1 13 double
		 1.00000000E+05
		 1.00000000E+05
		 9.99954000E+04
		 9.99909000E+04
		 1.81525000E+05
		 2.63060000E+05
		 2.30167000E+05
		 1.97274000E+05
		 1.80778000E+05
		 1.64282000E+05
		 1.32141000E+05
		 1.00000000E+05
		 1.00000000E+05
