<?xml version="1.0"?>
<VTKFile type="UnstructuredGrid" version="0.1" byte_order="LittleEndian">
	<UnstructuredGrid>
		<Piece NumberOfPoints="416" NumberOfCells="54">
			<Points>
				<DataArray type="Float64" NumberOfComponents="3" format="ascii">
					 0.00000000E+00	 0.00000000E+00	 1.00000000E+00
					 0.00000000E+00	 0.00000000E+00	 6.66667000E-01
					 0.00000000E+00	 3.33333000E-01	 6.66667000E-01
					 0.00000000E+00	 3.33333000E-01	 1.00000000E+00
					 3.33333000E-01	 0.00000000E+00	 1.00000000E+00
					 3.33333000E-01	 0.00000000E+00	 6.66667000E-01
					 3.33333000E-01	 3.33333000E-01	 6.66667000E-01
					 3.33333000E-01	 3.33333000E-01	 1.00000000E+00
					 0.00000000E+00	 0.00000000E+00	 8.33333000E-01
					 0.00000000E+00	 1.66667000E-01	 6.66667000E-01
					 0.00000000E+00	 3.33333000E-01	 8.33333000E-01
					 0.00000000E+00	 1.66667000E-01	 1.00000000E+00
					 1.66667000E-01	 0.00000000E+00	 1.00000000E+00
					 1.66667000E-01	 0.00000000E+00	 6.66667000E-01
					 1.66667000E-01	 3.33333000E-01	 6.66667000E-01
					 1.66667000E-01	 3.33333000E-01	 1.00000000E+00
					 3.33333000E-01	 0.00000000E+00	 8.33333000E-01
					 3.33333000E-01	 1.66667000E-01	 6.66667000E-01
					 3.33333000E-01	 3.33333000E-01	 8.33333000E-01
					 3.33333000E-01	 1.66667000E-01	 1.00000000E+00
					 0.00000000E+00	 6.66667000E-01	 6.66667000E-01
					 0.00000000E+00	 6.66667000E-01	 1.00000000E+00
					 3.33333000E-01	 6.66667000E-01	 6.66667000E-01
					 3.33333000E-01	 6.66667000E-01	 1.00000000E+00
					 0.00000000E+00	 5.00000000E-01	 6.66667000E-01
					 0.00000000E+00	 6.66667000E-01	 8.33333000E-01
					 0.00000000E+00	 5.00000000E-01	 1.00000000E+00
					 1.66667000E-01	 6.66667000E-01	 6.66667000E-01
					 1.66667000E-01	 6.66667000E-01	 1.00000000E+00
					 3.33333000E-01	 5.00000000E-01	 6.66667000E-01
					 3.33333000E-01	 6.66667000E-01	 8.33333000E-01
					 3.33333000E-01	 5.00000000E-01	 1.00000000E+00
					 0.00000000E+00	 1.00000000E+00	 6.66667000E-01
					 0.00000000E+00	 1.00000000E+00	 1.00000000E+00
					 3.33333000E-01	 1.00000000E+00	 6.66667000E-01
					 3.33333000E-01	 1.00000000E+00	 1.00000000E+00
					 0.00000000E+00	 8.33333000E-01	 6.66667000E-01
					 0.00000000E+00	 1.00000000E+00	 8.33333000E-01
					 0.00000000E+00	 8.33333000E-01	 1.00000000E+00
					 1.66667000E-01	 1.00000000E+00	 6.66667000E-01
					 1.66667000E-01	 1.00000000E+00	 1.00000000E+00
					 3.33333000E-01	 8.33333000E-01	 6.66667000E-01
					 3.33333000E-01	 1.00000000E+00	 8.33333000E-01
					 3.33333000E-01	 8.33333000E-01	 1.00000000E+00
					 6.66667000E-01	 0.00000000E+00	 1.00000000E+00
					 6.66667000E-01	 0.00000000E+00	 6.66667000E-01
					 6.66667000E-01	 3.33333000E-01	 6.66667000E-01
					 6.66667000E-01	 3.33333000E-01	 1.00000000E+00
					 5.00000000E-01	 0.00000000E+00	 1.00000000E+00
					 5.00000000E-01	 0.00000000E+00	 6.66667000E-01
					 5.00000000E-01	 3.33333000E-01	 6.66667000E-01
					 5.00000000E-01	 3.33333000E-01	 1.00000000E+00
					 6.66667000E-01	 0.00000000E+00	 8.33333000E-01
					 6.66667000E-01	 1.66667000E-01	 6.66667000E-01
					 6.66667000E-01	 3.33333000E-01	 8.33333000E-01
					 6.66667000E-01	 1.66667000E-01	 1.00000000E+00
					 6.66667000E-01	 6.66667000E-01	 6.66667000E-01
					 6.66667000E-01	 6.66667000E-01	 1.00000000E+00
					 5.00000000E-01	 6.66667000E-01	 6.66667000E-01
					 5.00000000E-01	 6.66667000E-01	 1.00000000E+00
					 6.66667000E-01	 5.00000000E-01	 6.66667000E-01
					 6.66667000E-01	 6.66667000E-01	 8.33333000E-01
					 6.66667000E-01	 5.00000000E-01	 1.00000000E+00
					 6.66667000E-01	 1.00000000E+00	 6.66667000E-01
					 6.66667000E-01	 1.00000000E+00	 1.00000000E+00
					 5.00000000E-01	 1.00000000E+00	 6.66667000E-01
					 5.00000000E-01	 1.00000000E+00	 1.00000000E+00
					 6.66667000E-01	 8.33333000E-01	 6.66667000E-01
					 6.66667000E-01	 1.00000000E+00	 8.33333000E-01
					 6.66667000E-01	 8.33333000E-01	 1.00000000E+00
					 1.00000000E+00	 0.00000000E+00	 1.00000000E+00
					 1.00000000E+00	 0.00000000E+00	 6.66667000E-01
					 1.00000000E+00	 3.33333000E-01	 6.66667000E-01
					 1.00000000E+00	 3.33333000E-01	 1.00000000E+00
					 8.33333000E-01	 0.00000000E+00	 1.00000000E+00
					 8.33333000E-01	 0.00000000E+00	 6.66667000E-01
					 8.33333000E-01	 3.33333000E-01	 6.66667000E-01
					 8.33333000E-01	 3.33333000E-01	 1.00000000E+00
					 1.00000000E+00	 0.00000000E+00	 8.33333000E-01
					 1.00000000E+00	 1.66667000E-01	 6.66667000E-01
					 1.00000000E+00	 3.33333000E-01	 8.33333000E-01
					 1.00000000E+00	 1.66667000E-01	 1.00000000E+00
					 1.00000000E+00	 6.66667000E-01	 6.66667000E-01
					 1.00000000E+00	 6.66667000E-01	 1.00000000E+00
					 8.33333000E-01	 6.66667000E-01	 6.66667000E-01
					 8.33333000E-01	 6.66667000E-01	 1.00000000E+00
					 1.00000000E+00	 5.00000000E-01	 6.66667000E-01
					 1.00000000E+00	 6.66667000E-01	 8.33333000E-01
					 1.00000000E+00	 5.00000000E-01	 1.00000000E+00
					 1.00000000E+00	 1.00000000E+00	 6.66667000E-01
					 1.00000000E+00	 1.00000000E+00	 1.00000000E+00
					 8.33333000E-01	 1.00000000E+00	 6.66667000E-01
					 8.33333000E-01	 1.00000000E+00	 1.00000000E+00
					 1.00000000E+00	 8.33333000E-01	 6.66667000E-01
					 1.00000000E+00	 1.00000000E+00	 8.33333000E-01
					 1.00000000E+00	 8.33333000E-01	 1.00000000E+00
					 0.00000000E+00	 0.00000000E+00	 3.33333000E-01
					 0.00000000E+00	 3.33333000E-01	 3.33333000E-01
					 3.33333000E-01	 0.00000000E+00	 3.33333000E-01
					 3.33333000E-01	 3.33333000E-01	 3.33333000E-01
					 0.00000000E+00	 0.00000000E+00	 5.00000000E-01
					 0.00000000E+00	 1.66667000E-01	 3.33333000E-01
					 0.00000000E+00	 3.33333000E-01	 5.00000000E-01
					 1.66667000E-01	 0.00000000E+00	 3.33333000E-01
					 1.66667000E-01	 3.33333000E-01	 3.33333000E-01
					 3.33333000E-01	 0.00000000E+00	 5.00000000E-01
					 3.33333000E-01	 1.66667000E-01	 3.33333000E-01
					 3.33333000E-01	 3.33333000E-01	 5.00000000E-01
					 0.00000000E+00	 6.66667000E-01	 3.33333000E-01
					 3.33333000E-01	 6.66667000E-01	 3.33333000E-01
					 0.00000000E+00	 5.00000000E-01	 3.33333000E-01
					 0.00000000E+00	 6.66667000E-01	 5.00000000E-01
					 1.66667000E-01	 6.66667000E-01	 3.33333000E-01
					 3.33333000E-01	 5.00000000E-01	 3.33333000E-01
					 3.33333000E-01	 6.66667000E-01	 5.00000000E-01
					 0.00000000E+00	 1.00000000E+00	 3.33333000E-01
					 3.33333000E-01	 1.00000000E+00	 3.33333000E-01
					 0.00000000E+00	 8.33333000E-01	 3.33333000E-01
					 0.00000000E+00	 1.00000000E+00	 5.00000000E-01
					 1.66667000E-01	 1.00000000E+00	 3.33333000E-01
					 3.33333000E-01	 8.33333000E-01	 3.33333000E-01
					 3.33333000E-01	 1.00000000E+00	 5.00000000E-01
					 6.66667000E-01	 0.00000000E+00	 3.33333000E-01
					 6.66667000E-01	 3.33333000E-01	 3.33333000E-01
					 5.00000000E-01	 0.00000000E+00	 3.33333000E-01
					 5.00000000E-01	 3.33333000E-01	 3.33333000E-01
					 6.66667000E-01	 0.00000000E+00	 5.00000000E-01
					 6.66667000E-01	 1.66667000E-01	 3.33333000E-01
					 6.66667000E-01	 3.33333000E-01	 5.00000000E-01
					 6.66667000E-01	 6.66667000E-01	 3.33333000E-01
					 5.00000000E-01	 6.66667000E-01	 3.33333000E-01
					 6.66667000E-01	 5.00000000E-01	 3.33333000E-01
					 6.66667000E-01	 6.66667000E-01	 5.00000000E-01
					 6.66667000E-01	 1.00000000E+00	 3.33333000E-01
					 5.00000000E-01	 1.00000000E+00	 3.33333000E-01
					 6.66667000E-01	 8.33333000E-01	 3.33333000E-01
					 6.66667000E-01	 1.00000000E+00	 5.00000000E-01
					 1.00000000E+00	 0.00000000E+00	 3.33333000E-01
					 1.00000000E+00	 3.33333000E-01	 3.33333000E-01
					 8.33333000E-01	 0.00000000E+00	 3.33333000E-01
					 8.33333000E-01	 3.33333000E-01	 3.33333000E-01
					 1.00000000E+00	 0.00000000E+00	 5.00000000E-01
					 1.00000000E+00	 1.66667000E-01	 3.33333000E-01
					 1.00000000E+00	 3.33333000E-01	 5.00000000E-01
					 1.00000000E+00	 6.66667000E-01	 3.33333000E-01
					 8.33333000E-01	 6.66667000E-01	 3.33333000E-01
					 1.00000000E+00	 5.00000000E-01	 3.33333000E-01
					 1.00000000E+00	 6.66667000E-01	 5.00000000E-01
					 1.00000000E+00	 1.00000000E+00	 3.33333000E-01
					 8.33333000E-01	 1.00000000E+00	 3.33333000E-01
					 1.00000000E+00	 8.33333000E-01	 3.33333000E-01
					 1.00000000E+00	 1.00000000E+00	 5.00000000E-01
					 0.00000000E+00	 0.00000000E+00	 0.00000000E+00
					 0.00000000E+00	 3.33333000E-01	 0.00000000E+00
					 3.33333000E-01	 0.00000000E+00	 0.00000000E+00
					 3.33333000E-01	 3.33333000E-01	 0.00000000E+00
					 0.00000000E+00	 0.00000000E+00	 1.66667000E-01
					 0.00000000E+00	 1.66667000E-01	 0.00000000E+00
					 0.00000000E+00	 3.33333000E-01	 1.66667000E-01
					 1.66667000E-01	 0.00000000E+00	 0.00000000E+00
					 1.66667000E-01	 3.33333000E-01	 0.00000000E+00
					 3.33333000E-01	 0.00000000E+00	 1.66667000E-01
					 3.33333000E-01	 1.66667000E-01	 0.00000000E+00
					 3.33333000E-01	 3.33333000E-01	 1.66667000E-01
					 0.00000000E+00	 6.66667000E-01	 0.00000000E+00
					 3.33333000E-01	 6.66667000E-01	 0.00000000E+00
					 0.00000000E+00	 5.00000000E-01	 0.00000000E+00
					 0.00000000E+00	 6.66667000E-01	 1.66667000E-01
					 1.66667000E-01	 6.66667000E-01	 0.00000000E+00
					 3.33333000E-01	 5.00000000E-01	 0.00000000E+00
					 3.33333000E-01	 6.66667000E-01	 1.66667000E-01
					 0.00000000E+00	 1.00000000E+00	 0.00000000E+00
					 3.33333000E-01	 1.00000000E+00	 0.00000000E+00
					 0.00000000E+00	 8.33333000E-01	 0.00000000E+00
					 0.00000000E+00	 1.00000000E+00	 1.66667000E-01
					 1.66667000E-01	 1.00000000E+00	 0.00000000E+00
					 3.33333000E-01	 8.33333000E-01	 0.00000000E+00
					 3.33333000E-01	 1.00000000E+00	 1.66667000E-01
					 6.66667000E-01	 0.00000000E+00	 0.00000000E+00
					 6.66667000E-01	 3.33333000E-01	 0.00000000E+00
					 5.00000000E-01	 0.00000000E+00	 0.00000000E+00
					 5.00000000E-01	 3.33333000E-01	 0.00000000E+00
					 6.66667000E-01	 0.00000000E+00	 1.66667000E-01
					 6.66667000E-01	 1.66667000E-01	 0.00000000E+00
[...]
			<PointData>
				<DataArray type="Float32" Name="U" NumberOfComponents="3" ComponentName0="D1" ComponentName1="D2" ComponentName2="D3" format="ascii">
					 1.09991000E-04	-4.80449000E-04	-3.82338000E-04
					-2.28798000E-05	-2.01671000E-04	-3.60041000E-04
					-1.40485000E-05	-2.05720000E-04	-1.61909000E-04
					 8.96773000E-05	-4.61622000E-04	-1.47181000E-04
					 2.47892000E-04	-6.22426000E-04	-9.65122000E-04
					-1.16256000E-05	-1.95913000E-04	-5.56338000E-04
					-1.16181000E-05	-2.02054000E-04	-2.47564000E-04
					 9.20622000E-05	-5.51277000E-04	-3.31460000E-04
					 4.72745000E-05	-3.52063000E-04	-4.16751000E-04
					-2.16432000E-05	-2.03523000E-04	-2.52302000E-04
					 2.76582000E-05	-3.49537000E-04	-1.55233000E-04
					 1.09905000E-04	-4.73956000E-04	-2.48772000E-04
					 1.85058000E-04	-5.30146000E-04	-5.49770000E-04
					-1.49122000E-05	-2.09416000E-04	-4.44998000E-04
					-1.44494000E-05	-2.11786000E-04	-1.99188000E-04
					 9.97159000E-05	-4.87023000E-04	-2.21968000E-04
					-2.92257000E-05	-3.25679000E-04	-7.20451000E-04
					-2.27096000E-05	-1.93927000E-04	-4.13620000E-04
					 8.18324000E-06	-3.29027000E-04	-3.01364000E-04
					 1.93334000E-04	-5.99415000E-04	-6.31005000E-04
					-2.81046000E-06	-2.18570000E-04	-3.54282000E-06
					 2.92691000E-05	-4.20881000E-04	 1.12295000E-05
					-2.66886000E-06	-2.12886000E-04	-2.52837000E-05
					 1.33530000E-05	-4.26193000E-04	-2.99703000E-05
					-4.29004000E-06	-2.12277000E-04	-7.78042000E-05
					 1.02795000E-05	-3.25946000E-04	 5.87224000E-06
					 4.99894000E-05	-4.41330000E-04	-7.34993000E-05
					-3.11016000E-06	-2.17001000E-04	-1.47882000E-05
					 2.40283000E-05	-4.18347000E-04	-1.48577000E-05
					-4.08747000E-06	-2.10793000E-04	-1.22725000E-04
					 7.74084000E-06	-3.24690000E-04	-2.82692000E-05
					 4.67201000E-05	-4.82303000E-04	-1.29836000E-04
					-8.83728000E-07	-2.20001000E-04	 1.52218000E-04
					 1.15545000E-05	-4.11088000E-04	 1.65572000E-04
					-3.87421000E-07	-2.17978000E-04	 1.42447000E-04
					 7.70804000E-06	-4.12982000E-04	 1.54980000E-04
					-1.03560000E-06	-2.19331000E-04	 6.75542000E-05
					 3.94877000E-06	-3.17694000E-04	 1.63351000E-04
					 1.70442000E-05	-4.12983000E-04	 8.16500000E-05
					-8.34970000E-07	-2.18794000E-04	 1.47079000E-04
					 1.08175000E-05	-4.11707000E-04	 1.59520000E-04
					-5.28008000E-07	-2.17164000E-04	 5.65396000E-05
					 2.38177000E-06	-3.16143000E-04	 1.53053000E-04
					 7.42616000E-06	-4.13530000E-04	 6.22645000E-05
					-2.47808000E-04	-6.22458000E-04	-9.65366000E-04
					 1.16563000E-05	-1.95912000E-04	-5.56378000E-04
					 1.16475000E-05	-2.02053000E-04	-2.47588000E-04
					-9.19895000E-05	-5.51307000E-04	-3.31528000E-04
					 5.52375000E-08	-6.73188000E-04	-1.53881000E-03
					 7.69572000E-09	-1.68298000E-04	-5.50918000E-04
					 1.22328000E-08	-1.87913000E-04	-2.66659000E-04
					 4.10825000E-08	-5.78044000E-04	-4.24540000E-04
					 2.92652000E-05	-3.25678000E-04	-7.20554000E-04
					 2.27382000E-05	-1.93926000E-04	-4.13655000E-04
					-8.13735000E-06	-3.29027000E-04	-3.01406000E-04
					-1.93250000E-04	-5.99447000E-04	-6.31166000E-04
					 2.69904000E-06	-2.12887000E-04	-2.52938000E-05
					-1.32961000E-05	-4.26199000E-04	-2.99803000E-05
					 1.52930000E-08	-2.11191000E-04	-2.91825000E-05
					 2.81308000E-08	-4.30263000E-04	-2.22325000E-05
					 4.11807000E-06	-2.10793000E-04	-1.22742000E-04
					-7.69625000E-06	-3.24694000E-04	-2.82811000E-05
					-4.66567000E-05	-4.82320000E-04	-1.29858000E-04
					 4.19530000E-07	-2.17979000E-04	 1.42440000E-04
					-7.65253000E-06	-4.12987000E-04	 1.54972000E-04
					 1.59877000E-08	-2.18547000E-04	 1.41668000E-04
					 2.79384000E-08	-4.12087000E-04	 1.49622000E-04
					 5.59173000E-07	-2.17165000E-04	 5.65316000E-05
					-2.33695000E-06	-3.16146000E-04	 1.53046000E-04
					-7.37186000E-06	-4.13535000E-04	 6.22560000E-05
					-1.09963000E-04	-4.80476000E-04	-3.82407000E-04
					 2.29012000E-05	-2.01669000E-04	-3.60101000E-04
					 1.40792000E-05	-2.05719000E-04	-1.61958000E-04
					-8.96307000E-05	-4.61645000E-04	-1.47229000E-04
					-1.85015000E-04	-5.30177000E-04	-5.49888000E-04
					 1.49459000E-05	-2.09415000E-04	-4.45061000E-04
					 1.44820000E-05	-2.11785000E-04	-1.99226000E-04
					-9.96610000E-05	-4.87050000E-04	-2.22024000E-04
					-4.72207000E-05	-3.52075000E-04	-4.16842000E-04
					 2.16712000E-05	-2.03521000E-04	-2.52358000E-04
					-2.76098000E-05	-3.49547000E-04	-1.55286000E-04
					-1.09870000E-04	-4.73981000E-04	-2.48828000E-04
					 2.84252000E-06	-2.18571000E-04	-3.57560000E-06
					-2.92133000E-05	-4.20894000E-04	 1.11967000E-05
					 3.14108000E-06	-2.17002000E-04	-1.48085000E-05
					-2.39716000E-05	-4.18358000E-04	-1.48807000E-05
					 4.32000000E-06	-2.12277000E-04	-7.78426000E-05
					-1.02361000E-05	-3.25952000E-04	 5.83950000E-06
					-4.99355000E-05	-4.41348000E-04	-7.35407000E-05
					 9.15222000E-07	-2.20003000E-04	 1.52193000E-04
					-1.14994000E-05	-4.11097000E-04	 1.65546000E-04
					 8.66838000E-07	-2.18796000E-04	 1.47065000E-04
					-1.07623000E-05	-4.11715000E-04	 1.59505000E-04
					 1.06723000E-06	-2.19333000E-04	 6.75261000E-05
					-3.90459000E-06	-3.17700000E-04	 1.63325000E-04
					-1.69893000E-05	-4.12992000E-04	 8.16212000E-05
					-1.66857000E-05	-4.64953000E-05	-2.19608000E-04
					-1.45060000E-05	-4.75370000E-05	-1.12129000E-04
					-9.92180000E-06	-4.13751000E-05	-2.31211000E-04
					-8.39878000E-06	-4.59685000E-05	-1.22406000E-04
					-3.69494000E-05	-1.08248000E-04	-3.11951000E-04
					-1.74779000E-05	-4.60065000E-05	-1.67473000E-04
					-2.18138000E-05	-1.11540000E-04	-1.49098000E-04
					-1.83159000E-05	-4.38748000E-05	-2.19835000E-04
					-1.37316000E-05	-4.84496000E-05	-1.12419000E-04
					-1.10374000E-05	-1.02457000E-04	-3.72817000E-04
					-9.58634000E-06	-4.28348000E-05	-1.79778000E-04
					-1.28359000E-05	-1.08612000E-04	-1.84754000E-04
					-5.77146000E-06	-5.59249000E-05	-1.19204000E-05
					-3.02303000E-06	-5.71347000E-05	-1.47966000E-05
					-9.50095000E-06	-5.16077000E-05	-5.98934000E-05
					-6.62960000E-06	-1.25668000E-04	-9.44235000E-06
					-5.08382000E-06	-5.77060000E-05	-1.19035000E-05
					-5.81146000E-06	-5.14142000E-05	-6.66799000E-05
					-4.34794000E-06	-1.23946000E-04	-2.19325000E-05
					-2.70171000E-06	-5.99753000E-05	 8.67870000E-05
					-1.85072000E-06	-6.00968000E-05	 8.51424000E-05
					-3.37429000E-06	-5.90819000E-05	 3.44613000E-05
					-3.09080000E-06	-1.30004000E-04	 1.24213000E-04
					-2.62049000E-06	-6.02916000E-05	 8.65992000E-05
					-1.90535000E-06	-5.95895000E-05	 3.27616000E-05
					-1.72726000E-06	-1.28957000E-04	 1.18740000E-04
					 9.92722000E-06	-4.13736000E-05	-2.31222000E-04
					 8.40506000E-06	-4.59671000E-05	-1.22415000E-04
					 3.73464000E-09	-4.36169000E-05	-2.39589000E-04
					 3.29057000E-09	-4.66289000E-05	-1.26373000E-04
					 1.10523000E-05	-1.02455000E-04	-3.72837000E-04
					 9.59152000E-06	-4.28334000E-05	-1.79789000E-04
					 1.28514000E-05	-1.08610000E-04	-1.84769000E-04
					 3.03198000E-06	-5.71340000E-05	-1.48027000E-05
					 4.42180000E-09	-5.64719000E-05	-1.61619000E-05
					 5.81901000E-06	-5.14131000E-05	-6.66874000E-05
					 4.36631000E-06	-1.23946000E-04	-2.19410000E-05
					 1.86053000E-06	-6.00962000E-05	 8.51376000E-05
					 4.93225000E-09	-5.96788000E-05	 8.46246000E-05
					 1.91521000E-06	-5.95890000E-05	 3.27566000E-05
					 1.74715000E-06	-1.28957000E-04	 1.18734000E-04
					 1.66949000E-05	-4.64919000E-05	-2.19640000E-04
					 1.45138000E-05	-4.75345000E-05	-1.12156000E-04
					 1.83221000E-05	-4.38719000E-05	-2.19856000E-04
					 1.37385000E-05	-4.84469000E-05	-1.12437000E-04
					 3.69675000E-05	-1.08244000E-04	-3.11997000E-04
					 1.74858000E-05	-4.60033000E-05	-1.67504000E-04
					 2.18318000E-05	-1.11537000E-04	-1.49137000E-04
					 5.78031000E-06	-5.59237000E-05	-1.19402000E-05
					 5.09277000E-06	-5.77046000E-05	-1.19159000E-05
					 9.50938000E-06	-5.16059000E-05	-5.99163000E-05
					 6.64864000E-06	-1.25667000E-04	-9.46992000E-06
					 2.71181000E-06	-5.99745000E-05	 8.67696000E-05
					 2.63042000E-06	-6.02906000E-05	 8.65892000E-05
					 3.38398000E-06	-5.90810000E-05	 3.44433000E-05
					 3.11074000E-06	-1.30004000E-04	 1.24191000E-04
					 0.00000000E+00	 0.00000000E+00	 0.00000000E+00
					 0.00000000E+00	 0.00000000E+00	 0.00000000E+00
					 0.00000000E+00	 0.00000000E+00	 0.00000000E+00
					 0.00000000E+00	 0.00000000E+00	 0.00000000E+00
					-6.52183000E-06	-1.00959000E-05	-1.12925000E-04
					 0.00000000E+00	 0.00000000E+00	 0.00000000E+00
					-6.21784000E-06	-9.98964000E-06	-6.05459000E-05
					 0.00000000E+00	 0.00000000E+00	 0.00000000E+00
					 0.00000000E+00	 0.00000000E+00	 0.00000000E+00
					-5.00260000E-06	-8.81100000E-06	-1.11265000E-04
					 0.00000000E+00	 0.00000000E+00	 0.00000000E+00
					-4.00877000E-06	-1.04360000E-05	-6.03553000E-05
					 0.00000000E+00	 0.00000000E+00	 0.00000000E+00
					 0.00000000E+00	 0.00000000E+00	 0.00000000E+00
					 0.00000000E+00	 0.00000000E+00	 0.00000000E+00
					-2.80686000E-06	-1.46068000E-05	-7.85651000E-06
					 0.00000000E+00	 0.00000000E+00	 0.00000000E+00
					 0.00000000E+00	 0.00000000E+00	 0.00000000E+00
					-1.72185000E-06	-1.54614000E-05	-7.82082000E-06
					 0.00000000E+00	 0.00000000E+00	 0.00000000E+00
					 0.00000000E+00	 0.00000000E+00	 0.00000000E+00
					 0.00000000E+00	 0.00000000E+00	 0.00000000E+00
					-1.20433000E-06	-1.62898000E-05	 4.47542000E-05
					 0.00000000E+00	 0.00000000E+00	 0.00000000E+00
					 0.00000000E+00	 0.00000000E+00	 0.00000000E+00
					-1.01325000E-06	-1.65499000E-05	 4.46582000E-05
					 0.00000000E+00	 0.00000000E+00	 0.00000000E+00
					 0.00000000E+00	 0.00000000E+00	 0.00000000E+00
					 0.00000000E+00	 0.00000000E+00	 0.00000000E+00
					 0.00000000E+00	 0.00000000E+00	 0.00000000E+00
					 5.00347000E-06	-8.81006000E-06	-1.11270000E-04
					 0.00000000E+00	 0.00000000E+00	 0.00000000E+00
					 4.00991000E-06	-1.04350000E-05	-6.03599000E-05
					 0.00000000E+00	 0.00000000E+00	 0.00000000E+00
					 0.00000000E+00	 0.00000000E+00	 0.00000000E+00
					 0.00000000E+00	 0.00000000E+00	 0.00000000E+00
					 1.72459000E-06	-1.54608000E-05	-7.82395000E-06
					 0.00000000E+00	 0.00000000E+00	 0.00000000E+00
					 0.00000000E+00	 0.00000000E+00	 0.00000000E+00
					 0.00000000E+00	 0.00000000E+00	 0.00000000E+00
					 1.01653000E-06	-1.65495000E-05	 4.46555000E-05
					 0.00000000E+00	 0.00000000E+00	 0.00000000E+00
					 0.00000000E+00	 0.00000000E+00	 0.00000000E+00
					 0.00000000E+00	 0.00000000E+00	 0.00000000E+00
					 0.00000000E+00	 0.00000000E+00	 0.00000000E+00
					 6.52305000E-06	-1.00943000E-05	-1.12940000E-04
					 0.00000000E+00	 0.00000000E+00	 0.00000000E+00
					 6.21926000E-06	-9.98816000E-06	-6.05590000E-05
					 0.00000000E+00	 0.00000000E+00	 0.00000000E+00
					 0.00000000E+00	 0.00000000E+00	 0.00000000E+00
					 0.00000000E+00	 0.00000000E+00	 0.00000000E+00
					 2.80943000E-06	-1.46058000E-05	-7.86695000E-06
					 0.00000000E+00	 0.00000000E+00	 0.00000000E+00
					 0.00000000E+00	 0.00000000E+00	 0.00000000E+00
					 0.00000000E+00	 0.00000000E+00	 0.00000000E+00
					 1.20752000E-06	-1.62892000E-05	 4.47445000E-05
					 0.00000000E+00	 0.00000000E+00	-1.54803000E-02
					 0.00000000E+00	 0.00000000E+00	-1.54720000E-02
					 0.00000000E+00	 0.00000000E+00	-1.03069000E-02
					 0.00000000E+00	 0.00000000E+00	-1.03147000E-02
					-6.30796000E-06	 4.69527000E-03	-1.53353000E-02
					-7.04593000E-06	 5.14488000E-03	-1.53145000E-02
					-6.66819000E-06	 5.04572000E-03	-1.02127000E-02
					-5.39811000E-06	 4.59747000E-03	-1.02286000E-02
					 0.00000000E+00	 0.00000000E+00	-1.54771000E-02
					 0.00000000E+00	 0.00000000E+00	-1.28626000E-02
					 0.00000000E+00	 0.00000000E+00	-1.03109000E-02
					 0.00000000E+00	 0.00000000E+00	-1.28694000E-02
					-2.68840000E-06	 2.38056000E-03	-1.54099000E-02
					-3.62309000E-06	 2.60867000E-03	-1.53957000E-02
					-3.35979000E-06	 2.52557000E-03	-1.02580000E-02
					-2.82863000E-06	 2.30042000E-03	-1.02694000E-02
					-5.34228000E-06	 4.97502000E-03	-1.53219000E-02
					-6.72854000E-06	 5.09155000E-03	-1.27620000E-02
					-5.79664000E-06	 4.87645000E-03	-1.02205000E-02
					-5.92764000E-06	 4.64232000E-03	-1.27804000E-02
					 0.00000000E+00	 0.00000000E+00	-5.24738000E-03
					 0.00000000E+00	 0.00000000E+00	-5.25504000E-03
					-7.04651000E-06	 4.95548000E-03	-5.15482000E-03
					-6.06825000E-06	 4.51118000E-03	-5.17064000E-03
					 0.00000000E+00	 0.00000000E+00	-7.76946000E-03
					 0.00000000E+00	 0.00000000E+00	-5.25136000E-03
					 0.00000000E+00	 0.00000000E+00	-7.77692000E-03
					-3.49586000E-06	 2.47362000E-03	-5.19957000E-03
					-3.03864000E-06	 2.25274000E-03	-5.21102000E-03
					-6.91687000E-06	 5.00046000E-03	-7.67613000E-03
					-6.45070000E-06	 4.78750000E-03	-5.16196000E-03
					-5.76353000E-06	 4.55407000E-03	-7.69247000E-03
					 0.00000000E+00	 0.00000000E+00	-2.91344000E-04
					 0.00000000E+00	 0.00000000E+00	-2.99035000E-04
					-7.05366000E-06	 4.86041000E-03	-1.37810000E-04
					-6.18251000E-06	 4.41712000E-03	-1.59046000E-04
					 0.00000000E+00	 0.00000000E+00	-2.74247000E-03
					 0.00000000E+00	 0.00000000E+00	-2.95312000E-04
					 0.00000000E+00	 0.00000000E+00	-2.74957000E-03
					-3.49257000E-06	 2.39527000E-03	-2.19517000E-04
					-2.98927000E-06	 2.17754000E-03	-2.33750000E-04
					-7.12016000E-06	 4.91094000E-03	-2.64618000E-03
					-6.64609000E-06	 4.69262000E-03	-1.47085000E-04
					-6.24898000E-06	 4.46745000E-03	-2.66336000E-03
					-3.91801000E-06	 9.25919000E-03	-1.52219000E-02
					-1.09216000E-05	 1.01470000E-02	-1.51768000E-02
					-1.40385000E-05	 1.00535000E-02	-1.01071000E-02
					-1.17075000E-05	 9.16113000E-03	-1.01470000E-02
					-6.89802000E-06	 6.98153000E-03	-1.52724000E-02
					-8.75168000E-06	 7.65244000E-03	-1.52419000E-02
					-9.93139000E-06	 7.55074000E-03	-1.01634000E-02
					-7.69534000E-06	 6.88112000E-03	-1.01886000E-02
					-9.75981000E-06	 9.81339000E-03	-1.52106000E-02
					-1.24358000E-05	 1.01015000E-02	-1.26534000E-02
					-1.28252000E-05	 9.71635000E-03	-1.01256000E-02
					-7.09618000E-06	 9.21095000E-03	-1.26881000E-02
					-1.44989000E-05	 9.95339000E-03	-5.05615000E-03
					-1.27194000E-05	 9.05976000E-03	-5.08681000E-03
					-1.06786000E-05	 7.45225000E-03	-5.10714000E-03
					-9.12603000E-06	 6.78314000E-03	-5.12973000E-03
					-1.42346000E-05	 1.00038000E-02	-7.57971000E-03
					-1.38603000E-05	 9.61521000E-03	-5.07034000E-03
					-1.23130000E-05	 9.11076000E-03	-7.61215000E-03
					-1.42879000E-05	 9.85227000E-03	-1.71577000E-05
					-1.27667000E-05	 8.95868000E-03	-4.46613000E-05
					-1.04843000E-05	 7.35254000E-03	-7.38647000E-05
					-9.46525000E-06	 6.68361000E-03	-9.91753000E-05
					-1.48546000E-05	 9.90162000E-03	-2.53976000E-03
					-1.35914000E-05	 9.51437000E-03	-2.83890000E-05
					-1.30875000E-05	 9.00829000E-03	-2.56734000E-03
					-4.26134000E-05	 1.38515000E-02	-1.52184000E-02
					-3.59670000E-05	 1.54128000E-02	-1.52105000E-02
					-3.70547000E-05	 1.52354000E-02	-9.99516000E-03
					-2.82461000E-05	 1.37266000E-02	-1.00576000E-02
					-1.00421000E-05	 1.15443000E-02	-1.52193000E-02
					-1.97646000E-05	 1.26565000E-02	-1.51916000E-02
					-1.98956000E-05	 1.25634000E-02	-1.00569000E-02
					-1.75518000E-05	 1.14430000E-02	-1.01022000E-02
					-3.88687000E-05	 1.47082000E-02	-1.51582000E-02
					-3.88415000E-05	 1.53247000E-02	-1.25379000E-02
					-3.46857000E-05	 1.45607000E-02	-1.00322000E-02
					-3.89509000E-05	 1.37904000E-02	-1.26285000E-02
					-2.81251000E-05	 1.51126000E-02	-4.95608000E-03
					-2.34766000E-05	 1.36104000E-02	-4.99933000E-03
					-1.93010000E-05	 1.24526000E-02	-5.00769000E-03
					-1.75824000E-05	 1.13357000E-02	-5.04295000E-03
					-3.25477000E-05	 1.51724000E-02	-7.46200000E-03
					-2.61259000E-05	 1.44414000E-02	-4.97608000E-03
					-2.58503000E-05	 1.36676000E-02	-7.52722000E-03
					-2.15751000E-05	 1.50105000E-02	 7.89101000E-05
					-2.07183000E-05	 1.35077000E-02	 4.78097000E-05
					-1.92441000E-05	 1.23500000E-02	 3.13428000E-05
					-1.67135000E-05	 1.12338000E-02	 2.18668000E-06
					-2.40101000E-05	 1.50605000E-02	-2.43834000E-03
					-2.14486000E-05	 1.43386000E-02	 6.64336000E-05
					-2.17005000E-05	 1.35580000E-02	-2.47609000E-03
					 0.00000000E+00	 0.00000000E+00	-1.54641000E-02
					 0.00000000E+00	 0.00000000E+00	-1.02992000E-02
					-8.64852000E-06	 5.14476000E-03	-1.53067000E-02
					-8.70394000E-06	 5.04561000E-03	-1.02049000E-02
					 0.00000000E+00	 0.00000000E+00	-1.54686000E-02
					 0.00000000E+00	 0.00000000E+00	-1.28548000E-02
					 0.00000000E+00	 0.00000000E+00	-1.03029000E-02
					-4.32302000E-06	 2.60860000E-03	-1.53879000E-02
					-4.32413000E-06	 2.52551000E-03	-1.02502000E-02
					-7.93583000E-06	 5.20164000E-03	-1.53062000E-02
					-8.77835000E-06	 5.09143000E-03	-1.27541000E-02
					-7.77199000E-06	 5.10228000E-03	-1.02076000E-02
					 0.00000000E+00	 0.00000000E+00	-5.23972000E-03
					-8.05798000E-06	 4.95536000E-03	-5.14710000E-03
					 0.00000000E+00	 0.00000000E+00	-7.76176000E-03
					 0.00000000E+00	 0.00000000E+00	-5.24361000E-03
					-4.05491000E-06	 2.47356000E-03	-5.19189000E-03
					-8.32032000E-06	 5.00034000E-03	-7.66838000E-03
					-7.63833000E-06	 5.01172000E-03	-5.14963000E-03
					 0.00000000E+00	 0.00000000E+00	-2.83790000E-04
					-7.74374000E-06	 4.86030000E-03	-1.30157000E-04
					 0.00000000E+00	 0.00000000E+00	-2.73486000E-03
					 0.00000000E+00	 0.00000000E+00	-2.87514000E-04
					-3.81337000E-06	 2.39521000E-03	-2.11921000E-04
					-7.85605000E-06	 4.91082000E-03	-2.63850000E-03
					-7.48269000E-06	 4.91625000E-03	-1.32373000E-04
					-2.00780000E-05	 1.01468000E-02	-1.51689000E-02
					-1.66132000E-05	 1.00534000E-02	-1.00993000E-02
					-1.46073000E-05	 7.65231000E-03	-1.52340000E-02
					-1.30875000E-05	 7.55060000E-03	-1.01556000E-02
					-1.56743000E-05	 1.02605000E-02	-1.51813000E-02
					-1.83949000E-05	 1.01013000E-02	-1.26456000E-02
					-1.55038000E-05	 1.01674000E-02	-1.00978000E-02
					-1.58019000E-05	 9.95325000E-03	-5.04837000E-03
					-1.20194000E-05	 7.45211000E-03	-5.09939000E-03
					-1.62395000E-05	 1.00037000E-02	-7.57192000E-03
					-1.53251000E-05	 1.00670000E-02	-5.04981000E-03
					-1.56832000E-05	 9.85213000E-03	-9.40506000E-06
					-1.18872000E-05	 7.35241000E-03	-6.61571000E-05
					-1.52737000E-05	 9.90148000E-03	-2.53199000E-03
					-1.51581000E-05	 9.96628000E-03	-1.02477000E-05
					-1.07942000E-05	 1.54127000E-02	-1.52028000E-02
					-9.34058000E-06	 1.52352000E-02	-9.98741000E-03
					-1.88958000E-05	 1.26563000E-02	-1.51838000E-02
					-1.83835000E-05	 1.25633000E-02	-1.00491000E-02
					-2.33616000E-05	 1.54089000E-02	-1.51214000E-02
					-7.76582000E-06	 1.53246000E-02	-1.25301000E-02
					-2.31887000E-05	 1.52342000E-02	-9.97741000E-03
					-1.78658000E-05	 1.51124000E-02	-4.94833000E-03
					-1.86014000E-05	 1.24525000E-02	-4.99991000E-03
					-1.36415000E-05	 1.51722000E-02	-7.45423000E-03
					-2.29894000E-05	 1.51120000E-02	-4.94307000E-03
					-2.40676000E-05	 1.50103000E-02	 8.67535000E-05
					-1.83132000E-05	 1.23498000E-02	 3.91370000E-05
					-2.17991000E-05	 1.50603000E-02	-2.43055000E-03
					-2.28204000E-05	 1.50094000E-02	 7.70910000E-05
					 0.00000000E+00	 0.00000000E+00	-1.54566000E-02
					 0.00000000E+00	 0.00000000E+00	-1.02914000E-02
					-7.99983000E-06	 4.69489000E-03	-1.53119000E-02
					-8.60264000E-06	 4.59708000E-03	-1.02054000E-02
					 0.00000000E+00	 0.00000000E+00	-1.54613000E-02
					 0.00000000E+00	 0.00000000E+00	-1.28460000E-02
					 0.00000000E+00	 0.00000000E+00	-1.02954000E-02
					-4.55443000E-06	 2.38027000E-03	-1.53863000E-02
					-4.17109000E-06	 2.30013000E-03	-1.02461000E-02
					-9.82422000E-06	 4.97478000E-03	-1.53063000E-02
					-8.20696000E-06	 4.64194000E-03	-1.27571000E-02
					-9.05913000E-06	 4.87622000E-03	-1.02050000E-02
					 0.00000000E+00	 0.00000000E+00	-5.23210000E-03
					-7.68298000E-06	 4.51079000E-03	-5.14766000E-03