<?xml version="1.0"?>
<VTKFile type="UnstructuredGrid" version="0.1" byte_order="LittleEndian">
	<UnstructuredGrid>
		<Piece NumberOfPoints="720" NumberOfCells="100">
			<Points>
				<DataArray type="Float64" NumberOfComponents="3" format="ascii">
					-7.50000000E-01	 1.29904000E+00	 0.00000000E+00
					-6.10105000E-01	 1.37032000E+00	 0.00000000E+00
					-6.10105000E-01	 1.37032000E+00	 5.00000000E-02
					-7.50000000E-01	 1.29904000E+00	 5.00000000E-02
					-7.00000000E-01	 1.21244000E+00	 0.00000000E+00
					-5.69431000E-01	 1.27896000E+00	 0.00000000E+00
					-5.69431000E-01	 1.27896000E+00	 5.00000000E-02
					-7.00000000E-01	 1.21244000E+00	 5.00000000E-02
					-6.80986000E-01	 1.33651000E+00	 0.00000000E+00
					-6.10105000E-01	 1.37032000E+00	 2.50000000E-02
					-6.80986000E-01	 1.33651000E+00	 5.00000000E-02
					-7.50000000E-01	 1.29904000E+00	 2.50000000E-02
					-7.25000000E-01	 1.25574000E+00	 0.00000000E+00
					-5.89768000E-01	 1.32464000E+00	 0.00000000E+00
					-5.89768000E-01	 1.32464000E+00	 5.00000000E-02
					-7.25000000E-01	 1.25574000E+00	 5.00000000E-02
					-6.35587000E-01	 1.24741000E+00	 0.00000000E+00
					-5.69431000E-01	 1.27896000E+00	 2.50000000E-02
					-6.35587000E-01	 1.24741000E+00	 5.00000000E-02
					-7.00000000E-01	 1.21244000E+00	 2.50000000E-02
					-6.10105000E-01	 1.37032000E+00	 1.00000000E-01
					-7.50000000E-01	 1.29904000E+00	 1.00000000E-01
					-5.69431000E-01	 1.27896000E+00	 1.00000000E-01
					-7.00000000E-01	 1.21244000E+00	 1.00000000E-01
					-6.10105000E-01	 1.37032000E+00	 7.50000000E-02
					-6.80986000E-01	 1.33651000E+00	 1.00000000E-01
					-7.50000000E-01	 1.29904000E+00	 7.50000000E-02
					-5.89768000E-01	 1.32464000E+00	 1.00000000E-01
					-7.25000000E-01	 1.25574000E+00	 1.00000000E-01
					-5.69431000E-01	 1.27896000E+00	 7.50000000E-02
					-6.35587000E-01	 1.24741000E+00	 1.00000000E-01
					-7.00000000E-01	 1.21244000E+00	 7.50000000E-02
					-6.50000000E-01	 1.12583000E+00	 0.00000000E+00
					-5.28758000E-01	 1.18761000E+00	 0.00000000E+00
					-5.28758000E-01	 1.18761000E+00	 5.00000000E-02
					-6.50000000E-01	 1.12583000E+00	 5.00000000E-02
					-6.75000000E-01	 1.16913000E+00	 0.00000000E+00
					-5.49094000E-01	 1.23329000E+00	 0.00000000E+00
					-5.49094000E-01	 1.23329000E+00	 5.00000000E-02
					-6.75000000E-01	 1.16913000E+00	 5.00000000E-02
					-5.90188000E-01	 1.15831000E+00	 0.00000000E+00
					-5.28758000E-01	 1.18761000E+00	 2.50000000E-02
					-5.90188000E-01	 1.15831000E+00	 5.00000000E-02
					-6.50000000E-01	 1.12583000E+00	 2.50000000E-02
					-5.28758000E-01	 1.18761000E+00	 1.00000000E-01
					-6.50000000E-01	 1.12583000E+00	 1.00000000E-01
					-5.49094000E-01	 1.23329000E+00	 1.00000000E-01
					-6.75000000E-01	 1.16913000E+00	 1.00000000E-01
					-5.28758000E-01	 1.18761000E+00	 7.50000000E-02
					-5.90188000E-01	 1.15831000E+00	 1.00000000E-01
					-6.50000000E-01	 1.12583000E+00	 7.50000000E-02
					-6.00000000E-01	 1.03923000E+00	 0.00000000E+00
					-4.88084000E-01	 1.09625000E+00	 0.00000000E+00
					-4.88084000E-01	 1.09625000E+00	 5.00000000E-02
					-6.00000000E-01	 1.03923000E+00	 5.00000000E-02
					-6.25000000E-01	 1.08253000E+00	 0.00000000E+00
					-5.08421000E-01	 1.14193000E+00	 0.00000000E+00
					-5.08421000E-01	 1.14193000E+00	 5.00000000E-02
					-6.25000000E-01	 1.08253000E+00	 5.00000000E-02
					-5.44789000E-01	 1.06921000E+00	 0.00000000E+00
					-4.88084000E-01	 1.09625000E+00	 2.50000000E-02
					-5.44789000E-01	 1.06921000E+00	 5.00000000E-02
					-6.00000000E-01	 1.03923000E+00	 2.50000000E-02
					-4.88084000E-01	 1.09625000E+00	 1.00000000E-01
					-6.00000000E-01	 1.03923000E+00	 1.00000000E-01
					-5.08421000E-01	 1.14193000E+00	 1.00000000E-01
					-6.25000000E-01	 1.08253000E+00	 1.00000000E-01
					-4.88084000E-01	 1.09625000E+00	 7.50000000E-02
					-5.44789000E-01	 1.06921000E+00	 1.00000000E-01
					-6.00000000E-01	 1.03923000E+00	 7.50000000E-02
					-5.50000000E-01	 9.52628000E-01	 0.00000000E+00
					-4.47410000E-01	 1.00490000E+00	 0.00000000E+00
					-4.47410000E-01	 1.00490000E+00	 5.00000000E-02
					-5.50000000E-01	 9.52628000E-01	 5.00000000E-02
					-5.75000000E-01	 9.95929000E-01	 0.00000000E+00
					-4.67747000E-01	 1.05058000E+00	 0.00000000E+00
					-4.67747000E-01	 1.05058000E+00	 5.00000000E-02
					-5.75000000E-01	 9.95929000E-01	 5.00000000E-02
					-4.99390000E-01	 9.80107000E-01	 0.00000000E+00
					-4.47410000E-01	 1.00490000E+00	 2.50000000E-02
					-4.99390000E-01	 9.80107000E-01	 5.00000000E-02
					-5.50000000E-01	 9.52628000E-01	 2.50000000E-02
					-4.47410000E-01	 1.00490000E+00	 1.00000000E-01
					-5.50000000E-01	 9.52628000E-01	 1.00000000E-01
					-4.67747000E-01	 1.05058000E+00	 1.00000000E-01
					-5.75000000E-01	 9.95929000E-01	 1.00000000E-01
					-4.47410000E-01	 1.00490000E+00	 7.50000000E-02
					-4.99390000E-01	 9.80107000E-01	 1.00000000E-01
					-5.50000000E-01	 9.52628000E-01	 7.50000000E-02
					-5.00000000E-01	 8.66025000E-01	 0.00000000E+00
					-4.06737000E-01	 9.13545000E-01	 0.00000000E+00
					-4.06737000E-01	 9.13545000E-01	 5.00000000E-02
					-5.00000000E-01	 8.66025000E-01	 5.00000000E-02
					-5.25000000E-01	 9.09327000E-01	 0.00000000E+00
					-4.27073000E-01	 9.59223000E-01	 0.00000000E+00
					-4.27073000E-01	 9.59223000E-01	 5.00000000E-02
					-5.25000000E-01	 9.09327000E-01	 5.00000000E-02
					-4.53990000E-01	 8.91007000E-01	 0.00000000E+00
					-4.06737000E-01	 9.13545000E-01	 2.50000000E-02
					-4.53990000E-01	 8.91007000E-01	 5.00000000E-02
					-5.00000000E-01	 8.66025000E-01	 2.50000000E-02
					-4.06737000E-01	 9.13545000E-01	 1.00000000E-01
					-5.00000000E-01	 8.66025000E-01	 1.00000000E-01
					-4.27073000E-01	 9.59223000E-01	 1.00000000E-01
					-5.25000000E-01	 9.09327000E-01	 1.00000000E-01
					-4.06737000E-01	 9.13545000E-01	 7.50000000E-02
					-4.53990000E-01	 8.91007000E-01	 1.00000000E-01
					-5.00000000E-01	 8.66025000E-01	 7.50000000E-02
					-4.63526000E-01	 1.42658000E+00	 0.00000000E+00
					-4.63526000E-01	 1.42658000E+00	 5.00000000E-02
					-4.32624000E-01	 1.33148000E+00	 0.00000000E+00
					-4.32624000E-01	 1.33148000E+00	 5.00000000E-02
					-5.37552000E-01	 1.40037000E+00	 0.00000000E+00
					-4.63526000E-01	 1.42658000E+00	 2.50000000E-02
					-5.37552000E-01	 1.40037000E+00	 5.00000000E-02
					-4.48075000E-01	 1.37903000E+00	 0.00000000E+00
					-4.48075000E-01	 1.37903000E+00	 5.00000000E-02
					-5.01715000E-01	 1.30701000E+00	 0.00000000E+00
					-4.32624000E-01	 1.33148000E+00	 2.50000000E-02
					-5.01715000E-01	 1.30701000E+00	 5.00000000E-02
					-4.63526000E-01	 1.42658000E+00	 1.00000000E-01
					-4.32624000E-01	 1.33148000E+00	 1.00000000E-01
					-4.63526000E-01	 1.42658000E+00	 7.50000000E-02
					-5.37552000E-01	 1.40037000E+00	 1.00000000E-01
					-4.48075000E-01	 1.37903000E+00	 1.00000000E-01
					-4.32624000E-01	 1.33148000E+00	 7.50000000E-02
					-5.01715000E-01	 1.30701000E+00	 1.00000000E-01
					-4.01722000E-01	 1.23637000E+00	 0.00000000E+00
					-4.01722000E-01	 1.23637000E+00	 5.00000000E-02
					-4.17173000E-01	 1.28393000E+00	 0.00000000E+00
					-4.17173000E-01	 1.28393000E+00	 5.00000000E-02
					-4.65878000E-01	 1.21365000E+00	 0.00000000E+00
					-4.01722000E-01	 1.23637000E+00	 2.50000000E-02
					-4.65878000E-01	 1.21365000E+00	 5.00000000E-02
					-4.01722000E-01	 1.23637000E+00	 1.00000000E-01
					-4.17173000E-01	 1.28393000E+00	 1.00000000E-01
					-4.01722000E-01	 1.23637000E+00	 7.50000000E-02
					-4.65878000E-01	 1.21365000E+00	 1.00000000E-01
					-3.70820000E-01	 1.14127000E+00	 0.00000000E+00
					-3.70820000E-01	 1.14127000E+00	 5.00000000E-02
					-3.86271000E-01	 1.18882000E+00	 0.00000000E+00
					-3.86271000E-01	 1.18882000E+00	 5.00000000E-02
					-4.30042000E-01	 1.12030000E+00	 0.00000000E+00
					-3.70820000E-01	 1.14127000E+00	 2.50000000E-02
					-4.30042000E-01	 1.12030000E+00	 5.00000000E-02
					-3.70820000E-01	 1.14127000E+00	 1.00000000E-01
					-3.86271000E-01	 1.18882000E+00	 1.00000000E-01
					-3.70820000E-01	 1.14127000E+00	 7.50000000E-02
					-4.30042000E-01	 1.12030000E+00	 1.00000000E-01
					-3.39919000E-01	 1.04616000E+00	 0.00000000E+00
					-3.39919000E-01	 1.04616000E+00	 5.00000000E-02
					-3.55370000E-01	 1.09371000E+00	 0.00000000E+00
					-3.55370000E-01	 1.09371000E+00	 5.00000000E-02
					-3.94205000E-01	 1.02694000E+00	 0.00000000E+00
					-3.39919000E-01	 1.04616000E+00	 2.50000000E-02
					-3.94205000E-01	 1.02694000E+00	 5.00000000E-02
					-3.39919000E-01	 1.04616000E+00	 1.00000000E-01
					-3.55370000E-01	 1.09371000E+00	 1.00000000E-01
					-3.39919000E-01	 1.04616000E+00	 7.50000000E-02
					-3.94205000E-01	 1.02694000E+00	 1.00000000E-01
					-3.09017000E-01	 9.51057000E-01	 0.00000000E+00
					-3.09017000E-01	 9.51057000E-01	 5.00000000E-02
					-3.24468000E-01	 9.98609000E-01	 0.00000000E+00
					-3.24468000E-01	 9.98609000E-01	 5.00000000E-02
					-3.58368000E-01	 9.33580000E-01	 0.00000000E+00
					-3.09017000E-01	 9.51057000E-01	 2.50000000E-02
					-3.58368000E-01	 9.33580000E-01	 5.00000000E-02
					-3.09017000E-01	 9.51057000E-01	 1.00000000E-01
					-3.24468000E-01	 9.98609000E-01	 1.00000000E-01
					-3.09017000E-01	 9.51057000E-01	 7.50000000E-02
					-3.58368000E-01	 9.33580000E-01	 1.00000000E-01
					-3.11868000E-01	 1.46722000E+00	 0.00000000E+00
					-3.11868000E-01	 1.46722000E+00	 5.00000000E-02
					-2.91076000E-01	 1.36941000E+00	 0.00000000E+00
					-2.91076000E-01	 1.36941000E+00	 5.00000000E-02
					-3.88229000E-01	 1.44889000E+00	 0.00000000E+00
					-3.11868000E-01	 1.46722000E+00	 2.50000000E-02
					-3.88229000E-01	 1.44889000E+00	 5.00000000E-02
					-3.01472000E-01	 1.41831000E+00	 0.00000000E+00
					-3.01472000E-01	 1.41831000E+00	 5.00000000E-02
					-3.62347000E-01	 1.35230000E+00	 0.00000000E+00
					-2.91076000E-01	 1.36941000E+00	 2.50000000E-02
					-3.62347000E-01	 1.35230000E+00	 5.00000000E-02
					-3.11868000E-01	 1.46722000E+00	 1.00000000E-01
[...]
			<PointData>
				<DataArray type="Float32" Name="U" NumberOfComponents="3" ComponentName0="D1" ComponentName1="D2" ComponentName2="D3" format="ascii">
					 3.23899000E-03	-4.85210000E-06	-1.05974000E-02
					 3.24108000E-03	 1.49870000E-06	-1.05911000E-02
					 5.55588000E-03	 2.24103000E-06	-1.07201000E-02
					 5.55369000E-03	-2.41957000E-06	-1.07262000E-02
					 3.60020000E-03	 2.20708000E-07	-6.72772000E-03
					 3.60186000E-03	-1.80474000E-06	-6.72518000E-03
					 5.28647000E-03	-1.12726000E-06	-6.79639000E-03
					 5.28624000E-03	 1.47662000E-06	-6.79871000E-03
					 3.29606000E-03	-1.56543000E-06	-1.05711000E-02
					 4.38176000E-03	 1.78007000E-06	-1.06420000E-02
					 5.26316000E-03	-3.37560000E-08	-1.06788000E-02
					 4.38016000E-03	-3.30274000E-06	-1.06484000E-02
					 3.40543000E-03	-2.92691000E-06	-8.56768000E-03
					 3.40819000E-03	-3.21583000E-07	-8.56281000E-03
					 5.43494000E-03	-1.14442000E-07	-8.64665000E-03
					 5.43389000E-03	-3.08315000E-07	-8.65156000E-03
					 3.58005000E-03	-1.01617000E-06	-6.76969000E-03
					 4.44870000E-03	-1.38068000E-06	-6.74646000E-03
					 5.28520000E-03	-1.46873000E-08	-6.85469000E-03
					 4.44780000E-03	 7.36608000E-07	-6.74891000E-03
					 8.48076000E-03	 2.49097000E-06	-1.11703000E-02
					 8.48358000E-03	-3.46564000E-08	-1.11775000E-02
					 6.90778000E-03	-8.43806000E-07	-7.02225000E-03
					 6.90844000E-03	 2.76635000E-06	-7.02454000E-03
					 6.87654000E-03	 2.60754000E-06	-1.09143000E-02
					 7.29239000E-03	 1.36483000E-06	-1.09433000E-02
					 6.87469000E-03	-1.49326000E-06	-1.09208000E-02
					 7.66705000E-03	-1.74064000E-07	-8.89771000E-03
					 7.66909000E-03	 2.44928000E-06	-8.90200000E-03
					 6.13313000E-03	-1.05566000E-06	-6.89442000E-03
					 7.00016000E-03	 8.93944000E-07	-7.04119000E-03
					 6.13380000E-03	 2.22063000E-06	-6.89671000E-03
					 3.92464000E-03	 2.23846000E-06	-3.80348000E-03
					 3.92471000E-03	-1.94765000E-06	-3.80294000E-03
					 5.20396000E-03	-1.68312000E-06	-3.88267000E-03
					 5.20454000E-03	 2.41315000E-06	-3.88325000E-03
					 3.76571000E-03	 1.85777000E-06	-5.16239000E-03
					 3.76636000E-03	-2.26371000E-06	-5.16100000E-03
					 5.24585000E-03	-1.74483000E-06	-5.23685000E-03
					 5.24636000E-03	 2.45949000E-06	-5.23818000E-03
					 3.91995000E-03	 4.74183000E-08	-3.79441000E-03
					 4.56138000E-03	-1.79960000E-06	-3.82870000E-03
					 5.20681000E-03	 3.32435000E-07	-3.86711000E-03
					 4.56164000E-03	 2.28436000E-06	-3.82925000E-03
					 6.49210000E-03	-1.46993000E-06	-4.05986000E-03
					 6.49333000E-03	 2.74445000E-06	-4.06061000E-03
					 6.69894000E-03	-1.34099000E-06	-5.44373000E-03
					 6.70036000E-03	 3.09692000E-06	-5.44522000E-03
					 5.84165000E-03	-1.55903000E-06	-3.95788000E-03
					 6.48667000E-03	 6.31776000E-07	-4.05931000E-03
					 5.84245000E-03	 2.58641000E-06	-3.95855000E-03
					 4.24133000E-03	 1.82131000E-06	-1.65677000E-03
					 4.24095000E-03	-1.22345000E-06	-1.65681000E-03
					 5.11149000E-03	-1.11465000E-06	-1.72528000E-03
					 5.11201000E-03	 1.74510000E-06	-1.72523000E-03
					 4.08271000E-03	 2.21241000E-06	-2.62772000E-03
					 4.08236000E-03	-1.62491000E-06	-2.62763000E-03
					 5.15668000E-03	-1.43655000E-06	-2.70076000E-03
					 5.15735000E-03	 2.18704000E-06	-2.70088000E-03
					 4.24253000E-03	 3.32524000E-07	-1.65823000E-03
					 4.67701000E-03	-1.16581000E-06	-1.67880000E-03
					 5.10996000E-03	 3.47531000E-07	-1.72875000E-03
					 4.67745000E-03	 1.76109000E-06	-1.67875000E-03
					 5.97683000E-03	-1.07037000E-06	-1.90149000E-03
					 5.97749000E-03	 1.73052000E-06	-1.90150000E-03
					 6.23378000E-03	-1.30961000E-06	-2.87496000E-03
					 6.23481000E-03	 2.27922000E-06	-2.87515000E-03
					 5.54712000E-03	-1.08689000E-06	-1.80079000E-03
					 5.97583000E-03	 3.74498000E-07	-1.90127000E-03
					 5.54774000E-03	 1.74366000E-06	-1.80076000E-03
					 4.59173000E-03	 9.50275000E-07	-3.55040000E-04
					 4.59150000E-03	-5.80559000E-07	-3.55126000E-04
					 5.03431000E-03	-5.59864000E-07	-4.22730000E-04
					 5.03454000E-03	 8.87161000E-07	-4.22656000E-04
					 4.41180000E-03	 1.38798000E-06	-9.00377000E-04
					 4.41146000E-03	-8.73543000E-07	-9.00477000E-04
					 5.06974000E-03	-8.23399000E-07	-9.66168000E-04
					 5.07012000E-03	 1.30628000E-06	-9.66071000E-04
					 4.59076000E-03	 2.21142000E-07	-3.54991000E-04
					 4.81082000E-03	-5.67269000E-07	-3.72657000E-04
					 5.03443000E-03	 1.99311000E-07	-4.22054000E-04
					 4.81105000E-03	 9.09637000E-07	-3.72576000E-04
					 5.47158000E-03	-5.63852000E-07	-5.83725000E-04
					 5.47181000E-03	 8.71618000E-07	-5.83681000E-04
					 5.72500000E-03	-8.14452000E-07	-1.13886000E-03
					 5.72542000E-03	 1.27689000E-06	-1.13880000E-03
					 5.25084000E-03	-5.54754000E-07	-4.87461000E-04
					 5.47179000E-03	 1.85835000E-07	-5.83753000E-04
					 5.25107000E-03	 8.73364000E-07	-4.87402000E-04
					 4.99769000E-03	 0.00000000E+00	 0.00000000E+00
					 4.99769000E-03	 0.00000000E+00	 0.00000000E+00
					 4.99769000E-03	 0.00000000E+00	 0.00000000E+00
					 4.99769000E-03	 0.00000000E+00	 0.00000000E+00
					 4.79405000E-03	 5.41086000E-07	-2.88129000E-05
					 4.79394000E-03	-3.24337000E-07	-2.88681000E-05
					 4.98903000E-03	-3.10597000E-07	-8.61390000E-05
					 4.98912000E-03	 4.95650000E-07	-8.61058000E-05
					 4.99769000E-03	 0.00000000E+00	 0.00000000E+00
					 4.99769000E-03	 0.00000000E+00	 0.00000000E+00
					 4.99769000E-03	 0.00000000E+00	 0.00000000E+00
					 4.99769000E-03	 0.00000000E+00	 0.00000000E+00
					 4.99769000E-03	 0.00000000E+00	 0.00000000E+00
					 4.99769000E-03	 0.00000000E+00	 0.00000000E+00
					 5.22333000E-03	-3.23264000E-07	-2.51083000E-04
					 5.22341000E-03	 4.96376000E-07	-2.51074000E-04
					 4.99769000E-03	 0.00000000E+00	 0.00000000E+00
					 4.99769000E-03	 0.00000000E+00	 0.00000000E+00
					 4.99769000E-03	 0.00000000E+00	 0.00000000E+00
					 3.25822000E-03	 5.31338000E-06	-1.05900000E-02
					 5.57683000E-03	 4.28931000E-06	-1.07205000E-02
					 3.61443000E-03	-2.30337000E-06	-6.72413000E-03
					 5.29844000E-03	-2.61013000E-06	-6.79629000E-03
					 3.30132000E-03	 3.60192000E-06	-1.05702000E-02
					 4.40157000E-03	 4.97567000E-06	-1.06417000E-02
					 5.27072000E-03	 3.80006000E-06	-1.06783000E-02
					 3.42269000E-03	 8.71295000E-08	-8.56188000E-03
					 5.45127000E-03	-8.80134000E-08	-8.64748000E-03
					 3.58717000E-03	-2.64396000E-06	-6.76751000E-03
					 4.46078000E-03	-2.44741000E-06	-6.74588000E-03
					 5.29242000E-03	-2.50714000E-06	-6.85274000E-03
					 8.49986000E-03	 3.33695000E-06	-1.11726000E-02
					 6.92036000E-03	-3.18765000E-06	-7.02339000E-03
					 6.89668000E-03	 3.66006000E-06	-1.09157000E-02
					 7.30454000E-03	 3.53667000E-06	-1.09436000E-02
					 7.68335000E-03	-6.88979000E-07	-8.90034000E-03
					 6.14528000E-03	-2.80532000E-06	-6.89491000E-03
					 7.00711000E-03	-2.63638000E-06	-7.03972000E-03
					 3.93183000E-03	-3.49431000E-06	-3.80240000E-03
					 5.21108000E-03	-3.50242000E-06	-3.88248000E-03
					 3.77610000E-03	-3.33514000E-06	-5.16028000E-03
					 5.25542000E-03	-3.60602000E-06	-5.23670000E-03
					 3.92453000E-03	-3.27181000E-06	-3.79352000E-03
					 4.56852000E-03	-3.45988000E-06	-3.82833000E-03
					 5.21085000E-03	-3.05558000E-06	-3.86649000E-03
					 6.49928000E-03	-3.71062000E-06	-4.06008000E-03
					 6.70893000E-03	-4.11293000E-06	-5.44432000E-03
					 5.84881000E-03	-3.60463000E-06	-3.95789000E-03
					 6.49032000E-03	-3.04565000E-06	-4.05895000E-03
					 4.24470000E-03	-2.55494000E-06	-1.65646000E-03
					 5.11516000E-03	-2.43510000E-06	-1.72509000E-03
					 4.08771000E-03	-3.15161000E-06	-2.62716000E-03
					 5.16196000E-03	-3.08294000E-06	-2.70054000E-03
					 4.24462000E-03	-2.26600000E-06	-1.65804000E-03
					 4.68069000E-03	-2.47438000E-06	-1.67853000E-03
					 5.11190000E-03	-2.15780000E-06	-1.72868000E-03
					 5.98048000E-03	-2.41602000E-06	-1.90151000E-03
					 6.23907000E-03	-3.15654000E-06	-2.87502000E-03
					 5.55077000E-03	-2.42125000E-06	-1.80070000E-03
					 5.97765000E-03	-2.10945000E-06	-1.90128000E-03
					 4.59286000E-03	-1.30458000E-06	-3.54977000E-04
					 5.03563000E-03	-1.23223000E-06	-4.22672000E-04
					 4.41387000E-03	-1.91885000E-06	-9.00245000E-04
					 5.07208000E-03	-1.81404000E-06	-9.66052000E-04
					 4.59145000E-03	-1.16256000E-06	-3.54938000E-04
					 4.81217000E-03	-1.25695000E-06	-3.72554000E-04
					 5.03510000E-03	-1.10767000E-06	-4.22065000E-04
					 5.47286000E-03	-1.22226000E-06	-5.83762000E-04
					 5.72730000E-03	-1.78791000E-06	-1.13887000E-03
					 5.25215000E-03	-1.21856000E-06	-4.87452000E-04
					 5.47244000E-03	-1.10179000E-06	-5.83821000E-04
					 4.99769000E-03	 0.00000000E+00	 0.00000000E+00
					 4.99769000E-03	 0.00000000E+00	 0.00000000E+00
					 4.79448000E-03	-7.40604000E-07	-2.87262000E-05
					 4.98953000E-03	-6.87411000E-07	-8.61232000E-05
					 4.99769000E-03	 0.00000000E+00	 0.00000000E+00
					 4.99769000E-03	 0.00000000E+00	 0.00000000E+00
					 4.99769000E-03	 0.00000000E+00	 0.00000000E+00
					 4.99769000E-03	 0.00000000E+00	 0.00000000E+00
					 5.22382000E-03	-6.96133000E-07	-2.51189000E-04
					 4.99769000E-03	 0.00000000E+00	 0.00000000E+00
					 4.99769000E-03	 0.00000000E+00	 0.00000000E+00
					 3.26299000E-03	 5.46555000E-06	-1.06042000E-02
					 5.59181000E-03	 3.50909000E-06	-1.07364000E-02
					 3.62350000E-03	-2.09304000E-07	-6.72651000E-03
					 5.31114000E-03	-1.62814000E-06	-6.79930000E-03
					 3.32165000E-03	 6.62152000E-06	-1.05731000E-02
					 4.41037000E-03	 4.05659000E-06	-1.06565000E-02
					 5.28841000E-03	 4.42492000E-06	-1.06830000E-02
					 3.43093000E-03	 2.41348000E-06	-8.56827000E-03
					 5.46546000E-03	-1.10732000E-06	-8.65458000E-03
					 3.59946000E-03	-1.20004000E-06	-6.76930000E-03
					 4.47168000E-03	-6.29147000E-07	-6.74846000E-03
					 5.30598000E-03	-2.35457000E-06	-6.85551000E-03
					 8.53193000E-03	-5.19293000E-07	-1.11940000E-02
					 6.93600000E-03	-3.23968000E-06	-7.02773000E-03
					 6.91713000E-03	 2.39713000E-06	-1.09339000E-02
					 7.32107000E-03	 1.49787000E-06	-1.09502000E-02
					 7.70656000E-03	-5.24121000E-06	-8.90925000E-03
					 6.16029000E-03	-2.63517000E-06	-6.89854000E-03
					 7.02202000E-03	-3.92994000E-06	-7.04346000E-03
					 3.93837000E-03	-7.85278000E-07	-3.80230000E-03
					 5.21829000E-03	-1.00281000E-06	-3.88274000E-03
					 3.78405000E-03	-8.22174000E-07	-5.16088000E-03
					 5.26503000E-03	-1.29358000E-06	-5.23775000E-03
					 3.93239000E-03	-2.77969000E-06	-3.79327000E-03
					 4.57525000E-03	-8.63732000E-07	-3.82838000E-03
					 5.21930000E-03	-2.93116000E-06	-3.86667000E-03
					 6.50748000E-03	-1.39727000E-06	-4.06098000E-03
					 6.72011000E-03	-2.00905000E-06	-5.44640000E-03
					 5.85634000E-03	-1.19906000E-06	-3.95845000E-03
					 6.49956000E-03	-3.20223000E-06	-4.05978000E-03
					 4.24785000E-03	-5.25088000E-07	-1.65615000E-03
					 5.11837000E-03	-5.12221000E-07	-1.72487000E-03
					 4.09233000E-03	-6.76619000E-07	-2.62682000E-03
					 5.16682000E-03	-6.99653000E-07	-2.70038000E-03
					 4.24880000E-03	-1.91172000E-06	-1.65761000E-03
					 4.68386000E-03	-5.00259000E-07	-1.67825000E-03
					 5.11606000E-03	-1.83342000E-06	-1.72843000E-03
					 5.98381000E-03	-5.11593000E-07	-1.90146000E-03
					 6.24435000E-03	-7.91774000E-07	-2.87518000E-03
					 5.55410000E-03	-5.26498000E-07	-1.80055000E-03
					 5.98189000E-03	-1.83043000E-06	-1.90129000E-03
					 4.59401000E-03	-2.54572000E-07	-3.54793000E-04
					 5.03675000E-03	-2.24628000E-07	-4.22556000E-04
					 4.41588000E-03	-3.72476000E-07	-8.99978000E-04
					 5.07406000E-03	-3.40530000E-07	-9.65862000E-04
					 4.59299000E-03	-9.66496000E-07	-3.54707000E-04
					 4.81328000E-03	-2.36560000E-07	-3.72403000E-04
					 5.03658000E-03	-9.09586000E-07	-4.21961000E-04
					 5.47394000E-03	-2.10718000E-07	-5.83735000E-04
					 5.72928000E-03	-3.20777000E-07	-1.13881000E-03
					 5.25324000E-03	-2.16063000E-07	-4.87381000E-04
					 5.47388000E-03	-8.88234000E-07	-5.83856000E-04
					 4.99769000E-03	 0.00000000E+00	 0.00000000E+00
					 4.99769000E-03	 0.00000000E+00	 0.00000000E+00
					 4.79493000E-03	-1.40741000E-07	-2.85799000E-05
					 4.98994000E-03	-1.20418000E-07	-8.60790000E-05
					 4.99769000E-03	 0.00000000E+00	 0.00000000E+00
					 4.99769000E-03	 0.00000000E+00	 0.00000000E+00
					 4.99769000E-03	 0.00000000E+00	 0.00000000E+00
					 4.99769000E-03	 0.00000000E+00	 0.00000000E+00
					 5.22422000E-03	-1.13380000E-07	-2.51246000E-04
					 4.99769000E-03	 0.00000000E+00	 0.00000000E+00
					 4.99769000E-03	 0.00000000E+00	 0.00000000E+00
					 3.25404000E-03	-7.43148000E-06	-1.06109000E-02
					 5.58038000E-03	-7.62668000E-06	-1.07431000E-02
					 3.61493000E-03	 4.09098000E-06	-6.72924000E-03
					 5.30462000E-03	 3.88301000E-06	-6.80151000E-03
					 3.32023000E-03	-1.02848000E-06	-1.05894000E-02
					 4.40047000E-03	-7.51590000E-06	-1.06633000E-02
					 5.30642000E-03	-2.22997000E-06	-1.07017000E-02
					 3.42169000E-03	 7.41828000E-07	-8.57229000E-03
					 5.45684000E-03	 1.61159000E-06	-8.65788000E-03
					 3.60286000E-03	 2.05664000E-06	-6.77072000E-03
					 4.46401000E-03	 3.71482000E-06	-6.75090000E-03
					 5.31248000E-03	 1.25972000E-06	-6.85765000E-03
					 8.52612000E-03	-5.28270000E-06	-1.11999000E-02
					 6.93112000E-03	 4.49879000E-06	-7.02946000E-03
					 6.91066000E-03	-7.17917000E-06	-1.09400000E-02
					 7.35618000E-03	-3.36514000E-06	-1.09745000E-02
					 7.70024000E-03	 3.64796000E-06	-8.91231000E-03
					 6.15418000E-03	 4.26951000E-06	-6.90045000E-03
					 7.03296000E-03	 5.76470000E-07	-7.04737000E-03
					 3.93375000E-03	 3.98411000E-06	-3.80285000E-03
					 5.21417000E-03	 3.77050000E-06	-3.88306000E-03
					 3.77772000E-03	 4.55801000E-06	-5.16216000E-03
					 5.25976000E-03	 4.17961000E-06	-5.23861000E-03
					 3.93421000E-03	 2.01552000E-06	-3.79336000E-03
					 4.57091000E-03	 3.83418000E-06	-3.82880000E-03
					 5.22172000E-03	 1.68914000E-06	-3.86681000E-03
					 6.50376000E-03	 3.82862000E-06	-4.06114000E-03
					 6.71559000E-03	 4.36068000E-06	-5.44684000E-03
					 5.85258000E-03	 3.77160000E-06	-3.95867000E-03
					 6.50265000E-03	 1.49608000E-06	-4.06017000E-03
					 4.24580000E-03	 2.47891000E-06	-1.65629000E-03
					 5.11644000E-03	 2.31361000E-06	-1.72492000E-03
					 4.08921000E-03	 3.23674000E-06	-2.62710000E-03
					 5.16395000E-03	 3.02811000E-06	-2.70051000E-03
					 4.24960000E-03	 1.18611000E-06	-1.65744000E-03
					 4.68186000E-03	 2.37611000E-06	-1.67834000E-03
					 5.11695000E-03	 1.12036000E-06	-1.72830000E-03
					 5.98199000E-03	 2.26420000E-06	-1.90142000E-03
					 6.24167000E-03	 2.97469000E-06	-2.87523000E-03
					 5.55220000E-03	 2.28772000E-06	-1.80056000E-03
					 5.98288000E-03	 1.07998000E-06	-1.90125000E-03
					 4.59331000E-03	 1.18773000E-06	-3.54829000E-04
					 5.03607000E-03	 1.12786000E-06	-4.22542000E-04
					 4.41461000E-03	 1.77438000E-06	-9.00047000E-04
					 5.07285000E-03	 1.66919000E-06	-9.65860000E-04
					 4.59328000E-03	 5.78516000E-07	-3.54612000E-04
					 4.81260000E-03	 1.14943000E-06	-3.72412000E-04
					 5.03685000E-03	 5.59463000E-07	-4.21880000E-04
					 5.47328000E-03	 1.12351000E-06	-5.83678000E-04
					 5.72812000E-03	 1.64375000E-06	-1.13874000E-03
					 5.25258000E-03	 1.11431000E-06	-4.87344000E-04
					 5.47414000E-03	 5.66796000E-07	-5.83805000E-04
					 4.99769000E-03	 0.00000000E+00	 0.00000000E+00
					 4.99769000E-03	 0.00000000E+00	 0.00000000E+00
					 4.79467000E-03	 6.63724000E-07	-2.86327000E-05
					 4.98969000E-03	 6.21903000E-07	-8.60674000E-05
					 4.99769000E-03	 0.00000000E+00	 0.00000000E+00
					 4.99769000E-03	 0.00000000E+00	 0.00000000E+00
					 4.99769000E-03	 0.00000000E+00	 0.00000000E+00
					 4.99769000E-03	 0.00000000E+00	 0.00000000E+00
					 5.22396000E-03	 6.35528000E-07	-2.51175000E-04
					 4.99769000E-03	 0.00000000E+00	 0.00000000E+00
					 4.99769000E-03	 0.00000000E+00	 0.00000000E+00
					 3.23899000E-03	-4.85210000E-06	-1.05974000E-02
					 5.55369000E-03	-2.41957000E-06	-1.07262000E-02
					 3.60020000E-03	 2.20708000E-07	-6.72772000E-03
					 5.28624000E-03	 1.47662000E-06	-6.79871000E-03
					 3.29481000E-03	-7.63540000E-06	-1.05851000E-02
					 4.38016000E-03	-3.30274000E-06	-1.06484000E-02
					 5.26922000E-03	-5.96798000E-06	-1.06929000E-02
					 3.40543000E-03	-2.92691000E-06	-8.56768000E-03
					 5.43389000E-03	-3.08315000E-07	-8.65156000E-03
					 3.58539000E-03	 2.79778000E-06	-6.77237000E-03
					 4.44780000E-03	 7.36608000E-07	-6.74891000E-03
					 5.29393000E-03	 3.61076000E-06	-6.85764000E-03
					 8.48358000E-03	-3.46564000E-08	-1.11775000E-02
					 6.90844000E-03	 2.76635000E-06	-7.02454000E-03
					 6.87469000E-03	-1.49326000E-06	-1.09208000E-02
					 7.31065000E-03	-3.04208000E-06	-1.09593000E-02
					 7.66909000E-03	 2.44928000E-06	-8.90200000E-03
					 6.13380000E-03	 2.22063000E-06	-6.89671000E-03
					 7.01199000E-03	 5.08972000E-06	-7.04500000E-03
					 3.92464000E-03	 2.23846000E-06	-3.80348000E-03
					 5.20454000E-03	 2.41315000E-06	-3.88325000E-03
					 3.76571000E-03	 1.85777000E-06	-5.16239000E-03
					 5.24636000E-03	 2.45949000E-06	-5.23818000E-03
					 3.92517000E-03	 3.98391000E-06	-3.79433000E-03
					 4.56164000E-03	 2.28436000E-06	-3.82925000E-03
					 5.21275000E-03	 3.96048000E-06	-3.86729000E-03
					 6.49333000E-03	 2.74445000E-06	-4.06061000E-03
					 6.70036000E-03	 3.09692000E-06	-5.44522000E-03
					 5.84245000E-03	 2.58641000E-06	-3.95855000E-03
					 6.49346000E-03	 4.11531000E-06	-4.06000000E-03
					 4.24133000E-03	 1.82131000E-06	-1.65677000E-03
					 5.11201000E-03	 1.74510000E-06	-1.72523000E-03
					 4.08271000E-03	 2.21241000E-06	-2.62772000E-03
					 5.15735000E-03	 2.18704000E-06	-2.70088000E-03
					 4.24548000E-03	 2.65581000E-06	-1.65788000E-03
					 4.67745000E-03	 1.76109000E-06	-1.67875000E-03
					 5.11296000E-03	 2.52006000E-06	-1.72853000E-03
					 5.97749000E-03	 1.73052000E-06	-1.90150000E-03
					 6.23481000E-03	 2.27922000E-06	-2.87515000E-03
					 5.54774000E-03	 1.74366000E-06	-1.80076000E-03
					 5.97894000E-03	 2.48214000E-06	-1.90124000E-03
					 4.59173000E-03	 9.50275000E-07	-3.55040000E-04
					 5.03454000E-03	 8.87161000E-07	-4.22656000E-04
					 4.41180000E-03	 1.38798000E-06	-9.00377000E-04
					 5.07012000E-03	 1.30628000E-06	-9.66071000E-04
					 4.59187000E-03	 1.32770000E-06	-3.54789000E-04
					 4.81105000E-03	 9.09637000E-07	-3.72576000E-04
					 5.03550000E-03	 1.25678000E-06	-4.21940000E-04
					 5.47181000E-03	 8.71618000E-07	-5.83681000E-04
					 5.72542000E-03	 1.27689000E-06	-1.13880000E-03
					 5.25107000E-03	 8.73364000E-07	-4.87402000E-04
					 5.47282000E-03	 1.23569000E-06	-5.83743000E-04
					 4.99769000E-03	 0.00000000E+00	 0.00000000E+00
					 4.99769000E-03	 0.00000000E+00	 0.00000000E+00
					 4.79405000E-03	 5.41086000E-07	-2.88129000E-05
					 4.98912000E-03	 4.95650000E-07	-8.61058000E-05
					 4.99769000E-03	 0.00000000E+00	 0.00000000E+00
					 4.99769000E-03	 0.00000000E+00	 0.00000000E+00
					 4.99769000E-03	 0.00000000E+00	 0.00000000E+00
					 4.99769000E-03	 0.00000000E+00	 0.00000000E+00
					 5.22341000E-03	 4.96376000E-07	-2.51074000E-04
					 4.99769000E-03	 0.00000000E+00	 0.00000000E+00
					 4.99769000E-03	 0.00000000E+00	 0.00000000E+00
					-4.99769000E-03	 0.00000000E+00	 0.00000000E+00
					-4.99769000E-03	 0.00000000E+00	 0.00000000E+00
					-4.99769000E-03	 0.00000000E+00	 0.00000000E+00
					-4.99769000E-03	 0.00000000E+00	 0.00000000E+00
					-3.91383000E-03	-1.07756000E-06	-1.98514000E-04
					-3.91388000E-03	 8.64503000E-07	-1.98418000E-04
					-3.79656000E-03	 8.23254000E-07	 9.63255000E-05
					-3.79651000E-03	-9.96348000E-07	 9.62416000E-05
					-4.99769000E-03	 0.00000000E+00	 0.00000000E+00
					-4.99769000E-03	 0.00000000E+00	 0.00000000E+00
					-4.99769000E-03	 0.00000000E+00	 0.00000000E+00
					-4.99769000E-03	 0.00000000E+00	 0.00000000E+00
					-4.46168000E-03	-6.50418000E-07	-2.75458000E-04
					-4.46174000E-03	 5.17686000E-07	-2.75402000E-04