<?xml version="1.0"?>
<VTKFile type="UnstructuredGrid" version="0.1" byte_order="LittleEndian">
	<UnstructuredGrid>
		<Piece NumberOfPoints="20" NumberOfCells="1">
			<Points>
				<DataArray type="Float64" NumberOfComponents="3" format="ascii">
					 1.00000000E+00	 0.00000000E+00	 0.00000000E+00
					 5.00000000E-01	 0.00000000E+00	 0.00000000E+00
					 7.50000000E-01	 0.00000000E+00	 0.00000000E+00
					 1.00000000E+00	 2.50000000E-01	 0.00000000E+00
					 1.00000000E+00	 5.00000000E-01	 0.00000000E+00
					 1.00000000E+00	 0.00000000E+00	 5.00000000E-01
					 1.00000000E+00	 0.00000000E+00	 1.00000000E+00
					 5.00000000E-01	 2.50000000E-01	 0.00000000E+00
					 5.00000000E-01	 5.00000000E-01	 0.00000000E+00
					 7.50000000E-01	 5.00000000E-01	 0.00000000E+00
					 5.00000000E-01	 0.00000000E+00	 5.00000000E-01
					 5.00000000E-01	 0.00000000E+00	 1.00000000E+00
					 7.50000000E-01	 0.00000000E+00	 1.00000000E+00
					 1.00000000E+00	 5.00000000E-01	 5.00000000E-01
					 1.00000000E+00	 2.50000000E-01	 1.00000000E+00
					 1.00000000E+00	 5.00000000E-01	 1.00000000E+00
					 5.00000000E-01	 5.00000000E-01	 5.00000000E-01
					 5.00000000E-01	 2.50000000E-01	 1.00000000E+00
					 5.00000000E-01	 5.00000000E-01	 1.00000000E+00
					 7.50000000E-01	 5.00000000E-01	 1.00000000E+00

				</DataArray>
			</Points>
			<Cells>
				<DataArray type="Int32" Name="connectivity" format="ascii">
					1 0 4 8 11 6 15 18 2 3 9 7 12 14 19 17 10 5 13 16 
				</DataArray>
				<DataArray type="Int32" Name="offsets" format="ascii">
					20 
				</DataArray>
				<DataArray type="UInt8" Name="types" format="ascii">
					25 
				</DataArray>
			</Cells>
			<PointData>
				<DataArray type="Float32" Name="U" NumberOfComponents="3" ComponentName0="D1" ComponentName1="D2" ComponentName2="D3" format="ascii">
					 0.00000000E+00	 0.00000000E+00	 0.00000000E+00
					 1.40760000E-03	 0.00000000E+00	 0.00000000E+00
					 7.03170000E-04	 1.19474000E-07	 0.00000000E+00
					-2.90607000E-04	-7.37250000E-04	 0.00000000E+00
					-5.85211000E-04	-1.47580000E-03	 0.00000000E+00
					-3.61635000E-04	-2.11061000E-04	 3.78001000E-03
					-7.29939000E-04	-4.22574000E-04	 7.56867000E-03
					 1.11616000E-03	-7.41198000E-04	 0.00000000E+00
					 8.21284000E-04	-1.48361000E-03	 0.00000000E+00
					 1.17397000E-04	-1.47943000E-03	 0.00000000E+00
					 1.04358000E-03	-2.12918000E-04	 3.78893000E-03
					 6.76561000E-04	-4.30377000E-04	 7.56867000E-03
					-2.60488000E-05	-4.26747000E-04	 7.56867000E-03
					-9.52229000E-04	-1.69327000E-03	 3.77974000E-03
					-1.02481000E-03	-1.16499000E-03	 7.56867000E-03
					-1.31626000E-03	-1.90620000E-03	 7.56867000E-03
					 4.52984000E-04	-1.69512000E-03	 3.78866000E-03
					 3.81953000E-04	-1.16893000E-03	 7.56867000E-03
					 9.13438000E-05	-1.90618000E-03	 7.56867000E-03
					-6.11828000E-04	-1.90631000E-03	 7.56867000E-03
				</DataArray>
				<DataArray type="Float32" Name="S" NumberOfComponents="10" ComponentName0="xx" ComponentName1="yy" ComponentName2="zz" ComponentName3="xy" ComponentName4="yz" ComponentName5="zx" ComponentName6="Mises" ComponentName7="Min Principal" ComponentName8="Mid Principal" ComponentName9="Max Principal" format="ascii">
					 1.27352000E-01	-2.45853000E-01	 5.06677000E+02	-2.58952000E-01	-8.43217000E-03	 1.41623000E+00	 5.06742489E+02	-3.79238191E-01	 2.56777509E-01	 5.06680960E+02
					 1.73863000E-01	 3.91465000E-02	 5.09144000E+02	-3.32005000E-01	 3.03005000E-01	 9.17360000E-01	 5.09040584E+02	-2.33569942E-01	 4.44746384E-01	 5.09145833E+02
					 2.58921000E-01	-1.66319000E-01	 5.07993000E+02	-3.26325000E-01	 8.47258000E-02	 1.34821000E+00	 5.07952536E+02	-3.44194166E-01	 4.33202388E-01	 5.07996594E+02
					-1.74674000E-02	-2.07291000E-02	 5.05545000E+02	-1.93775000E-01	-9.54346000E-02	 7.16952000E-01	 5.05565762E+02	-2.13258443E-01	 1.74027097E-01	 5.05546035E+02
					-3.15054000E-02	-2.35775000E-01	 5.04322000E+02	-1.89680000E-01	-3.01720000E-01	 6.17042000E-01	 5.04457181E+02	-3.49076587E-01	 8.08605771E-02	 5.04322936E+02
					-7.50111000E-02	-1.07245000E-01	 5.06640000E+02	 1.45291000E-01	 7.19787000E-02	-2.16849000E-01	 5.06731346E+02	-2.37387791E-01	 5.50286845E-02	 5.06640103E+02
					 6.38250000E-02	-1.49041000E-02	 5.06927000E+02	-1.65514000E-01	 5.40915000E-01	 5.59505000E-01	 5.06904417E+02	-1.46843482E-01	 1.94569996E-01	 5.06928194E+02
					 5.67604000E-02	 2.28432000E-01	 5.08081000E+02	-2.19091000E-01	 4.79011000E-01	 4.41794000E-01	 5.07939821E+02	-9.35025597E-02	 3.77859315E-01	 5.08081836E+02
					 6.37450000E-02	-1.48697000E-02	 5.06927000E+02	-1.65495000E-01	 5.40883000E-01	 5.59383000E-01	 5.06904440E+02	-1.46834311E-01	 1.94515562E-01	 5.06928194E+02
					 1.26577000E-01	-1.90206000E-01	 5.05706000E+02	-2.08993000E-01	 5.65667000E-02	 7.75007000E-01	 5.05739809E+02	-2.94356777E-01	 2.29533511E-01	 5.05707194E+02
					-9.96723000E-02	-8.66294000E-02	 5.06583000E+02	 9.34091000E-02	-1.96380000E-01	-4.32758000E-01	 5.06676845E+02	-1.86853212E-01	 1.05716843E-04	 5.06583446E+02
					-3.14178000E-02	-2.35807000E-01	 5.04322000E+02	-1.89703000E-01	-3.01575000E-01	 6.17386000E-01	 5.04457154E+02	-3.49097446E-01	 8.09363679E-02	 5.04322936E+02
					 1.26647000E-01	-1.90375000E-01	 5.05707000E+02	-2.09034000E-01	 5.66492000E-02	 7.75317000E-01	 5.05740861E+02	-2.94511332E-01	 2.29588100E-01	 5.05708195E+02
					-9.96912000E-02	-8.67611000E-02	 5.06583000E+02	 9.33976000E-02	-1.96460000E-01	-4.32835000E-01	 5.06676921E+02	-1.86913036E-01	 1.47471291E-05	 5.06583446E+02
					 5.68085000E-02	 2.28540000E-01	 5.08081000E+02	-2.19108000E-01	 4.78845000E-01	 4.41602000E-01	 5.07939742E+02	-9.34506177E-02	 3.77964119E-01	 5.08081835E+02
					 1.74103000E-01	 3.94828000E-02	 5.09144000E+02	-3.31982000E-01	 3.02727000E-01	 9.16861000E-01	 5.09040292E+02	-2.33248084E-01	 4.45002953E-01	 5.09145831E+02
					-7.50561000E-02	-1.07355000E-01	 5.06640000E+02	 1.45226000E-01	 7.18563000E-02	-2.16581000E-01	 5.06731423E+02	-2.37404053E-01	 5.48902102E-02	 5.06640103E+02
					-1.73761000E-02	-2.06327000E-02	 5.05545000E+02	-1.93695000E-01	-9.52680000E-02	 7.17100000E-01	 5.05565668E+02	-2.13084965E-01	 1.74040962E-01	 5.05546035E+02
					 1.27654000E-01	-2.45474000E-01	 5.06678000E+02	-2.58750000E-01	-8.26551000E-03	 1.41613000E+00	 5.06743148E+02	-3.78711137E-01	 2.56932026E-01	 5.06681959E+02
					 2.59149000E-01	-1.66052000E-01	 5.07993000E+02	-3.26225000E-01	 8.46583000E-02	 1.34791000E+00	 5.07952286E+02	-3.43851507E-01	 4.33356342E-01	 5.07996592E+02
				</DataArray>
				<DataArray type="Float32" Name="SDV" NumberOfComponents="60" ComponentName0="1" ComponentName1="2" ComponentName2="3" ComponentName3="4" ComponentName4="5" ComponentName5="6" ComponentName6="7" ComponentName7="8" ComponentName8="9" ComponentName9="10" ComponentName10="11" ComponentName11="12" ComponentName12="13" ComponentName13="14" ComponentName14="15" ComponentName15="16" ComponentName16="17" ComponentName17="18" ComponentName18="19" ComponentName19="20" ComponentName20="21" ComponentName21="22" ComponentName22="23" ComponentName23="24" ComponentName24="25" ComponentName25="26" ComponentName26="27" ComponentName27="28" ComponentName28="29" ComponentName29="30" ComponentName30="31" ComponentName31="32" ComponentName32="33" ComponentName33="34" ComponentName34="35" ComponentName35="36" ComponentName36="37" ComponentName37="38" ComponentName38="39" ComponentName39="40" ComponentName40="41" ComponentName41="42" ComponentName42="43" ComponentName43="44" ComponentName44="45" ComponentName45="46" ComponentName46="47" ComponentName47="48" ComponentName48="49" ComponentName49="50" ComponentName50="51" ComponentName51="52" ComponentName52="53" ComponentName53="54" ComponentName54="55" ComponentName55="56" ComponentName56="57" ComponentName57="58" ComponentName58="59" ComponentName59="60" format="ascii">
					-1.80759000E-03	-3.35333000E-03	 5.16092000E-03	-9.20656000E-04	-1.17744000E-03	-1.24606000E-03	 5.93616000E+00	 2.31318000E+01	 0.00000000E+00	 0.00000000E+00	 0.00000000E+00	 0.00000000E+00	 0.00000000E+00	 4.78495000E+00	 0.00000000E+00	 5.08863000E+00	 0.00000000E+00	 0.00000000E+00	 4.97225000E+00	 0.00000000E+00	 0.00000000E+00	 3.13130000E+01	 0.00000000E+00	 4.49833000E+01	 2.44800000E+01	 7.55313000E+01	 0.00000000E+00	 0.00000000E+00	 0.00000000E+00	 0.00000000E+00	 0.00000000E+00	 2.00606000E+01	 0.00000000E+00	 2.12437000E+01	 0.00000000E+00	 0.00000000E+00	 1.92336000E+01	 0.00000000E+00	 0.00000000E+00	 6.82022000E+01	 0.00000000E+00	 8.94314000E+01	 1.55741000E-04	 7.10171000E-04	 0.00000000E+00	 0.00000000E+00	 0.00000000E+00	 0.00000000E+00	 0.00000000E+00	 1.24354000E-04	 0.00000000E+00	 1.32564000E-04	 0.00000000E+00	 0.00000000E+00	 2.65619000E-04	 0.00000000E+00	 0.00000000E+00	 2.75842000E-03	 0.00000000E+00	 7.54173000E-03
					-1.81557000E-03	-3.36999000E-03	 5.18556000E-03	-9.23839000E-04	-1.18325000E-03	-1.25291000E-03	 5.96483000E+00	 2.31846000E+01	 0.00000000E+00	 0.00000000E+00	 0.00000000E+00	 0.00000000E+00	 0.00000000E+00	 4.79078000E+00	 0.00000000E+00	 5.11836000E+00	 0.00000000E+00	 0.00000000E+00	 4.98603000E+00	 0.00000000E+00	 0.00000000E+00	 3.14045000E+01	 0.00000000E+00	 4.50053000E+01	 2.45860000E+01	 7.56465000E+01	 0.00000000E+00	 0.00000000E+00	 0.00000000E+00	 0.00000000E+00	 0.00000000E+00	 2.00838000E+01	 0.00000000E+00	 2.13556000E+01	 0.00000000E+00	 0.00000000E+00	 1.92770000E+01	 0.00000000E+00	 0.00000000E+00	 6.83122000E+01	 0.00000000E+00	 8.95312000E+01	 1.56539000E-04	 7.12243000E-04	 0.00000000E+00	 0.00000000E+00	 0.00000000E+00	 0.00000000E+00	 0.00000000E+00	 1.24509000E-04	 0.00000000E+00	 1.33384000E-04	 0.00000000E+00	 0.00000000E+00	 2.66418000E-04	 0.00000000E+00	 0.00000000E+00	 2.77582000E-03	 0.00000000E+00	 7.57581000E-03
					-1.81168000E-03	-3.36183000E-03	 5.17351000E-03	-9.22207000E-04	-1.18043000E-03	-1.24946000E-03	 5.94653000E+00	 2.31616000E+01	 0.00000000E+00	 0.00000000E+00	 0.00000000E+00	 0.00000000E+00	 0.00000000E+00	 4.78920000E+00	 0.00000000E+00	 5.10813000E+00	 0.00000000E+00	 0.00000000E+00	 4.98094000E+00	 0.00000000E+00	 0.00000000E+00	 3.13607000E+01	 0.00000000E+00	 4.49980000E+01	 2.45183000E+01	 7.55990000E+01	 0.00000000E+00	 0.00000000E+00	 0.00000000E+00	 0.00000000E+00	 0.00000000E+00	 2.00774000E+01	 0.00000000E+00	 2.13179000E+01	 0.00000000E+00	 0.00000000E+00	 1.92611000E+01	 0.00000000E+00	 0.00000000E+00	 6.82623000E+01	 0.00000000E+00	 8.94882000E+01	 1.56030000E-04	 7.11319000E-04	 0.00000000E+00	 0.00000000E+00	 0.00000000E+00	 0.00000000E+00	 0.00000000E+00	 1.24467000E-04	 0.00000000E+00	 1.33099000E-04	 0.00000000E+00	 0.00000000E+00	 2.66123000E-04	 0.00000000E+00	 0.00000000E+00	 2.76725000E-03	 0.00000000E+00	 7.55904000E-03
					-1.81062000E-03	-3.35786000E-03	 5.16849000E-03	-9.23755000E-04	-1.17914000E-03	-1.24656000E-03	 5.93492000E+00	 2.31800000E+01	 0.00000000E+00	 0.00000000E+00	 0.00000000E+00	 0.00000000E+00	 0.00000000E+00	 4.80706000E+00	 0.00000000E+00	 5.11918000E+00	 0.00000000E+00	 0.00000000E+00	 4.97679000E+00	 0.00000000E+00	 0.00000000E+00	 3.13160000E+01	 0.00000000E+00	 4.50126000E+01	 2.44776000E+01	 7.56453000E+01	 0.00000000E+00	 0.00000000E+00	 0.00000000E+00	 0.00000000E+00	 0.00000000E+00	 2.01480000E+01	 0.00000000E+00	 2.13619000E+01	 0.00000000E+00	 0.00000000E+00	 1.92524000E+01	 0.00000000E+00	 0.00000000E+00	 6.82080000E+01	 0.00000000E+00	 8.94846000E+01	 1.55697000E-04	 7.11959000E-04	 0.00000000E+00	 0.00000000E+00	 0.00000000E+00	 0.00000000E+00	 0.00000000E+00	 1.24947000E-04	 0.00000000E+00	 1.33394000E-04	 0.00000000E+00	 0.00000000E+00	 2.65847000E-04	 0.00000000E+00	 0.00000000E+00	 2.75724000E-03	 0.00000000E+00	 7.55612000E-03
					-1.81329000E-03	-3.36111000E-03	 5.17440000E-03	-9.26804000E-04	-1.17924000E-03	-1.24586000E-03	 5.91897000E+00	 2.32618000E+01	 0.00000000E+00	 0.00000000E+00	 0.00000000E+00	 0.00000000E+00	 0.00000000E+00	 4.86716000E+00	 0.00000000E+00	 5.15862000E+00	 0.00000000E+00	 0.00000000E+00	 4.95388000E+00	 0.00000000E+00	 0.00000000E+00	 3.13024000E+01	 0.00000000E+00	 4.50324000E+01	 2.44194000E+01	 7.58302000E+01	 0.00000000E+00	 0.00000000E+00	 0.00000000E+00	 0.00000000E+00	 0.00000000E+00	 2.03820000E+01	 0.00000000E+00	 2.15141000E+01	 0.00000000E+00	 0.00000000E+00	 1.91788000E+01	 0.00000000E+00	 0.00000000E+00	 6.81884000E+01	 0.00000000E+00	 8.95183000E+01	 1.55250000E-04	 7.15068000E-04	 0.00000000E+00	 0.00000000E+00	 0.00000000E+00	 0.00000000E+00	 0.00000000E+00	 1.26572000E-04	 0.00000000E+00	 1.34466000E-04	 0.00000000E+00	 0.00000000E+00	 2.64522000E-04	 0.00000000E+00	 0.00000000E+00	 2.75365000E-03	 0.00000000E+00	 7.56813000E-03
					-1.81628000E-03	-3.36689000E-03	 5.18317000E-03	-9.31623000E-04	-1.18435000E-03	-1.24626000E-03	 5.89171000E+00	 2.32249000E+01	 0.00000000E+00	 0.00000000E+00	 0.00000000E+00	 0.00000000E+00	 0.00000000E+00	 4.82956000E+00	 0.00000000E+00	 5.23209000E+00	 0.00000000E+00	 0.00000000E+00	 5.01398000E+00	 0.00000000E+00	 0.00000000E+00	 3.12660000E+01	 0.00000000E+00	 4.50386000E+01	 2.43128000E+01	 7.57413000E+01	 0.00000000E+00	 0.00000000E+00	 0.00000000E+00	 0.00000000E+00	 0.00000000E+00	 2.02350000E+01	 0.00000000E+00	 2.17955000E+01	 0.00000000E+00	 0.00000000E+00	 1.93755000E+01	 0.00000000E+00	 0.00000000E+00	 6.81479000E+01	 0.00000000E+00	 8.95824000E+01	 1.54515000E-04	 7.13743000E-04	 0.00000000E+00	 0.00000000E+00	 0.00000000E+00	 0.00000000E+00	 0.00000000E+00	 1.25557000E-04	 0.00000000E+00	 1.36471000E-04	 0.00000000E+00	 0.00000000E+00	 2.67967000E-04	 0.00000000E+00	 0.00000000E+00	 2.75012000E-03	 0.00000000E+00	 7.58889000E-03
					-1.81932000E-03	-3.37550000E-03	 5.19482000E-03	-9.28821000E-04	-1.18735000E-03	-1.25235000E-03	 5.91973000E+00	 2.32166000E+01	 0.00000000E+00	 0.00000000E+00	 0.00000000E+00	 0.00000000E+00	 0.00000000E+00	 4.79663000E+00	 0.00000000E+00	 5.20026000E+00	 0.00000000E+00	 0.00000000E+00	 5.03899000E+00	 0.00000000E+00	 0.00000000E+00	 3.13900000E+01	 0.00000000E+00	 4.50545000E+01	 2.44207000E+01	 7.57307000E+01	 0.00000000E+00	 0.00000000E+00	 0.00000000E+00	 0.00000000E+00	 0.00000000E+00	 2.01082000E+01	 0.00000000E+00	 2.16734000E+01	 0.00000000E+00	 0.00000000E+00	 1.94561000E+01	 0.00000000E+00	 0.00000000E+00	 6.82938000E+01	 0.00000000E+00	 8.96029000E+01	 1.55277000E-04	 7.13319000E-04	 0.00000000E+00	 0.00000000E+00	 0.00000000E+00	 0.00000000E+00	 0.00000000E+00	 1.24661000E-04	 0.00000000E+00	 1.35603000E-04	 0.00000000E+00	 0.00000000E+00	 2.69416000E-04	 0.00000000E+00	 0.00000000E+00	 2.77015000E-03	 0.00000000E+00	 7.59684000E-03
					-1.81765000E-03	-3.37336000E-03	 5.19101000E-03	-9.26339000E-04	-1.18610000E-03	-1.25321000E-03	 5.94946000E+00	 2.31844000E+01	 0.00000000E+00	 0.00000000E+00	 0.00000000E+00	 0.00000000E+00	 0.00000000E+00	 4.77555000E+00	 0.00000000E+00	 5.15538000E+00	 0.00000000E+00	 0.00000000E+00	 5.02683000E+00	 0.00000000E+00	 0.00000000E+00	 3.14054000E+01	 0.00000000E+00	 4.50347000E+01	 2.45306000E+01	 7.56542000E+01	 0.00000000E+00	 0.00000000E+00	 0.00000000E+00	 0.00000000E+00	 0.00000000E+00	 2.00257000E+01	 0.00000000E+00	 2.14994000E+01	 0.00000000E+00	 0.00000000E+00	 1.94145000E+01	 0.00000000E+00	 0.00000000E+00	 6.83157000E+01	 0.00000000E+00	 8.95766000E+01	 1.56105000E-04	 7.12146000E-04	 0.00000000E+00	 0.00000000E+00	 0.00000000E+00	 0.00000000E+00	 0.00000000E+00	 1.24093000E-04	 0.00000000E+00	 1.34386000E-04	 0.00000000E+00	 0.00000000E+00	 2.68731000E-04	 0.00000000E+00	 0.00000000E+00	 2.77416000E-03	 0.00000000E+00	 7.58745000E-03
					-1.81931000E-03	-3.37548000E-03	 5.19479000E-03	-9.28800000E-04	-1.18734000E-03	-1.25234000E-03	 5.91969000E+00	 2.32166000E+01	 0.00000000E+00	 0.00000000E+00	 0.00000000E+00	 0.00000000E+00	 0.00000000E+00	 4.79657000E+00	 0.00000000E+00	 5.20026000E+00	 0.00000000E+00	 0.00000000E+00	 5.03901000E+00	 0.00000000E+00	 0.00000000E+00	 3.13900000E+01	 0.00000000E+00	 4.50544000E+01	 2.44206000E+01	 7.57308000E+01	 0.00000000E+00	 0.00000000E+00	 0.00000000E+00	 0.00000000E+00	 0.00000000E+00	 2.01080000E+01	 0.00000000E+00	 2.16734000E+01	 0.00000000E+00	 0.00000000E+00	 1.94562000E+01	 0.00000000E+00	 0.00000000E+00	 6.82939000E+01	 0.00000000E+00	 8.96027000E+01	 1.55276000E-04	 7.13320000E-04	 0.00000000E+00	 0.00000000E+00	 0.00000000E+00	 0.00000000E+00	 0.00000000E+00	 1.24660000E-04	 0.00000000E+00	 1.35603000E-04	 0.00000000E+00	 0.00000000E+00	 2.69417000E-04	 0.00000000E+00	 0.00000000E+00	 2.77016000E-03	 0.00000000E+00	 7.59676000E-03
					-1.81639000E-03	-3.36846000E-03	 5.18486000E-03	-9.27762000E-04	-1.18339000E-03	-1.24909000E-03	 5.91528000E+00	 2.32421000E+01	 0.00000000E+00	 0.00000000E+00	 0.00000000E+00	 0.00000000E+00	 0.00000000E+00	 4.83238000E+00	 0.00000000E+00	 5.18410000E+00	 0.00000000E+00	 0.00000000E+00	 4.99860000E+00	 0.00000000E+00	 0.00000000E+00	 3.13482000E+01	 0.00000000E+00	 4.50470000E+01	 2.44050000E+01	 7.57895000E+01	 0.00000000E+00	 0.00000000E+00	 0.00000000E+00	 0.00000000E+00	 0.00000000E+00	 2.02472000E+01	 0.00000000E+00	 2.16120000E+01	 0.00000000E+00	 0.00000000E+00	 1.93243000E+01	 0.00000000E+00	 0.00000000E+00	 6.82462000E+01	 0.00000000E+00	 8.95673000E+01	 1.55151000E-04	 7.14283000E-04	 0.00000000E+00	 0.00000000E+00	 0.00000000E+00	 0.00000000E+00	 0.00000000E+00	 1.25629000E-04	 0.00000000E+00	 1.35160000E-04	 0.00000000E+00	 0.00000000E+00	 2.67096000E-04	 0.00000000E+00	 0.00000000E+00	 2.76203000E-03	 0.00000000E+00	 7.58272000E-03
					-1.81724000E-03	-3.36799000E-03	 5.18524000E-03	-9.32218000E-04	-1.18323000E-03	-1.24645000E-03	 5.90548000E+00	 2.32720000E+01	 0.00000000E+00	 0.00000000E+00	 0.00000000E+00	 0.00000000E+00	 0.00000000E+00	 4.86863000E+00	 0.00000000E+00	 5.22420000E+00	 0.00000000E+00	 0.00000000E+00	 4.97979000E+00	 0.00000000E+00	 0.00000000E+00	 3.12686000E+01	 0.00000000E+00	 4.50392000E+01	 2.43646000E+01	 7.58450000E+01	 0.00000000E+00	 0.00000000E+00	 0.00000000E+00	 0.00000000E+00	 0.00000000E+00	 2.03869000E+01	 0.00000000E+00	 2.17645000E+01	 0.00000000E+00	 0.00000000E+00	 1.92629000E+01	 0.00000000E+00	 0.00000000E+00	 6.81508000E+01	 0.00000000E+00	 8.95899000E+01	 1.54894000E-04	 7.15569000E-04	 0.00000000E+00	 0.00000000E+00	 0.00000000E+00	 0.00000000E+00	 0.00000000E+00	 1.26615000E-04	 0.00000000E+00	 1.36259000E-04	 0.00000000E+00	 0.00000000E+00	 2.66009000E-04	 0.00000000E+00	 0.00000000E+00	 2.75057000E-03	 0.00000000E+00	 7.59154000E-03
					-1.81330000E-03	-3.36112000E-03	 5.17441000E-03	-9.26831000E-04	-1.17924000E-03	-1.24585000E-03	 5.91901000E+00	 2.32618000E+01	 0.00000000E+00	 0.00000000E+00	 0.00000000E+00	 0.00000000E+00	 0.00000000E+00	 4.86726000E+00	 0.00000000E+00	 5.15863000E+00	 0.00000000E+00	 0.00000000E+00	 4.95385000E+00	 0.00000000E+00	 0.00000000E+00	 3.13022000E+01	 0.00000000E+00	 4.50325000E+01	 2.44196000E+01	 7.58302000E+01	 0.00000000E+00	 0.00000000E+00	 0.00000000E+00	 0.00000000E+00	 0.00000000E+00	 2.03824000E+01	 0.00000000E+00	 2.15141000E+01	 0.00000000E+00	 0.00000000E+00	 1.91787000E+01	 0.00000000E+00	 0.00000000E+00	 6.81881000E+01	 0.00000000E+00	 8.95185000E+01	 1.55251000E-04	 7.15067000E-04	 0.00000000E+00	 0.00000000E+00	 0.00000000E+00	 0.00000000E+00	 0.00000000E+00	 1.26575000E-04	 0.00000000E+00	 1.34466000E-04	 0.00000000E+00	 0.00000000E+00	 2.64520000E-04	 0.00000000E+00	 0.00000000E+00	 2.75360000E-03	 0.00000000E+00	 7.56820000E-03
					-1.81640000E-03	-3.36848000E-03	 5.18488000E-03	-9.27787000E-04	-1.18340000E-03	-1.24909000E-03	 5.91532000E+00	 2.32421000E+01	 0.00000000E+00	 0.00000000E+00	 0.00000000E+00	 0.00000000E+00	 0.00000000E+00	 4.83248000E+00	 0.00000000E+00	 5.18409000E+00	 0.00000000E+00	 0.00000000E+00	 4.99855000E+00	 0.00000000E+00	 0.00000000E+00	 3.13480000E+01	 0.00000000E+00	 4.50471000E+01	 2.44051000E+01	 7.57895000E+01	 0.00000000E+00	 0.00000000E+00	 0.00000000E+00	 0.00000000E+00	 0.00000000E+00	 2.02476000E+01	 0.00000000E+00	 2.16119000E+01	 0.00000000E+00	 0.00000000E+00	 1.93242000E+01	 0.00000000E+00	 0.00000000E+00	 6.82460000E+01	 0.00000000E+00	 8.95676000E+01	 1.55152000E-04	 7.14283000E-04	 0.00000000E+00	 0.00000000E+00	 0.00000000E+00	 0.00000000E+00	 0.00000000E+00	 1.25632000E-04	 0.00000000E+00	 1.35160000E-04	 0.00000000E+00	 0.00000000E+00	 2.67093000E-04	 0.00000000E+00	 0.00000000E+00	 2.76201000E-03	 0.00000000E+00	 7.58280000E-03
					-1.81724000E-03	-3.36800000E-03	 5.18524000E-03	-9.32207000E-04	-1.18323000E-03	-1.24645000E-03	 5.90546000E+00	 2.32720000E+01	 0.00000000E+00	 0.00000000E+00	 0.00000000E+00	 0.00000000E+00	 0.00000000E+00	 4.86859000E+00	 0.00000000E+00	 5.22418000E+00	 0.00000000E+00	 0.00000000E+00	 4.97979000E+00	 0.00000000E+00	 0.00000000E+00	 3.12687000E+01	 0.00000000E+00	 4.50392000E+01	 2.43646000E+01	 7.58450000E+01	 0.00000000E+00	 0.00000000E+00	 0.00000000E+00	 0.00000000E+00	 0.00000000E+00	 2.03868000E+01	 0.00000000E+00	 2.17644000E+01	 0.00000000E+00	 0.00000000E+00	 1.92629000E+01	 0.00000000E+00	 0.00000000E+00	 6.81509000E+01	 0.00000000E+00	 8.95899000E+01	 1.54894000E-04	 7.15570000E-04	 0.00000000E+00	 0.00000000E+00	 0.00000000E+00	 0.00000000E+00	 0.00000000E+00	 1.26614000E-04	 0.00000000E+00	 1.36258000E-04	 0.00000000E+00	 0.00000000E+00	 2.66009000E-04	 0.00000000E+00	 0.00000000E+00	 2.75060000E-03	 0.00000000E+00	 7.59152000E-03
					-1.81766000E-03	-3.37338000E-03	 5.19104000E-03	-9.26352000E-04	-1.18611000E-03	-1.25321000E-03	 5.94949000E+00	 2.31844000E+01	 0.00000000E+00	 0.00000000E+00	 0.00000000E+00	 0.00000000E+00	 0.00000000E+00	 4.77552000E+00	 0.00000000E+00	 5.15537000E+00	 0.00000000E+00	 0.00000000E+00	 5.02684000E+00	 0.00000000E+00	 0.00000000E+00	 3.14054000E+01	 0.00000000E+00	 4.50348000E+01	 2.45307000E+01	 7.56540000E+01	 0.00000000E+00	 0.00000000E+00	 0.00000000E+00	 0.00000000E+00	 0.00000000E+00	 2.00256000E+01	 0.00000000E+00	 2.14994000E+01	 0.00000000E+00	 0.00000000E+00	 1.94145000E+01	 0.00000000E+00	 0.00000000E+00	 6.83157000E+01	 0.00000000E+00	 8.95768000E+01	 1.56106000E-04	 7.12143000E-04	 0.00000000E+00	 0.00000000E+00	 0.00000000E+00	 0.00000000E+00	 0.00000000E+00	 1.24092000E-04	 0.00000000E+00	 1.34386000E-04	 0.00000000E+00	 0.00000000E+00	 2.68731000E-04	 0.00000000E+00	 0.00000000E+00	 2.77417000E-03	 0.00000000E+00	 7.58751000E-03
					-1.81558000E-03	-3.37000000E-03	 5.18558000E-03	-9.23843000E-04	-1.18326000E-03	-1.25291000E-03	 5.96484000E+00	 2.31845000E+01	 0.00000000E+00	 0.00000000E+00	 0.00000000E+00	 0.00000000E+00	 0.00000000E+00	 4.79068000E+00	 0.00000000E+00	 5.11834000E+00	 0.00000000E+00	 0.00000000E+00	 4.98607000E+00	 0.00000000E+00	 0.00000000E+00	 3.14046000E+01	 0.00000000E+00	 4.50054000E+01	 2.45860000E+01	 7.56462000E+01	 0.00000000E+00	 0.00000000E+00	 0.00000000E+00	 0.00000000E+00	 0.00000000E+00	 2.00834000E+01	 0.00000000E+00	 2.13556000E+01	 0.00000000E+00	 0.00000000E+00	 1.92772000E+01	 0.00000000E+00	 0.00000000E+00	 6.83123000E+01	 0.00000000E+00	 8.95313000E+01	 1.56539000E-04	 7.12238000E-04	 0.00000000E+00	 0.00000000E+00	 0.00000000E+00	 0.00000000E+00	 0.00000000E+00	 1.24507000E-04	 0.00000000E+00	 1.33383000E-04	 0.00000000E+00	 0.00000000E+00	 2.66420000E-04	 0.00000000E+00	 0.00000000E+00	 2.77584000E-03	 0.00000000E+00	 7.57584000E-03
					-1.81628000E-03	-3.36689000E-03	 5.18317000E-03	-9.31620000E-04	-1.18435000E-03	-1.24626000E-03	 5.89173000E+00	 2.32250000E+01	 0.00000000E+00	 0.00000000E+00	 0.00000000E+00	 0.00000000E+00	 0.00000000E+00	 4.82960000E+00	 0.00000000E+00	 5.23205000E+00	 0.00000000E+00	 0.00000000E+00	 5.01395000E+00	 0.00000000E+00	 0.00000000E+00	 3.12660000E+01	 0.00000000E+00	 4.50385000E+01	 2.43129000E+01	 7.57414000E+01	 0.00000000E+00	 0.00000000E+00	 0.00000000E+00	 0.00000000E+00	 0.00000000E+00	 2.02352000E+01	 0.00000000E+00	 2.17954000E+01	 0.00000000E+00	 0.00000000E+00	 1.93754000E+01	 0.00000000E+00	 0.00000000E+00	 6.81479000E+01	 0.00000000E+00	 8.95824000E+01	 1.54515000E-04	 7.13745000E-04	 0.00000000E+00	 0.00000000E+00	 0.00000000E+00	 0.00000000E+00	 0.00000000E+00	 1.25558000E-04	 0.00000000E+00	 1.36470000E-04	 0.00000000E+00	 0.00000000E+00	 2.67965000E-04	 0.00000000E+00	 0.00000000E+00	 2.75013000E-03	 0.00000000E+00	 7.58889000E-03
					-1.81063000E-03	-3.35788000E-03	 5.16851000E-03	-9.23780000E-04	-1.17915000E-03	-1.24656000E-03	 5.93496000E+00	 2.31800000E+01	 0.00000000E+00	 0.00000000E+00	 0.00000000E+00	 0.00000000E+00	 0.00000000E+00	 4.80712000E+00	 0.00000000E+00	 5.11922000E+00	 0.00000000E+00	 0.00000000E+00	 4.97678000E+00	 0.00000000E+00	 0.00000000E+00	 3.13158000E+01	 0.00000000E+00	 4.50127000E+01	 2.44777000E+01	 7.56453000E+01	 0.00000000E+00	 0.00000000E+00	 0.00000000E+00	 0.00000000E+00	 0.00000000E+00	 2.01482000E+01	 0.00000000E+00	 2.13620000E+01	 0.00000000E+00	 0.00000000E+00	 1.92524000E+01	 0.00000000E+00	 0.00000000E+00	 6.82078000E+01	 0.00000000E+00	 8.94848000E+01	 1.55699000E-04	 7.11959000E-04	 0.00000000E+00	 0.00000000E+00	 0.00000000E+00	 0.00000000E+00	 0.00000000E+00	 1.24948000E-04	 0.00000000E+00	 1.33395000E-04	 0.00000000E+00	 0.00000000E+00	 2.65847000E-04	 0.00000000E+00	 0.00000000E+00	 2.75721000E-03	 0.00000000E+00	 7.55620000E-03
					-1.80760000E-03	-3.35335000E-03	 5.16095000E-03	-9.20676000E-04	-1.17745000E-03	-1.24606000E-03	 5.93619000E+00	 2.31318000E+01	 0.00000000E+00	 0.00000000E+00	 0.00000000E+00	 0.00000000E+00	 0.00000000E+00	 4.78496000E+00	 0.00000000E+00	 5.08870000E+00	 0.00000000E+00	 0.00000000E+00	 4.97229000E+00	 0.00000000E+00	 0.00000000E+00	 3.13129000E+01	 0.00000000E+00	 4.49834000E+01	 2.44801000E+01	 7.55313000E+01	 0.00000000E+00	 0.00000000E+00	 0.00000000E+00	 0.00000000E+00	 0.00000000E+00	 2.00606000E+01	 0.00000000E+00	 2.12440000E+01	 0.00000000E+00	 0.00000000E+00	 1.92337000E+01	 0.00000000E+00	 0.00000000E+00	 6.82021000E+01	 0.00000000E+00	 8.94317000E+01	 1.55741000E-04	 7.10172000E-04	 0.00000000E+00	 0.00000000E+00	 0.00000000E+00	 0.00000000E+00	 0.00000000E+00	 1.24354000E-04	 0.00000000E+00	 1.32566000E-04	 0.00000000E+00	 0.00000000E+00	 2.65621000E-04	 0.00000000E+00	 0.00000000E+00	 2.75840000E-03	 0.00000000E+00	 7.54181000E-03
					-1.81169000E-03	-3.36185000E-03	 5.17354000E-03	-9.22219000E-04	-1.18044000E-03	-1.24947000E-03	 5.94655000E+00	 2.31616000E+01	 0.00000000E+00	 0.00000000E+00	 0.00000000E+00	 0.00000000E+00	 0.00000000E+00	 4.78915000E+00	 0.00000000E+00	 5.10815000E+00	 0.00000000E+00	 0.00000000E+00	 4.98098000E+00	 0.00000000E+00	 0.00000000E+00	 3.13607000E+01	 0.00000000E+00	 4.49980000E+01	 2.45184000E+01	 7.55989000E+01	 0.00000000E+00	 0.00000000E+00	 0.00000000E+00	 0.00000000E+00	 0.00000000E+00	 2.00772000E+01	 0.00000000E+00	 2.13180000E+01	 0.00000000E+00	 0.00000000E+00	 1.92613000E+01	 0.00000000E+00	 0.00000000E+00	 6.82623000E+01	 0.00000000E+00	 8.94883000E+01	 1.56030000E-04	 7.11317000E-04	 0.00000000E+00	 0.00000000E+00	 0.00000000E+00	 0.00000000E+00	 0.00000000E+00	 1.24466000E-04	 0.00000000E+00	 1.33099000E-04	 0.00000000E+00	 0.00000000E+00	 2.66126000E-04	 0.00000000E+00	 0.00000000E+00	 2.76725000E-03	 0.00000000E+00	 7.55910000E-03
				</DataArray>
			</PointData>
		</Piece>
	</UnstructuredGrid>
</VTKFile>