# vtk DataFile Version 3.0

ASCII
DATASET UNSTRUCTURED_GRID

POINTS 20 double
	 1.00000000E+00	 0.00000000E+00	 0.00000000E+00
	 5.00000000E-01	 0.00000000E+00	 0.00000000E+00
	 7.50000000E-01	 0.00000000E+00	 0.00000000E+00
	 1.00000000E+00	 2.50000000E-01	 0.00000000E+00
	 1.00000000E+00	 5.00000000E-01	 0.00000000E+00
	 1.00000000E+00	 0.00000000E+00	 5.00000000E-01
	 1.00000000E+00	 0.00000000E+00	 1.00000000E+00
	 5.00000000E-01	 2.50000000E-01	 0.00000000E+00
	 5.00000000E-01	 5.00000000E-01	 0.00000000E+00
	 7.50000000E-01	 5.00000000E-01	 0.00000000E+00
	 5.00000000E-01	 0.00000000E+00	 5.00000000E-01
	 5.00000000E-01	 0.00000000E+00	 1.00000000E+00
	 7.50000000E-01	 0.00000000E+00	 1.00000000E+00
	 1.00000000E+00	 5.00000000E-01	 5.00000000E-01
	 1.00000000E+00	 2.50000000E-01	 1.00000000E+00
	 1.00000000E+00	 5.00000000E-01	 1.00000000E+00
	 5.00000000E-01	 5.00000000E-01	 5.00000000E-01
	 5.00000000E-01	 2.50000000E-01	 1.00000000E+00
	 5.00000000E-01	 5.00000000E-01	 1.00000000E+00
	 7.50000000E-01	 5.00000000E-01	 1.00000000E+00

CELLS 1 21
	20 1 0 4 8 11 6 15 18 2 3 9 7 12 14 19 17 10 5 13 16 

CELL_TYPES 1
	25

POINT_DATA 20
FIELD U 1
	U 3 20 double
		 0.00000000E+00	 0.00000000E+00	 0.00000000E+00
		 2.19005000E-03	 0.00000000E+00	 0.00000000E+00
		 1.09035000E-03	 2.40942000E-06	 0.00000000E+00
		-6.43112000E-04	-1.46135000E-03	 0.00000000E+00
		-1.29717000E-03	-2.90295000E-03	 0.00000000E+00
		-1.25301000E-03	-1.22711000E-03	 6.01062000E-03
		-2.51544000E-03	-2.46969000E-03	 1.20000000E-02
		 1.51494000E-03	-1.49863000E-03	 0.00000000E+00
		 8.32395000E-04	-2.97278000E-03	 0.00000000E+00
		-2.38740000E-04	-2.93378000E-03	 0.00000000E+00
		 8.90446000E-04	-1.26408000E-03	 6.07337000E-03
		-3.85871000E-04	-2.53952000E-03	 1.20000000E-02
		-1.44431000E-03	-2.50869000E-03	 1.20000000E-02
		-2.57349000E-03	-4.17839000E-03	 5.92663000E-03
		-3.19799000E-03	-3.94385000E-03	 1.20000000E-02
		-3.87310000E-03	-5.44248000E-03	 1.20000000E-02
		-4.30032000E-04	-4.21536000E-03	 5.98938000E-03
		-1.03994000E-03	-3.98111000E-03	 1.20000000E-02
		-1.68305000E-03	-5.44247000E-03	 1.20000000E-02
		-2.77340000E-03	-5.44489000E-03	 1.20000000E-02
FIELD S 1
	S 10 20 double
		 1.83507000E-01	-2.84909000E+00	 5.39134000E+02	-1.16568000E+00	 3.85096000E+00	 6.62873000E+00	 5.40640025E+02	-3.30770410E+00	 5.33454954E-01	 5.39242666E+02
		 3.47311000E-01	-1.46108000E+00	 5.44181000E+02	-1.39705000E+00	 4.99998000E+00	 4.20670000E+00	 5.44863065E+02	-2.29608789E+00	 1.10417043E+00	 5.44259148E+02
		 9.97658000E-01	-2.26832000E+00	 5.41987000E+02	-1.62113000E+00	 4.05552000E+00	 6.42367000E+00	 5.42796473E+02	-3.00735986E+00	 1.63051061E+00	 5.42093187E+02
		-7.75991000E-01	-2.20482000E+00	 5.33589000E+02	-6.21890000E-01	 1.54347000E+00	 3.08383000E+00	 5.35115257E+02	-2.44955047E+00	-5.53482095E-01	 5.33611222E+02
		-1.45853000E+00	-2.82597000E+00	 5.27051000E+02	-8.43487000E-01	-2.34936000E+00	 1.54189000E+00	 5.29218975E+02	-3.23206650E+00	-1.06736985E+00	 5.27065936E+02
		-2.49000000E-01	 4.88485000E-01	 5.35668000E+02	 5.49200000E-01	-7.25900000E-01	-8.02779000E-01	 5.35552764E+02	-5.42016093E-01	 7.79311755E-01	 5.35670189E+02
		-8.34257000E-01	-2.05260000E+00	 5.34979000E+02	-9.05160000E-01	 1.65612000E+00	 4.12207000E+00	 5.36480937E+02	-2.55612684E+00	-3.67503540E-01	 5.35015773E+02
		-3.61216000E-01	-1.12818000E+00	 5.40061000E+02	-7.81247000E-01	 4.10259000E+00	 3.14218000E+00	 5.40881862E+02	-1.66383994E+00	 1.25147119E-01	 5.40110297E+02
		-8.34240000E-01	-2.05261000E+00	 5.34979000E+02	-9.05149000E-01	 1.65612000E+00	 4.12202000E+00	 5.36480932E+02	-2.55612116E+00	-3.67501451E-01	 5.35015773E+02
		-4.01421000E-01	-2.57167000E+00	 5.31352000E+02	-1.22198000E+00	-7.20485000E-01	 3.89575000E+00	 5.32890247E+02	-3.12244839E+00	 1.19821303E-01	 5.31381536E+02
		-5.33930000E-01	 7.96622000E-01	 5.34267000E+02	 4.47228000E-01	-2.12877000E+00	-3.37035000E+00	 5.34182083E+02	-6.83081750E-01	 9.16018047E-01	 5.34296756E+02
		-1.45850000E+00	-2.82603000E+00	 5.27051000E+02	-8.43479000E-01	-2.34932000E+00	 1.54200000E+00	 5.29218990E+02	-3.23210340E+00	-1.06736323E+00	 5.27065937E+02
		-4.01433000E-01	-2.57174000E+00	 5.31352000E+02	-1.22198000E+00	-7.20468000E-01	 3.89585000E+00	 5.32890291E+02	-3.12250875E+00	 1.19798250E-01	 5.31381538E+02
		-5.33939000E-01	 7.96554000E-01	 5.34267000E+02	 4.47247000E-01	-2.12876000E+00	-3.37038000E+00	 5.34182122E+02	-6.83106089E-01	 9.15965088E-01	 5.34296756E+02
		-3.61212000E-01	-1.12813000E+00	 5.40061000E+02	-7.81265000E-01	 4.10249000E+00	 3.14212000E+00	 5.40881832E+02	-1.66381691E+00	 1.25180290E-01	 5.40110295E+02
		 3.47408000E-01	-1.46094000E+00	 5.44181000E+02	-1.39705000E+00	 4.99984000E+00	 4.20649000E+00	 5.44862937E+02	-2.29595264E+00	 1.10427796E+00	 5.44259143E+02
		-2.49038000E-01	 4.88460000E-01	 5.35668000E+02	 5.49170000E-01	-7.25929000E-01	-8.02695000E-01	 5.35552795E+02	-5.42026213E-01	 7.79259048E-01	 5.35670189E+02
		-7.75930000E-01	-2.20483000E+00	 5.33589000E+02	-6.21855000E-01	 1.54357000E+00	 3.08390000E+00	 5.35115234E+02	-2.44952931E+00	-5.53453641E-01	 5.33611223E+02
		 1.83674000E-01	-2.84898000E+00	 5.39134000E+02	-1.16563000E+00	 3.85111000E+00	 6.62873000E+00	 5.40639890E+02	-3.30755920E+00	 5.33584889E-01	 5.39242668E+02
		 9.97756000E-01	-2.26822000E+00	 5.41987000E+02	-1.62110000E+00	 4.05553000E+00	 6.42354000E+00	 5.42796369E+02	-3.00723764E+00	 1.63058929E+00	 5.42093184E+02
FIELD SDV 1
	SDV 60 20 double
		-3.25325000E-03	-6.27987000E-03	 9.53312000E-03	-1.65939000E-03	-2.14658000E-03	-2.37070000E-03	 9.54453000E+00	 3.47899000E+01	 0.00000000E+00	 0.00000000E+00	 0.00000000E+00	 0.00000000E+00	 0.00000000E+00	 8.91217000E+00	 0.00000000E+00	 8.60930000E+00	 0.00000000E+00	 0.00000000E+00	 6.16922000E+00	 0.00000000E+00	 0.00000000E+00	 4.24325000E+01	 0.00000000E+00	 4.91979000E+01	 3.77514000E+01	 9.94064000E+01	 0.00000000E+00	 0.00000000E+00	 0.00000000E+00	 0.00000000E+00	 0.00000000E+00	 3.55635000E+01	 0.00000000E+00	 3.44825000E+01	 0.00000000E+00	 0.00000000E+00	 2.32058000E+01	 0.00000000E+00	 0.00000000E+00	 8.22109000E+01	 0.00000000E+00	 1.03856000E+02	 2.56484000E-04	 1.18727000E-03	 0.00000000E+00	 0.00000000E+00	 0.00000000E+00	 0.00000000E+00	 0.00000000E+00	 2.38225000E-04	 0.00000000E+00	 2.29635000E-04	 0.00000000E+00	 0.00000000E+00	 3.33871000E-04	 0.00000000E+00	 0.00000000E+00	 5.41018000E-03	 0.00000000E+00	 1.39067000E-02
		-3.33036000E-03	-6.43682000E-03	 9.76718000E-03	-1.71128000E-03	-2.20592000E-03	-2.42547000E-03	 9.68860000E+00	 3.52093000E+01	 0.00000000E+00	 0.00000000E+00	 0.00000000E+00	 0.00000000E+00	 0.00000000E+00	 8.95897000E+00	 0.00000000E+00	 8.97212000E+00	 0.00000000E+00	 0.00000000E+00	 6.28605000E+00	 0.00000000E+00	 0.00000000E+00	 4.26740000E+01	 0.00000000E+00	 4.92558000E+01	 3.82467000E+01	 1.00093000E+02	 0.00000000E+00	 0.00000000E+00	 0.00000000E+00	 0.00000000E+00	 0.00000000E+00	 3.57363000E+01	 0.00000000E+00	 3.57595000E+01	 0.00000000E+00	 0.00000000E+00	 2.35654000E+01	 0.00000000E+00	 0.00000000E+00	 8.26420000E+01	 0.00000000E+00	 1.04433000E+02	 2.60658000E-04	 1.20725000E-03	 0.00000000E+00	 0.00000000E+00	 0.00000000E+00	 0.00000000E+00	 0.00000000E+00	 2.39527000E-04	 0.00000000E+00	 2.40008000E-04	 0.00000000E+00	 0.00000000E+00	 3.40758000E-04	 0.00000000E+00	 0.00000000E+00	 5.52314000E-03	 0.00000000E+00	 1.42763000E-02
		-3.29207000E-03	-6.35791000E-03	 9.64998000E-03	-1.68563000E-03	-2.17425000E-03	-2.39863000E-03	 9.63653000E+00	 3.50187000E+01	 0.00000000E+00	 0.00000000E+00	 0.00000000E+00	 0.00000000E+00	 0.00000000E+00	 9.00886000E+00	 0.00000000E+00	 8.71239000E+00	 0.00000000E+00	 0.00000000E+00	 6.20483000E+00	 0.00000000E+00	 0.00000000E+00	 4.25583000E+01	 0.00000000E+00	 4.92312000E+01	 3.80686000E+01	 9.97830000E+01	 0.00000000E+00	 0.00000000E+00	 0.00000000E+00	 0.00000000E+00	 0.00000000E+00	 3.59084000E+01	 0.00000000E+00	 3.48462000E+01	 0.00000000E+00	 0.00000000E+00	 2.33158000E+01	 0.00000000E+00	 0.00000000E+00	 8.24351000E+01	 0.00000000E+00	 1.04152000E+02	 2.59145000E-04	 1.19816000E-03	 0.00000000E+00	 0.00000000E+00	 0.00000000E+00	 0.00000000E+00	 0.00000000E+00	 2.40969000E-04	 0.00000000E+00	 2.32578000E-04	 0.00000000E+00	 0.00000000E+00	 3.35967000E-04	 0.00000000E+00	 0.00000000E+00	 5.46735000E-03	 0.00000000E+00	 1.40902000E-02
		-3.20404000E-03	-6.20341000E-03	 9.40745000E-03	-1.63675000E-03	-2.13085000E-03	-2.34807000E-03	 9.43193000E+00	 3.40185000E+01	 0.00000000E+00	 0.00000000E+00	 0.00000000E+00	 0.00000000E+00	 0.00000000E+00	 8.38179000E+00	 0.00000000E+00	 8.44886000E+00	 0.00000000E+00	 0.00000000E+00	 6.21400000E+00	 0.00000000E+00	 0.00000000E+00	 4.23239000E+01	 0.00000000E+00	 4.91727000E+01	 3.73628000E+01	 9.81263000E+01	 0.00000000E+00	 0.00000000E+00	 0.00000000E+00	 0.00000000E+00	 0.00000000E+00	 3.36736000E+01	 0.00000000E+00	 3.39124000E+01	 0.00000000E+00	 0.00000000E+00	 2.33481000E+01	 0.00000000E+00	 0.00000000E+00	 8.20174000E+01	 0.00000000E+00	 1.03582000E+02	 2.53228000E-04	 1.15101000E-03	 0.00000000E+00	 0.00000000E+00	 0.00000000E+00	 0.00000000E+00	 0.00000000E+00	 2.23167000E-04	 0.00000000E+00	 2.25073000E-04	 0.00000000E+00	 0.00000000E+00	 3.36473000E-04	 0.00000000E+00	 0.00000000E+00	 5.35834000E-03	 0.00000000E+00	 1.37315000E-02
		-3.15648000E-03	-6.13065000E-03	 9.28713000E-03	-1.61231000E-03	-2.11073000E-03	-2.33040000E-03	 9.38776000E+00	 3.32819000E+01	 0.00000000E+00	 0.00000000E+00	 0.00000000E+00	 0.00000000E+00	 0.00000000E+00	 8.01081000E+00	 0.00000000E+00	 8.08221000E+00	 0.00000000E+00	 0.00000000E+00	 6.17614000E+00	 0.00000000E+00	 0.00000000E+00	 4.22432000E+01	 0.00000000E+00	 4.91384000E+01	 3.72111000E+01	 9.68750000E+01	 0.00000000E+00	 0.00000000E+00	 0.00000000E+00	 0.00000000E+00	 0.00000000E+00	 3.23393000E+01	 0.00000000E+00	 3.26002000E+01	 0.00000000E+00	 0.00000000E+00	 2.32330000E+01	 0.00000000E+00	 0.00000000E+00	 8.18715000E+01	 0.00000000E+00	 1.03290000E+02	 2.51947000E-04	 1.11696000E-03	 0.00000000E+00	 0.00000000E+00	 0.00000000E+00	 0.00000000E+00	 0.00000000E+00	 2.12690000E-04	 0.00000000E+00	 2.14689000E-04	 0.00000000E+00	 0.00000000E+00	 3.34227000E-04	 0.00000000E+00	 0.00000000E+00	 5.32176000E-03	 0.00000000E+00	 1.35550000E-02
		-3.24105000E-03	-6.30320000E-03	 9.54425000E-03	-1.63521000E-03	-2.17063000E-03	-2.39838000E-03	 9.47790000E+00	 3.39713000E+01	 0.00000000E+00	 0.00000000E+00	 0.00000000E+00	 0.00000000E+00	 0.00000000E+00	 8.04239000E+00	 0.00000000E+00	 8.60698000E+00	 0.00000000E+00	 0.00000000E+00	 6.38151000E+00	 0.00000000E+00	 0.00000000E+00	 4.26459000E+01	 0.00000000E+00	 4.91993000E+01	 3.75214000E+01	 9.80446000E+01	 0.00000000E+00	 0.00000000E+00	 0.00000000E+00	 0.00000000E+00	 0.00000000E+00	 3.24538000E+01	 0.00000000E+00	 3.44714000E+01	 0.00000000E+00	 0.00000000E+00	 2.38641000E+01	 0.00000000E+00	 0.00000000E+00	 8.25955000E+01	 0.00000000E+00	 1.03840000E+02	 2.54558000E-04	 1.14887000E-03	 0.00000000E+00	 0.00000000E+00	 0.00000000E+00	 0.00000000E+00	 0.00000000E+00	 2.13578000E-04	 0.00000000E+00	 2.29583000E-04	 0.00000000E+00	 0.00000000E+00	 3.46348000E-04	 0.00000000E+00	 0.00000000E+00	 5.51002000E-03	 0.00000000E+00	 1.38927000E-02
		-3.23136000E-03	-6.24922000E-03	 9.48058000E-03	-1.65075000E-03	-2.14571000E-03	-2.36306000E-03	 9.49517000E+00	 3.43204000E+01	 0.00000000E+00	 0.00000000E+00	 0.00000000E+00	 0.00000000E+00	 0.00000000E+00	 8.54727000E+00	 0.00000000E+00	 8.54710000E+00	 0.00000000E+00	 0.00000000E+00	 6.28444000E+00	 0.00000000E+00	 0.00000000E+00	 4.23947000E+01	 0.00000000E+00	 4.91885000E+01	 3.75827000E+01	 9.86365000E+01	 0.00000000E+00	 0.00000000E+00	 0.00000000E+00	 0.00000000E+00	 0.00000000E+00	 3.42668000E+01	 0.00000000E+00	 3.42652000E+01	 0.00000000E+00	 0.00000000E+00	 2.35645000E+01	 0.00000000E+00	 0.00000000E+00	 8.21364000E+01	 0.00000000E+00	 1.03749000E+02	 2.55048000E-04	 1.16497000E-03	 0.00000000E+00	 0.00000000E+00	 0.00000000E+00	 0.00000000E+00	 0.00000000E+00	 2.27849000E-04	 0.00000000E+00	 2.27850000E-04	 0.00000000E+00	 0.00000000E+00	 3.40632000E-04	 0.00000000E+00	 0.00000000E+00	 5.39032000E-03	 0.00000000E+00	 1.38380000E-02
		-3.28039000E-03	-6.34109000E-03	 9.62148000E-03	-1.68179000E-03	-2.17776000E-03	-2.39148000E-03	 9.55617000E+00	 3.47568000E+01	 0.00000000E+00	 0.00000000E+00	 0.00000000E+00	 0.00000000E+00	 0.00000000E+00	 8.68692000E+00	 0.00000000E+00	 8.87177000E+00	 0.00000000E+00	 0.00000000E+00	 6.32737000E+00	 0.00000000E+00	 0.00000000E+00	 4.25213000E+01	 0.00000000E+00	 4.92270000E+01	 3.77918000E+01	 9.93536000E+01	 0.00000000E+00	 0.00000000E+00	 0.00000000E+00	 0.00000000E+00	 0.00000000E+00	 3.47643000E+01	 0.00000000E+00	 3.54084000E+01	 0.00000000E+00	 0.00000000E+00	 2.36950000E+01	 0.00000000E+00	 0.00000000E+00	 8.23650000E+01	 0.00000000E+00	 1.04101000E+02	 2.56819000E-04	 1.18571000E-03	 0.00000000E+00	 0.00000000E+00	 0.00000000E+00	 0.00000000E+00	 0.00000000E+00	 2.31814000E-04	 0.00000000E+00	 2.37130000E-04	 0.00000000E+00	 0.00000000E+00	 3.43177000E-04	 0.00000000E+00	 0.00000000E+00	 5.44873000E-03	 0.00000000E+00	 1.40575000E-02
		-3.23135000E-03	-6.24920000E-03	 9.48055000E-03	-1.65074000E-03	-2.14571000E-03	-2.36306000E-03	 9.49515000E+00	 3.43204000E+01	 0.00000000E+00	 0.00000000E+00	 0.00000000E+00	 0.00000000E+00	 0.00000000E+00	 8.54723000E+00	 0.00000000E+00	 8.54711000E+00	 0.00000000E+00	 0.00000000E+00	 6.28447000E+00	 0.00000000E+00	 0.00000000E+00	 4.23948000E+01	 0.00000000E+00	 4.91885000E+01	 3.75827000E+01	 9.86365000E+01	 0.00000000E+00	 0.00000000E+00	 0.00000000E+00	 0.00000000E+00	 0.00000000E+00	 3.42667000E+01	 0.00000000E+00	 3.42652000E+01	 0.00000000E+00	 0.00000000E+00	 2.35646000E+01	 0.00000000E+00	 0.00000000E+00	 8.21364000E+01	 0.00000000E+00	 1.03749000E+02	 2.55048000E-04	 1.16497000E-03	 0.00000000E+00	 0.00000000E+00	 0.00000000E+00	 0.00000000E+00	 0.00000000E+00	 2.27848000E-04	 0.00000000E+00	 2.27851000E-04	 0.00000000E+00	 0.00000000E+00	 3.40633000E-04	 0.00000000E+00	 0.00000000E+00	 5.39033000E-03	 0.00000000E+00	 1.38380000E-02
		-3.19398000E-03	-6.18954000E-03	 9.38351000E-03	-1.63183000E-03	-2.12651000E-03	-2.34734000E-03	 9.46180000E+00	 3.38149000E+01	 0.00000000E+00	 0.00000000E+00	 0.00000000E+00	 0.00000000E+00	 0.00000000E+00	 8.33929000E+00	 0.00000000E+00	 8.24099000E+00	 0.00000000E+00	 0.00000000E+00	 6.20785000E+00	 0.00000000E+00	 0.00000000E+00	 4.23235000E+01	 0.00000000E+00	 4.91675000E+01	 3.74681000E+01	 9.77889000E+01	 0.00000000E+00	 0.00000000E+00	 0.00000000E+00	 0.00000000E+00	 0.00000000E+00	 3.35253000E+01	 0.00000000E+00	 3.31710000E+01	 0.00000000E+00	 0.00000000E+00	 2.33296000E+01	 0.00000000E+00	 0.00000000E+00	 8.20126000E+01	 0.00000000E+00	 1.03525000E+02	 2.54081000E-04	 1.14143000E-03	 0.00000000E+00	 0.00000000E+00	 0.00000000E+00	 0.00000000E+00	 0.00000000E+00	 2.21947000E-04	 0.00000000E+00	 2.19175000E-04	 0.00000000E+00	 0.00000000E+00	 3.36108000E-04	 0.00000000E+00	 0.00000000E+00	 5.35686000E-03	 0.00000000E+00	 1.36953000E-02
		-3.24200000E-03	-6.32233000E-03	 9.56434000E-03	-1.64196000E-03	-2.18268000E-03	-2.40965000E-03	 9.49791000E+00	 3.36529000E+01	 0.00000000E+00	 0.00000000E+00	 0.00000000E+00	 0.00000000E+00	 0.00000000E+00	 7.81749000E+00	 0.00000000E+00	 8.54125000E+00	 0.00000000E+00	 0.00000000E+00	 6.38902000E+00	 0.00000000E+00	 0.00000000E+00	 4.26943000E+01	 0.00000000E+00	 4.92062000E+01	 3.75904000E+01	 9.75074000E+01	 0.00000000E+00	 0.00000000E+00	 0.00000000E+00	 0.00000000E+00	 0.00000000E+00	 3.16398000E+01	 0.00000000E+00	 3.42375000E+01	 0.00000000E+00	 0.00000000E+00	 2.38867000E+01	 0.00000000E+00	 0.00000000E+00	 8.26823000E+01	 0.00000000E+00	 1.03908000E+02	 2.55136000E-04	 1.13409000E-03	 0.00000000E+00	 0.00000000E+00	 0.00000000E+00	 0.00000000E+00	 0.00000000E+00	 2.07249000E-04	 0.00000000E+00	 2.27715000E-04	 0.00000000E+00	 0.00000000E+00	 3.46794000E-04	 0.00000000E+00	 0.00000000E+00	 5.53287000E-03	 0.00000000E+00	 1.39354000E-02
		-3.15649000E-03	-6.13065000E-03	 9.28714000E-03	-1.61233000E-03	-2.11073000E-03	-2.33040000E-03	 9.38778000E+00	 3.32819000E+01	 0.00000000E+00	 0.00000000E+00	 0.00000000E+00	 0.00000000E+00	 0.00000000E+00	 8.01089000E+00	 0.00000000E+00	 8.08221000E+00	 0.00000000E+00	 0.00000000E+00	 6.17610000E+00	 0.00000000E+00	 0.00000000E+00	 4.22431000E+01	 0.00000000E+00	 4.91384000E+01	 3.72112000E+01	 9.68750000E+01	 0.00000000E+00	 0.00000000E+00	 0.00000000E+00	 0.00000000E+00	 0.00000000E+00	 3.23396000E+01	 0.00000000E+00	 3.26002000E+01	 0.00000000E+00	 0.00000000E+00	 2.32329000E+01	 0.00000000E+00	 0.00000000E+00	 8.18713000E+01	 0.00000000E+00	 1.03290000E+02	 2.51948000E-04	 1.11696000E-03	 0.00000000E+00	 0.00000000E+00	 0.00000000E+00	 0.00000000E+00	 0.00000000E+00	 2.12692000E-04	 0.00000000E+00	 2.14689000E-04	 0.00000000E+00	 0.00000000E+00	 3.34224000E-04	 0.00000000E+00	 0.00000000E+00	 5.32173000E-03	 0.00000000E+00	 1.35550000E-02
		-3.19398000E-03	-6.18955000E-03	 9.38353000E-03	-1.63185000E-03	-2.12651000E-03	-2.34734000E-03	 9.46182000E+00	 3.38149000E+01	 0.00000000E+00	 0.00000000E+00	 0.00000000E+00	 0.00000000E+00	 0.00000000E+00	 8.33936000E+00	 0.00000000E+00	 8.24098000E+00	 0.00000000E+00	 0.00000000E+00	 6.20780000E+00	 0.00000000E+00	 0.00000000E+00	 4.23234000E+01	 0.00000000E+00	 4.91675000E+01	 3.74682000E+01	 9.77889000E+01	 0.00000000E+00	 0.00000000E+00	 0.00000000E+00	 0.00000000E+00	 0.00000000E+00	 3.35255000E+01	 0.00000000E+00	 3.31710000E+01	 0.00000000E+00	 0.00000000E+00	 2.33294000E+01	 0.00000000E+00	 0.00000000E+00	 8.20125000E+01	 0.00000000E+00	 1.03525000E+02	 2.54082000E-04	 1.14143000E-03	 0.00000000E+00	 0.00000000E+00	 0.00000000E+00	 0.00000000E+00	 0.00000000E+00	 2.21949000E-04	 0.00000000E+00	 2.19175000E-04	 0.00000000E+00	 0.00000000E+00	 3.36105000E-04	 0.00000000E+00	 0.00000000E+00	 5.35684000E-03	 0.00000000E+00	 1.36954000E-02
		-3.24200000E-03	-6.32233000E-03	 9.56434000E-03	-1.64195000E-03	-2.18268000E-03	-2.40966000E-03	 9.49790000E+00	 3.36529000E+01	 0.00000000E+00	 0.00000000E+00	 0.00000000E+00	 0.00000000E+00	 0.00000000E+00	 7.81746000E+00	 0.00000000E+00	 8.54124000E+00	 0.00000000E+00	 0.00000000E+00	 6.38902000E+00	 0.00000000E+00	 0.00000000E+00	 4.26944000E+01	 0.00000000E+00	 4.92062000E+01	 3.75904000E+01	 9.75074000E+01	 0.00000000E+00	 0.00000000E+00	 0.00000000E+00	 0.00000000E+00	 0.00000000E+00	 3.16397000E+01	 0.00000000E+00	 3.42375000E+01	 0.00000000E+00	 0.00000000E+00	 2.38867000E+01	 0.00000000E+00	 0.00000000E+00	 8.26824000E+01	 0.00000000E+00	 1.03908000E+02	 2.55136000E-04	 1.13409000E-03	 0.00000000E+00	 0.00000000E+00	 0.00000000E+00	 0.00000000E+00	 0.00000000E+00	 2.07248000E-04	 0.00000000E+00	 2.27715000E-04	 0.00000000E+00	 0.00000000E+00	 3.46794000E-04	 0.00000000E+00	 0.00000000E+00	 5.53289000E-03	 0.00000000E+00	 1.39354000E-02
		-3.28039000E-03	-6.34111000E-03	 9.62150000E-03	-1.68180000E-03	-2.17776000E-03	-2.39148000E-03	 9.55619000E+00	 3.47567000E+01	 0.00000000E+00	 0.00000000E+00	 0.00000000E+00	 0.00000000E+00	 0.00000000E+00	 8.68689000E+00	 0.00000000E+00	 8.87175000E+00	 0.00000000E+00	 0.00000000E+00	 6.32738000E+00	 0.00000000E+00	 0.00000000E+00	 4.25213000E+01	 0.00000000E+00	 4.92270000E+01	 3.77919000E+01	 9.93535000E+01	 0.00000000E+00	 0.00000000E+00	 0.00000000E+00	 0.00000000E+00	 0.00000000E+00	 3.47642000E+01	 0.00000000E+00	 3.54083000E+01	 0.00000000E+00	 0.00000000E+00	 2.36951000E+01	 0.00000000E+00	 0.00000000E+00	 8.23650000E+01	 0.00000000E+00	 1.04101000E+02	 2.56820000E-04	 1.18570000E-03	 0.00000000E+00	 0.00000000E+00	 0.00000000E+00	 0.00000000E+00	 0.00000000E+00	 2.31813000E-04	 0.00000000E+00	 2.37129000E-04	 0.00000000E+00	 0.00000000E+00	 3.43178000E-04	 0.00000000E+00	 0.00000000E+00	 5.44873000E-03	 0.00000000E+00	 1.40576000E-02
		-3.33036000E-03	-6.43683000E-03	 9.76719000E-03	-1.71128000E-03	-2.20592000E-03	-2.42547000E-03	 9.68860000E+00	 3.52091000E+01	 0.00000000E+00	 0.00000000E+00	 0.00000000E+00	 0.00000000E+00	 0.00000000E+00	 8.95887000E+00	 0.00000000E+00	 8.97210000E+00	 0.00000000E+00	 0.00000000E+00	 6.28610000E+00	 0.00000000E+00	 0.00000000E+00	 4.26741000E+01	 0.00000000E+00	 4.92558000E+01	 3.82467000E+01	 1.00092000E+02	 0.00000000E+00	 0.00000000E+00	 0.00000000E+00	 0.00000000E+00	 0.00000000E+00	 3.57360000E+01	 0.00000000E+00	 3.57595000E+01	 0.00000000E+00	 0.00000000E+00	 2.35656000E+01	 0.00000000E+00	 0.00000000E+00	 8.26421000E+01	 0.00000000E+00	 1.04434000E+02	 2.60658000E-04	 1.20724000E-03	 0.00000000E+00	 0.00000000E+00	 0.00000000E+00	 0.00000000E+00	 0.00000000E+00	 2.39524000E-04	 0.00000000E+00	 2.40007000E-04	 0.00000000E+00	 0.00000000E+00	 3.40761000E-04	 0.00000000E+00	 0.00000000E+00	 5.52315000E-03	 0.00000000E+00	 1.42763000E-02
		-3.24105000E-03	-6.30320000E-03	 9.54425000E-03	-1.63521000E-03	-2.17063000E-03	-2.39838000E-03	 9.47792000E+00	 3.39713000E+01	 0.00000000E+00	 0.00000000E+00	 0.00000000E+00	 0.00000000E+00	 0.00000000E+00	 8.04243000E+00	 0.00000000E+00	 8.60694000E+00	 0.00000000E+00	 0.00000000E+00	 6.38147000E+00	 0.00000000E+00	 0.00000000E+00	 4.26459000E+01	 0.00000000E+00	 4.91993000E+01	 3.75214000E+01	 9.80447000E+01	 0.00000000E+00	 0.00000000E+00	 0.00000000E+00	 0.00000000E+00	 0.00000000E+00	 3.24539000E+01	 0.00000000E+00	 3.44713000E+01	 0.00000000E+00	 0.00000000E+00	 2.38640000E+01	 0.00000000E+00	 0.00000000E+00	 8.25955000E+01	 0.00000000E+00	 1.03840000E+02	 2.54558000E-04	 1.14887000E-03	 0.00000000E+00	 0.00000000E+00	 0.00000000E+00	 0.00000000E+00	 0.00000000E+00	 2.13579000E-04	 0.00000000E+00	 2.29582000E-04	 0.00000000E+00	 0.00000000E+00	 3.46346000E-04	 0.00000000E+00	 0.00000000E+00	 5.51002000E-03	 0.00000000E+00	 1.38927000E-02
		-3.20405000E-03	-6.20342000E-03	 9.40747000E-03	-1.63677000E-03	-2.13086000E-03	-2.34807000E-03	 9.43194000E+00	 3.40185000E+01	 0.00000000E+00	 0.00000000E+00	 0.00000000E+00	 0.00000000E+00	 0.00000000E+00	 8.38184000E+00	 0.00000000E+00	 8.44889000E+00	 0.00000000E+00	 0.00000000E+00	 6.21400000E+00	 0.00000000E+00	 0.00000000E+00	 4.23238000E+01	 0.00000000E+00	 4.91727000E+01	 3.73629000E+01	 9.81264000E+01	 0.00000000E+00	 0.00000000E+00	 0.00000000E+00	 0.00000000E+00	 0.00000000E+00	 3.36738000E+01	 0.00000000E+00	 3.39125000E+01	 0.00000000E+00	 0.00000000E+00	 2.33481000E+01	 0.00000000E+00	 0.00000000E+00	 8.20173000E+01	 0.00000000E+00	 1.03582000E+02	 2.53229000E-04	 1.15101000E-03	 0.00000000E+00	 0.00000000E+00	 0.00000000E+00	 0.00000000E+00	 0.00000000E+00	 2.23168000E-04	 0.00000000E+00	 2.25074000E-04	 0.00000000E+00	 0.00000000E+00	 3.36473000E-04	 0.00000000E+00	 0.00000000E+00	 5.35832000E-03	 0.00000000E+00	 1.37315000E-02
		-3.25326000E-03	-6.27988000E-03	 9.53314000E-03	-1.65940000E-03	-2.14659000E-03	-2.37071000E-03	 9.54454000E+00	 3.47899000E+01	 0.00000000E+00	 0.00000000E+00	 0.00000000E+00	 0.00000000E+00	 0.00000000E+00	 8.91218000E+00	 0.00000000E+00	 8.60937000E+00	 0.00000000E+00	 0.00000000E+00	 6.16925000E+00	 0.00000000E+00	 0.00000000E+00	 4.24325000E+01	 0.00000000E+00	 4.91979000E+01	 3.77514000E+01	 9.94064000E+01	 0.00000000E+00	 0.00000000E+00	 0.00000000E+00	 0.00000000E+00	 0.00000000E+00	 3.55636000E+01	 0.00000000E+00	 3.44828000E+01	 0.00000000E+00	 0.00000000E+00	 2.32059000E+01	 0.00000000E+00	 0.00000000E+00	 8.22109000E+01	 0.00000000E+00	 1.03857000E+02	 2.56484000E-04	 1.18727000E-03	 0.00000000E+00	 0.00000000E+00	 0.00000000E+00	 0.00000000E+00	 0.00000000E+00	 2.38225000E-04	 0.00000000E+00	 2.29637000E-04	 0.00000000E+00	 0.00000000E+00	 3.33873000E-04	 0.00000000E+00	 0.00000000E+00	 5.41017000E-03	 0.00000000E+00	 1.39068000E-02
		-3.29208000E-03	-6.35792000E-03	 9.64999000E-03	-1.68564000E-03	-2.17426000E-03	-2.39863000E-03	 9.63653000E+00	 3.50186000E+01	 0.00000000E+00	 0.00000000E+00	 0.00000000E+00	 0.00000000E+00	 0.00000000E+00	 9.00881000E+00	 0.00000000E+00	 8.71241000E+00	 0.00000000E+00	 0.00000000E+00	 6.20487000E+00	 0.00000000E+00	 0.00000000E+00	 4.25583000E+01	 0.00000000E+00	 4.92312000E+01	 3.80686000E+01	 9.97829000E+01	 0.00000000E+00	 0.00000000E+00	 0.00000000E+00	 0.00000000E+00	 0.00000000E+00	 3.59082000E+01	 0.00000000E+00	 3.48463000E+01	 0.00000000E+00	 0.00000000E+00	 2.33159000E+01	 0.00000000E+00	 0.00000000E+00	 8.24351000E+01	 0.00000000E+00	 1.04152000E+02	 2.59145000E-04	 1.19815000E-03	 0.00000000E+00	 0.00000000E+00	 0.00000000E+00	 0.00000000E+00	 0.00000000E+00	 2.40967000E-04	 0.00000000E+00	 2.32579000E-04	 0.00000000E+00	 0.00000000E+00	 3.35970000E-04	 0.00000000E+00	 0.00000000E+00	 5.46736000E-03	 0.00000000E+00	 1.40903000E-02
