<?xml version="1.0"?>
<VTKFile type="UnstructuredGrid" version="0.1" byte_order="LittleEndian">
	<UnstructuredGrid>
		<Piece NumberOfPoints="20" NumberOfCells="1">
			<Points>
				<DataArray type="Float64" NumberOfComponents="3" format="ascii">
					 1.00000000E+00	 0.00000000E+00	 0.00000000E+00
					 5.00000000E-01	 0.00000000E+00	 0.00000000E+00
					 7.50000000E-01	 0.00000000E+00	 0.00000000E+00
					 1.00000000E+00	 2.50000000E-01	 0.00000000E+00
					 1.00000000E+00	 5.00000000E-01	 0.00000000E+00
					 1.00000000E+00	 0.00000000E+00	 5.00000000E-01
					 1.00000000E+00	 0.00000000E+00	 1.00000000E+00
					 5.00000000E-01	 2.50000000E-01	 0.00000000E+00
					 5.00000000E-01	 5.00000000E-01	 0.00000000E+00
					 7.50000000E-01	 5.00000000E-01	 0.00000000E+00
					 5.00000000E-01	 0.00000000E+00	 5.00000000E-01
					 5.00000000E-01	 0.00000000E+00	 1.00000000E+00
					 7.50000000E-01	 0.00000000E+00	 1.00000000E+00
					 1.00000000E+00	 5.00000000E-01	 5.00000000E-01
					 1.00000000E+00	 2.50000000E-01	 1.00000000E+00
					 1.00000000E+00	 5.00000000E-01	 1.00000000E+00
					 5.00000000E-01	 5.00000000E-01	 5.00000000E-01
					 5.00000000E-01	 2.50000000E-01	 1.00000000E+00
					 5.00000000E-01	 5.00000000E-01	 1.00000000E+00
					 7.50000000E-01	 5.00000000E-01	 1.00000000E+00

				</DataArray>
			</Points>
			<Cells>
				<DataArray type="Int32" Name="connectivity" format="ascii">
					1 0 4 8 11 6 15 18 2 3 9 7 12 14 19 17 10 5 13 16 
				</DataArray>
				<DataArray type="Int32" Name="offsets" format="ascii">
					20 
				</DataArray>
				<DataArray type="UInt8" Name="types" format="ascii">
					25 
				</DataArray>
			</Cells>
			<PointData>
				<DataArray type="Float32" Name="U" NumberOfComponents="3" ComponentName0="D1" ComponentName1="D2" ComponentName2="D3" format="ascii">
					 0.00000000E+00	 0.00000000E+00	 0.00000000E+00
					 5.14007000E-04	 0.00000000E+00	 0.00000000E+00
					 2.57734000E-04	-1.23388000E-06	 0.00000000E+00
					 9.72033000E-05	-1.56772000E-05	 0.00000000E+00
					 1.96287000E-04	-3.36543000E-05	 0.00000000E+00
					 5.21813000E-04	 6.82135000E-04	 1.30418000E-03
					 1.04559000E-03	 1.36362000E-03	 2.61375000E-03
					 6.17439000E-04	-1.12312000E-05	 0.00000000E+00
					 7.22334000E-04	-2.55004000E-05	 0.00000000E+00
					 4.60407000E-04	-3.10608000E-05	 0.00000000E+00
					 1.04313000E-03	 6.83927000E-04	 1.29315000E-03
					 1.57163000E-03	 1.37177000E-03	 2.61375000E-03
					 1.30751000E-03	 1.36918000E-03	 2.61375000E-03
					 7.24792000E-04	 6.54190000E-04	 1.32060000E-03
					 1.15048000E-03	 1.34935000E-03	 2.61375000E-03
					 1.25391000E-03	 1.33812000E-03	 2.61375000E-03
					 1.24611000E-03	 6.55981000E-04	 1.30957000E-03
					 1.67072000E-03	 1.35379000E-03	 2.61375000E-03
					 1.76792000E-03	 1.33812000E-03	 2.61375000E-03
					 1.51019000E-03	 1.33935000E-03	 2.61375000E-03
				</DataArray>
				<DataArray type="Float32" Name="S" NumberOfComponents="10" ComponentName0="xx" ComponentName1="yy" ComponentName2="zz" ComponentName3="xy" ComponentName4="yz" ComponentName5="zx" ComponentName6="Mises" ComponentName7="Min Principal" ComponentName8="Mid Principal" ComponentName9="Max Principal" format="ascii">
					-2.41218000E-01	 2.02165000E-01	 4.15211000E+02	 1.59932000E-01	-6.64228000E-01	-1.46633000E+00	 4.15240157E+02	-2.96318096E-01	 2.51024894E-01	 4.15217240E+02
					-2.84595000E-01	 1.79162000E-02	 4.11777000E+02	 2.64116000E-01	-8.93645000E-01	-4.59267000E-01	 4.11914353E+02	-4.37706532E-01	 1.68575100E-01	 4.11779453E+02
					-4.08842000E-01	 1.59819000E-01	 4.13493000E+02	 2.55139000E-01	-6.38946000E-01	-1.18558000E+00	 4.13624619E+02	-5.08403356E-01	 2.54994460E-01	 4.13497386E+02
					 2.66241000E-02	 7.70183000E-02	 4.17820000E+02	 1.02235000E-01	-6.24253000E-01	-7.06229000E-01	 4.17771409E+02	-5.35437104E-02	 1.55058960E-01	 4.17822127E+02
					 1.97658000E-01	 2.44697000E-01	 4.20386000E+02	 1.25633000E-01	-3.04728000E-01	-3.60466000E-01	 4.20165676E+02	 9.33456314E-02	 3.48478962E-01	 4.20386530E+02
					 1.11831000E-01	 5.12805000E-02	 4.16222000E+02	-1.03867000E-01	 2.58694000E-01	 4.67727000E-02	 4.16140736E+02	-2.67663450E-02	 1.89711796E-01	 4.16222166E+02
					 6.94946000E-02	 9.05999000E-02	 4.16975000E+02	 1.34568000E-01	-9.02032000E-01	-7.46924000E-01	 4.16899953E+02	-5.49438153E-02	 2.11747347E-01	 4.16978291E+02
					-6.05536000E-02	-9.58224000E-02	 4.14402000E+02	 1.56487000E-01	-1.03911000E+00	-3.98563000E-01	 4.14484760E+02	-2.36295588E-01	 7.69306232E-02	 4.14404989E+02
					 6.94958000E-02	 9.06054000E-02	 4.16975000E+02	 1.34574000E-01	-9.02032000E-01	-7.46924000E-01	 4.16899950E+02	-5.49466128E-02	 2.11756845E-01	 4.16978291E+02
					-7.12250000E-03	 2.15461000E-01	 4.18676000E+02	 1.73808000E-01	-4.64724000E-01	-7.67900000E-01	 4.18574870E+02	-1.02703038E-01	 3.09116344E-01	 4.18677925E+02
					 1.44335000E-01	 9.60877000E-03	 4.16246000E+02	-6.87313000E-02	 4.34639000E-01	 7.37058000E-01	 4.16171700E+02	-2.04010905E-02	 1.72585686E-01	 4.16247759E+02
					 1.97655000E-01	 2.44688000E-01	 4.20386000E+02	 1.25622000E-01	-3.04725000E-01	-3.60465000E-01	 4.20165682E+02	 9.33509958E-02	 3.48461604E-01	 4.20386530E+02
					-7.12364000E-03	 2.15458000E-01	 4.18676000E+02	 1.73799000E-01	-4.64723000E-01	-7.67900000E-01	 4.18574873E+02	-1.02697045E-01	 3.09106213E-01	 4.18677925E+02
					 1.44336000E-01	 9.60957000E-03	 4.16246000E+02	-6.87303000E-02	 4.34636000E-01	 7.37058000E-01	 4.16171700E+02	-2.03995304E-02	 1.72585932E-01	 4.16247759E+02
					-6.05547000E-02	-9.58294000E-02	 4.14402000E+02	 1.56478000E-01	-1.03911000E+00	-3.98562000E-01	 4.14484764E+02	-2.36291058E-01	 7.69179947E-02	 4.14404989E+02
					-2.84603000E-01	 1.79071000E-02	 4.11777000E+02	 2.64105000E-01	-8.93646000E-01	-4.59270000E-01	 4.11914362E+02	-4.37705260E-01	 1.68556718E-01	 4.11779453E+02
					 1.11834000E-01	 5.12817000E-02	 4.16222000E+02	-1.03860000E-01	 2.58692000E-01	 4.67745000E-02	 4.16140733E+02	-2.67577777E-02	 1.89707431E-01	 4.16222166E+02
					 2.66237000E-02	 7.70144000E-02	 4.17820000E+02	 1.02234000E-01	-6.24253000E-01	-7.06230000E-01	 4.17771411E+02	-5.35444661E-02	 1.55055412E-01	 4.17822127E+02
					-2.41221000E-01	 2.02164000E-01	 4.15211000E+02	 1.59941000E-01	-6.64230000E-01	-1.46634000E+00	 4.15240159E+02	-2.96326148E-01	 2.51028868E-01	 4.15217240E+02
					-4.08847000E-01	 1.59818000E-01	 4.13493000E+02	 2.55138000E-01	-6.38947000E-01	-1.18558000E+00	 4.13624622E+02	-5.08407187E-01	 2.54992288E-01	 4.13497386E+02
				</DataArray>
				<DataArray type="Float32" Name="SDV" NumberOfComponents="60" ComponentName0="1" ComponentName1="2" ComponentName2="3" ComponentName3="4" ComponentName4="5" ComponentName5="6" ComponentName6="7" ComponentName7="8" ComponentName8="9" ComponentName9="10" ComponentName10="11" ComponentName11="12" ComponentName12="13" ComponentName13="14" ComponentName14="15" ComponentName15="16" ComponentName16="17" ComponentName17="18" ComponentName18="19" ComponentName19="20" ComponentName20="21" ComponentName21="22" ComponentName22="23" ComponentName23="24" ComponentName24="25" ComponentName25="26" ComponentName26="27" ComponentName27="28" ComponentName28="29" ComponentName29="30" ComponentName30="31" ComponentName31="32" ComponentName32="33" ComponentName33="34" ComponentName34="35" ComponentName35="36" ComponentName36="37" ComponentName37="38" ComponentName38="39" ComponentName39="40" ComponentName40="41" ComponentName41="42" ComponentName42="43" ComponentName43="44" ComponentName44="45" ComponentName45="46" ComponentName46="47" ComponentName47="48" ComponentName48="49" ComponentName49="50" ComponentName50="51" ComponentName51="52" ComponentName52="53" ComponentName53="54" ComponentName54="55" ComponentName55="56" ComponentName56="57" ComponentName57="58" ComponentName58="59" ComponentName59="60" format="ascii">
					-2.23306000E-04	-3.98127000E-04	 6.21433000E-04	-8.30456000E-05	-1.37889000E-04	-1.54035000E-04	 5.61554000E-01	 4.35919000E+00	 0.00000000E+00	 0.00000000E+00	 0.00000000E+00	 0.00000000E+00	 0.00000000E+00	 3.53849000E-01	 0.00000000E+00	 4.49276000E-01	 0.00000000E+00	 0.00000000E+00	 9.05675000E-01	 0.00000000E+00	 0.00000000E+00	 6.47913000E+00	 0.00000000E+00	 1.32543000E+01	 2.49555000E+00	 1.80028000E+01	 0.00000000E+00	 0.00000000E+00	 0.00000000E+00	 0.00000000E+00	 0.00000000E+00	 1.57973000E+00	 0.00000000E+00	 2.00143000E+00	 0.00000000E+00	 0.00000000E+00	 3.91070000E+00	 0.00000000E+00	 0.00000000E+00	 2.29531000E+01	 0.00000000E+00	 3.90593000E+01	 1.41326000E-05	 1.14397000E-04	 0.00000000E+00	 0.00000000E+00	 0.00000000E+00	 0.00000000E+00	 0.00000000E+00	 8.88351000E-06	 0.00000000E+00	 1.12923000E-05	 0.00000000E+00	 0.00000000E+00	 4.60646000E-05	 0.00000000E+00	 0.00000000E+00	 3.64519000E-04	 0.00000000E+00	 8.54211000E-04
					-2.12126000E-04	-3.79046000E-04	 5.91172000E-04	-7.79956000E-05	-1.29501000E-04	-1.46997000E-04	 5.29638000E-01	 4.22029000E+00	 0.00000000E+00	 0.00000000E+00	 0.00000000E+00	 0.00000000E+00	 0.00000000E+00	 3.42401000E-01	 0.00000000E+00	 4.04670000E-01	 0.00000000E+00	 0.00000000E+00	 8.07481000E-01	 0.00000000E+00	 0.00000000E+00	 6.23726000E+00	 0.00000000E+00	 1.27208000E+01	 2.35527000E+00	 1.74723000E+01	 0.00000000E+00	 0.00000000E+00	 0.00000000E+00	 0.00000000E+00	 0.00000000E+00	 1.52907000E+00	 0.00000000E+00	 1.80451000E+00	 0.00000000E+00	 0.00000000E+00	 3.50079000E+00	 0.00000000E+00	 0.00000000E+00	 2.22517000E+01	 0.00000000E+00	 3.79635000E+01	 1.33247000E-05	 1.10587000E-04	 0.00000000E+00	 0.00000000E+00	 0.00000000E+00	 0.00000000E+00	 0.00000000E+00	 8.59474000E-06	 0.00000000E+00	 1.01657000E-05	 0.00000000E+00	 0.00000000E+00	 4.09997000E-05	 0.00000000E+00	 0.00000000E+00	 3.49459000E-04	 0.00000000E+00	 8.10755000E-04
					-2.17821000E-04	-3.88486000E-04	 6.06306000E-04	-8.05606000E-05	-1.33957000E-04	-1.50389000E-04	 5.43734000E-01	 4.28827000E+00	 0.00000000E+00	 0.00000000E+00	 0.00000000E+00	 0.00000000E+00	 0.00000000E+00	 3.45493000E-01	 0.00000000E+00	 4.32144000E-01	 0.00000000E+00	 0.00000000E+00	 8.67447000E-01	 0.00000000E+00	 0.00000000E+00	 6.35092000E+00	 0.00000000E+00	 1.29896000E+01	 2.41724000E+00	 1.77321000E+01	 0.00000000E+00	 0.00000000E+00	 0.00000000E+00	 0.00000000E+00	 0.00000000E+00	 1.54274000E+00	 0.00000000E+00	 1.92582000E+00	 0.00000000E+00	 0.00000000E+00	 3.75138000E+00	 0.00000000E+00	 0.00000000E+00	 2.25828000E+01	 0.00000000E+00	 3.85178000E+01	 1.36815000E-05	 1.12451000E-04	 0.00000000E+00	 0.00000000E+00	 0.00000000E+00	 0.00000000E+00	 0.00000000E+00	 8.67277000E-06	 0.00000000E+00	 1.08595000E-05	 0.00000000E+00	 0.00000000E+00	 4.40914000E-05	 0.00000000E+00	 0.00000000E+00	 3.56519000E-04	 0.00000000E+00	 8.32573000E-04
					-2.30259000E-04	-4.10035000E-04	 6.40294000E-04	-8.53536000E-05	-1.41068000E-04	-1.58559000E-04	 5.91452000E-01	 4.51853000E+00	 0.00000000E+00	 0.00000000E+00	 0.00000000E+00	 0.00000000E+00	 0.00000000E+00	 3.88854000E-01	 0.00000000E+00	 4.65887000E-01	 0.00000000E+00	 0.00000000E+00	 9.09094000E-01	 0.00000000E+00	 0.00000000E+00	 6.65851000E+00	 0.00000000E+00	 1.35534000E+01	 2.62673000E+00	 1.86057000E+01	 0.00000000E+00	 0.00000000E+00	 0.00000000E+00	 0.00000000E+00	 0.00000000E+00	 1.73452000E+00	 0.00000000E+00	 2.07466000E+00	 0.00000000E+00	 0.00000000E+00	 3.92541000E+00	 0.00000000E+00	 0.00000000E+00	 2.34634000E+01	 0.00000000E+00	 3.96618000E+01	 1.48902000E-05	 1.18793000E-04	 0.00000000E+00	 0.00000000E+00	 0.00000000E+00	 0.00000000E+00	 0.00000000E+00	 9.76680000E-06	 0.00000000E+00	 1.17121000E-05	 0.00000000E+00	 0.00000000E+00	 4.62387000E-05	 0.00000000E+00	 0.00000000E+00	 3.75815000E-04	 0.00000000E+00	 8.79098000E-04
					-2.37207000E-04	-4.21341000E-04	 6.58548000E-04	-8.76422000E-05	-1.44609000E-04	-1.62670000E-04	 6.17085000E-01	 4.67177000E+00	 0.00000000E+00	 0.00000000E+00	 0.00000000E+00	 0.00000000E+00	 0.00000000E+00	 4.18894000E-01	 0.00000000E+00	 4.92542000E-01	 0.00000000E+00	 0.00000000E+00	 9.32830000E-01	 0.00000000E+00	 0.00000000E+00	 6.81759000E+00	 0.00000000E+00	 1.38426000E+01	 2.73916000E+00	 1.91840000E+01	 0.00000000E+00	 0.00000000E+00	 0.00000000E+00	 0.00000000E+00	 0.00000000E+00	 1.86725000E+00	 0.00000000E+00	 2.19209000E+00	 0.00000000E+00	 0.00000000E+00	 4.02459000E+00	 0.00000000E+00	 0.00000000E+00	 2.39167000E+01	 0.00000000E+00	 4.02410000E+01	 1.55399000E-05	 1.23027000E-04	 0.00000000E+00	 0.00000000E+00	 0.00000000E+00	 0.00000000E+00	 0.00000000E+00	 1.05251000E-05	 0.00000000E+00	 1.23860000E-05	 0.00000000E+00	 0.00000000E+00	 4.74626000E-05	 0.00000000E+00	 0.00000000E+00	 3.85825000E-04	 0.00000000E+00	 9.03270000E-04
					-2.23222000E-04	-3.96917000E-04	 6.20139000E-04	-8.36312000E-05	-1.35413000E-04	-1.52647000E-04	 5.63241000E-01	 4.45414000E+00	 0.00000000E+00	 0.00000000E+00	 0.00000000E+00	 0.00000000E+00	 0.00000000E+00	 3.97543000E-01	 0.00000000E+00	 4.57136000E-01	 0.00000000E+00	 0.00000000E+00	 8.41016000E-01	 0.00000000E+00	 0.00000000E+00	 6.42091000E+00	 0.00000000E+00	 1.32360000E+01	 2.50288000E+00	 1.83603000E+01	 0.00000000E+00	 0.00000000E+00	 0.00000000E+00	 0.00000000E+00	 0.00000000E+00	 1.77291000E+00	 0.00000000E+00	 2.03603000E+00	 0.00000000E+00	 0.00000000E+00	 3.64141000E+00	 0.00000000E+00	 0.00000000E+00	 2.27868000E+01	 0.00000000E+00	 3.90085000E+01	 1.41756000E-05	 1.17023000E-04	 0.00000000E+00	 0.00000000E+00	 0.00000000E+00	 0.00000000E+00	 0.00000000E+00	 9.98614000E-06	 0.00000000E+00	 1.14911000E-05	 0.00000000E+00	 0.00000000E+00	 4.27262000E-05	 0.00000000E+00	 0.00000000E+00	 3.60866000E-04	 0.00000000E+00	 8.53190000E-04
					-2.27825000E-04	-4.06210000E-04	 6.34035000E-04	-8.41744000E-05	-1.39668000E-04	-1.57362000E-04	 5.84738000E-01	 4.46985000E+00	 0.00000000E+00	 0.00000000E+00	 0.00000000E+00	 0.00000000E+00	 0.00000000E+00	 3.78593000E-01	 0.00000000E+00	 4.52496000E-01	 0.00000000E+00	 0.00000000E+00	 8.96726000E-01	 0.00000000E+00	 0.00000000E+00	 6.62018000E+00	 0.00000000E+00	 1.34443000E+01	 2.59730000E+00	 1.84227000E+01	 0.00000000E+00	 0.00000000E+00	 0.00000000E+00	 0.00000000E+00	 0.00000000E+00	 1.68919000E+00	 0.00000000E+00	 2.01567000E+00	 0.00000000E+00	 0.00000000E+00	 3.87384000E+00	 0.00000000E+00	 0.00000000E+00	 2.33533000E+01	 0.00000000E+00	 3.94419000E+01	 1.47200000E-05	 1.17445000E-04	 0.00000000E+00	 0.00000000E+00	 0.00000000E+00	 0.00000000E+00	 0.00000000E+00	 9.50775000E-06	 0.00000000E+00	 1.13735000E-05	 0.00000000E+00	 0.00000000E+00	 4.56004000E-05	 0.00000000E+00	 0.00000000E+00	 3.73410000E-04	 0.00000000E+00	 8.69999000E-04
					-2.19983000E-04	-3.92918000E-04	 6.12902000E-04	-8.10870000E-05	-1.34392000E-04	-1.52377000E-04	 5.59326000E-01	 4.34867000E+00	 0.00000000E+00	 0.00000000E+00	 0.00000000E+00	 0.00000000E+00	 0.00000000E+00	 3.63473000E-01	 0.00000000E+00	 4.23780000E-01	 0.00000000E+00	 0.00000000E+00	 8.41946000E-01	 0.00000000E+00	 0.00000000E+00	 6.43892000E+00	 0.00000000E+00	 1.30881000E+01	 2.48569000E+00	 1.79613000E+01	 0.00000000E+00	 0.00000000E+00	 0.00000000E+00	 0.00000000E+00	 0.00000000E+00	 1.62228000E+00	 0.00000000E+00	 1.88892000E+00	 0.00000000E+00	 0.00000000E+00	 3.64514000E+00	 0.00000000E+00	 0.00000000E+00	 2.28322000E+01	 0.00000000E+00	 3.87176000E+01	 1.40764000E-05	 1.14114000E-04	 0.00000000E+00	 0.00000000E+00	 0.00000000E+00	 0.00000000E+00	 0.00000000E+00	 9.12636000E-06	 0.00000000E+00	 1.06482000E-05	 0.00000000E+00	 0.00000000E+00	 4.27749000E-05	 0.00000000E+00	 0.00000000E+00	 3.62067000E-04	 0.00000000E+00	 8.40701000E-04
					-2.27825000E-04	-4.06210000E-04	 6.34035000E-04	-8.41743000E-05	-1.39668000E-04	-1.57362000E-04	 5.84737000E-01	 4.46985000E+00	 0.00000000E+00	 0.00000000E+00	 0.00000000E+00	 0.00000000E+00	 0.00000000E+00	 3.78593000E-01	 0.00000000E+00	 4.52496000E-01	 0.00000000E+00	 0.00000000E+00	 8.96726000E-01	 0.00000000E+00	 0.00000000E+00	 6.62018000E+00	 0.00000000E+00	 1.34443000E+01	 2.59730000E+00	 1.84227000E+01	 0.00000000E+00	 0.00000000E+00	 0.00000000E+00	 0.00000000E+00	 0.00000000E+00	 1.68918000E+00	 0.00000000E+00	 2.01567000E+00	 0.00000000E+00	 0.00000000E+00	 3.87384000E+00	 0.00000000E+00	 0.00000000E+00	 2.33533000E+01	 0.00000000E+00	 3.94419000E+01	 1.47200000E-05	 1.17445000E-04	 0.00000000E+00	 0.00000000E+00	 0.00000000E+00	 0.00000000E+00	 0.00000000E+00	 9.50775000E-06	 0.00000000E+00	 1.13735000E-05	 0.00000000E+00	 0.00000000E+00	 4.56004000E-05	 0.00000000E+00	 0.00000000E+00	 3.73410000E-04	 0.00000000E+00	 8.69999000E-04
					-2.32625000E-04	-4.13675000E-04	 6.46300000E-04	-8.59499000E-05	-1.42426000E-04	-1.59885000E-04	 5.98870000E-01	 4.56896000E+00	 0.00000000E+00	 0.00000000E+00	 0.00000000E+00	 0.00000000E+00	 0.00000000E+00	 3.95644000E-01	 0.00000000E+00	 4.78020000E-01	 0.00000000E+00	 0.00000000E+00	 9.26402000E-01	 0.00000000E+00	 0.00000000E+00	 6.71137000E+00	 0.00000000E+00	 1.36450000E+01	 2.65929000E+00	 1.87969000E+01	 0.00000000E+00	 0.00000000E+00	 0.00000000E+00	 0.00000000E+00	 0.00000000E+00	 1.76456000E+00	 0.00000000E+00	 2.12813000E+00	 0.00000000E+00	 0.00000000E+00	 3.99742000E+00	 0.00000000E+00	 0.00000000E+00	 2.36148000E+01	 0.00000000E+00	 3.98455000E+01	 1.50782000E-05	 1.20182000E-04	 0.00000000E+00	 0.00000000E+00	 0.00000000E+00	 0.00000000E+00	 0.00000000E+00	 9.93809000E-06	 0.00000000E+00	 1.20188000E-05	 0.00000000E+00	 0.00000000E+00	 4.71327000E-05	 0.00000000E+00	 0.00000000E+00	 3.79130000E-04	 0.00000000E+00	 8.86740000E-04
					-2.22286000E-04	-3.94877000E-04	 6.17162000E-04	-8.28134000E-05	-1.33682000E-04	-1.51775000E-04	 5.63126000E-01	 4.48474000E+00	 0.00000000E+00	 0.00000000E+00	 0.00000000E+00	 0.00000000E+00	 0.00000000E+00	 4.11949000E-01	 0.00000000E+00	 4.53715000E-01	 0.00000000E+00	 0.00000000E+00	 8.10703000E-01	 0.00000000E+00	 0.00000000E+00	 6.39966000E+00	 0.00000000E+00	 1.31726000E+01	 2.50237000E+00	 1.84753000E+01	 0.00000000E+00	 0.00000000E+00	 0.00000000E+00	 0.00000000E+00	 0.00000000E+00	 1.83656000E+00	 0.00000000E+00	 2.02094000E+00	 0.00000000E+00	 0.00000000E+00	 3.51484000E+00	 0.00000000E+00	 0.00000000E+00	 2.27266000E+01	 0.00000000E+00	 3.88807000E+01	 1.41727000E-05	 1.17871000E-04	 0.00000000E+00	 0.00000000E+00	 0.00000000E+00	 0.00000000E+00	 0.00000000E+00	 1.03498000E-05	 0.00000000E+00	 1.14047000E-05	 0.00000000E+00	 0.00000000E+00	 4.11628000E-05	 0.00000000E+00	 0.00000000E+00	 3.59527000E-04	 0.00000000E+00	 8.47932000E-04
					-2.37207000E-04	-4.21341000E-04	 6.58548000E-04	-8.76422000E-05	-1.44609000E-04	-1.62670000E-04	 6.17085000E-01	 4.67177000E+00	 0.00000000E+00	 0.00000000E+00	 0.00000000E+00	 0.00000000E+00	 0.00000000E+00	 4.18894000E-01	 0.00000000E+00	 4.92542000E-01	 0.00000000E+00	 0.00000000E+00	 9.32830000E-01	 0.00000000E+00	 0.00000000E+00	 6.81759000E+00	 0.00000000E+00	 1.38426000E+01	 2.73916000E+00	 1.91840000E+01	 0.00000000E+00	 0.00000000E+00	 0.00000000E+00	 0.00000000E+00	 0.00000000E+00	 1.86725000E+00	 0.00000000E+00	 2.19209000E+00	 0.00000000E+00	 0.00000000E+00	 4.02459000E+00	 0.00000000E+00	 0.00000000E+00	 2.39167000E+01	 0.00000000E+00	 4.02410000E+01	 1.55399000E-05	 1.23027000E-04	 0.00000000E+00	 0.00000000E+00	 0.00000000E+00	 0.00000000E+00	 0.00000000E+00	 1.05251000E-05	 0.00000000E+00	 1.23860000E-05	 0.00000000E+00	 0.00000000E+00	 4.74626000E-05	 0.00000000E+00	 0.00000000E+00	 3.85825000E-04	 0.00000000E+00	 9.03270000E-04
					-2.32625000E-04	-4.13675000E-04	 6.46300000E-04	-8.59500000E-05	-1.42426000E-04	-1.59885000E-04	 5.98870000E-01	 4.56896000E+00	 0.00000000E+00	 0.00000000E+00	 0.00000000E+00	 0.00000000E+00	 0.00000000E+00	 3.95644000E-01	 0.00000000E+00	 4.78020000E-01	 0.00000000E+00	 0.00000000E+00	 9.26402000E-01	 0.00000000E+00	 0.00000000E+00	 6.71137000E+00	 0.00000000E+00	 1.36450000E+01	 2.65929000E+00	 1.87969000E+01	 0.00000000E+00	 0.00000000E+00	 0.00000000E+00	 0.00000000E+00	 0.00000000E+00	 1.76456000E+00	 0.00000000E+00	 2.12813000E+00	 0.00000000E+00	 0.00000000E+00	 3.99742000E+00	 0.00000000E+00	 0.00000000E+00	 2.36148000E+01	 0.00000000E+00	 3.98455000E+01	 1.50782000E-05	 1.20182000E-04	 0.00000000E+00	 0.00000000E+00	 0.00000000E+00	 0.00000000E+00	 0.00000000E+00	 9.93809000E-06	 0.00000000E+00	 1.20188000E-05	 0.00000000E+00	 0.00000000E+00	 4.71327000E-05	 0.00000000E+00	 0.00000000E+00	 3.79130000E-04	 0.00000000E+00	 8.86740000E-04
					-2.22286000E-04	-3.94877000E-04	 6.17162000E-04	-8.28134000E-05	-1.33682000E-04	-1.51775000E-04	 5.63126000E-01	 4.48474000E+00	 0.00000000E+00	 0.00000000E+00	 0.00000000E+00	 0.00000000E+00	 0.00000000E+00	 4.11949000E-01	 0.00000000E+00	 4.53715000E-01	 0.00000000E+00	 0.00000000E+00	 8.10703000E-01	 0.00000000E+00	 0.00000000E+00	 6.39966000E+00	 0.00000000E+00	 1.31726000E+01	 2.50237000E+00	 1.84753000E+01	 0.00000000E+00	 0.00000000E+00	 0.00000000E+00	 0.00000000E+00	 0.00000000E+00	 1.83656000E+00	 0.00000000E+00	 2.02094000E+00	 0.00000000E+00	 0.00000000E+00	 3.51484000E+00	 0.00000000E+00	 0.00000000E+00	 2.27266000E+01	 0.00000000E+00	 3.88807000E+01	 1.41727000E-05	 1.17871000E-04	 0.00000000E+00	 0.00000000E+00	 0.00000000E+00	 0.00000000E+00	 0.00000000E+00	 1.03498000E-05	 0.00000000E+00	 1.14047000E-05	 0.00000000E+00	 0.00000000E+00	 4.11628000E-05	 0.00000000E+00	 0.00000000E+00	 3.59527000E-04	 0.00000000E+00	 8.47932000E-04
					-2.19983000E-04	-3.92918000E-04	 6.12902000E-04	-8.10870000E-05	-1.34392000E-04	-1.52377000E-04	 5.59326000E-01	 4.34867000E+00	 0.00000000E+00	 0.00000000E+00	 0.00000000E+00	 0.00000000E+00	 0.00000000E+00	 3.63473000E-01	 0.00000000E+00	 4.23780000E-01	 0.00000000E+00	 0.00000000E+00	 8.41946000E-01	 0.00000000E+00	 0.00000000E+00	 6.43892000E+00	 0.00000000E+00	 1.30881000E+01	 2.48570000E+00	 1.79613000E+01	 0.00000000E+00	 0.00000000E+00	 0.00000000E+00	 0.00000000E+00	 0.00000000E+00	 1.62229000E+00	 0.00000000E+00	 1.88892000E+00	 0.00000000E+00	 0.00000000E+00	 3.64514000E+00	 0.00000000E+00	 0.00000000E+00	 2.28322000E+01	 0.00000000E+00	 3.87176000E+01	 1.40764000E-05	 1.14114000E-04	 0.00000000E+00	 0.00000000E+00	 0.00000000E+00	 0.00000000E+00	 0.00000000E+00	 9.12636000E-06	 0.00000000E+00	 1.06482000E-05	 0.00000000E+00	 0.00000000E+00	 4.27749000E-05	 0.00000000E+00	 0.00000000E+00	 3.62067000E-04	 0.00000000E+00	 8.40701000E-04
					-2.12126000E-04	-3.79046000E-04	 5.91172000E-04	-7.79956000E-05	-1.29501000E-04	-1.46997000E-04	 5.29638000E-01	 4.22029000E+00	 0.00000000E+00	 0.00000000E+00	 0.00000000E+00	 0.00000000E+00	 0.00000000E+00	 3.42401000E-01	 0.00000000E+00	 4.04670000E-01	 0.00000000E+00	 0.00000000E+00	 8.07481000E-01	 0.00000000E+00	 0.00000000E+00	 6.23726000E+00	 0.00000000E+00	 1.27208000E+01	 2.35527000E+00	 1.74723000E+01	 0.00000000E+00	 0.00000000E+00	 0.00000000E+00	 0.00000000E+00	 0.00000000E+00	 1.52907000E+00	 0.00000000E+00	 1.80451000E+00	 0.00000000E+00	 0.00000000E+00	 3.50079000E+00	 0.00000000E+00	 0.00000000E+00	 2.22517000E+01	 0.00000000E+00	 3.79635000E+01	 1.33247000E-05	 1.10587000E-04	 0.00000000E+00	 0.00000000E+00	 0.00000000E+00	 0.00000000E+00	 0.00000000E+00	 8.59474000E-06	 0.00000000E+00	 1.01657000E-05	 0.00000000E+00	 0.00000000E+00	 4.09997000E-05	 0.00000000E+00	 0.00000000E+00	 3.49459000E-04	 0.00000000E+00	 8.10755000E-04
					-2.23222000E-04	-3.96917000E-04	 6.20139000E-04	-8.36312000E-05	-1.35413000E-04	-1.52647000E-04	 5.63241000E-01	 4.45414000E+00	 0.00000000E+00	 0.00000000E+00	 0.00000000E+00	 0.00000000E+00	 0.00000000E+00	 3.97543000E-01	 0.00000000E+00	 4.57136000E-01	 0.00000000E+00	 0.00000000E+00	 8.41016000E-01	 0.00000000E+00	 0.00000000E+00	 6.42091000E+00	 0.00000000E+00	 1.32360000E+01	 2.50288000E+00	 1.83603000E+01	 0.00000000E+00	 0.00000000E+00	 0.00000000E+00	 0.00000000E+00	 0.00000000E+00	 1.77291000E+00	 0.00000000E+00	 2.03603000E+00	 0.00000000E+00	 0.00000000E+00	 3.64141000E+00	 0.00000000E+00	 0.00000000E+00	 2.27868000E+01	 0.00000000E+00	 3.90085000E+01	 1.41756000E-05	 1.17023000E-04	 0.00000000E+00	 0.00000000E+00	 0.00000000E+00	 0.00000000E+00	 0.00000000E+00	 9.98614000E-06	 0.00000000E+00	 1.14911000E-05	 0.00000000E+00	 0.00000000E+00	 4.27261000E-05	 0.00000000E+00	 0.00000000E+00	 3.60866000E-04	 0.00000000E+00	 8.53190000E-04
					-2.30259000E-04	-4.10035000E-04	 6.40295000E-04	-8.53536000E-05	-1.41068000E-04	-1.58559000E-04	 5.91452000E-01	 4.51853000E+00	 0.00000000E+00	 0.00000000E+00	 0.00000000E+00	 0.00000000E+00	 0.00000000E+00	 3.88854000E-01	 0.00000000E+00	 4.65887000E-01	 0.00000000E+00	 0.00000000E+00	 9.09094000E-01	 0.00000000E+00	 0.00000000E+00	 6.65851000E+00	 0.00000000E+00	 1.35534000E+01	 2.62673000E+00	 1.86057000E+01	 0.00000000E+00	 0.00000000E+00	 0.00000000E+00	 0.00000000E+00	 0.00000000E+00	 1.73452000E+00	 0.00000000E+00	 2.07466000E+00	 0.00000000E+00	 0.00000000E+00	 3.92541000E+00	 0.00000000E+00	 0.00000000E+00	 2.34634000E+01	 0.00000000E+00	 3.96618000E+01	 1.48902000E-05	 1.18793000E-04	 0.00000000E+00	 0.00000000E+00	 0.00000000E+00	 0.00000000E+00	 0.00000000E+00	 9.76680000E-06	 0.00000000E+00	 1.17121000E-05	 0.00000000E+00	 0.00000000E+00	 4.62387000E-05	 0.00000000E+00	 0.00000000E+00	 3.75815000E-04	 0.00000000E+00	 8.79098000E-04
					-2.23306000E-04	-3.98127000E-04	 6.21433000E-04	-8.30456000E-05	-1.37889000E-04	-1.54035000E-04	 5.61554000E-01	 4.35920000E+00	 0.00000000E+00	 0.00000000E+00	 0.00000000E+00	 0.00000000E+00	 0.00000000E+00	 3.53849000E-01	 0.00000000E+00	 4.49276000E-01	 0.00000000E+00	 0.00000000E+00	 9.05675000E-01	 0.00000000E+00	 0.00000000E+00	 6.47913000E+00	 0.00000000E+00	 1.32543000E+01	 2.49555000E+00	 1.80028000E+01	 0.00000000E+00	 0.00000000E+00	 0.00000000E+00	 0.00000000E+00	 0.00000000E+00	 1.57973000E+00	 0.00000000E+00	 2.00143000E+00	 0.00000000E+00	 0.00000000E+00	 3.91070000E+00	 0.00000000E+00	 0.00000000E+00	 2.29531000E+01	 0.00000000E+00	 3.90593000E+01	 1.41326000E-05	 1.14397000E-04	 0.00000000E+00	 0.00000000E+00	 0.00000000E+00	 0.00000000E+00	 0.00000000E+00	 8.88351000E-06	 0.00000000E+00	 1.12923000E-05	 0.00000000E+00	 0.00000000E+00	 4.60646000E-05	 0.00000000E+00	 0.00000000E+00	 3.64519000E-04	 0.00000000E+00	 8.54211000E-04
					-2.17821000E-04	-3.88486000E-04	 6.06306000E-04	-8.05607000E-05	-1.33957000E-04	-1.50389000E-04	 5.43734000E-01	 4.28827000E+00	 0.00000000E+00	 0.00000000E+00	 0.00000000E+00	 0.00000000E+00	 0.00000000E+00	 3.45493000E-01	 0.00000000E+00	 4.32144000E-01	 0.00000000E+00	 0.00000000E+00	 8.67447000E-01	 0.00000000E+00	 0.00000000E+00	 6.35092000E+00	 0.00000000E+00	 1.29896000E+01	 2.41724000E+00	 1.77321000E+01	 0.00000000E+00	 0.00000000E+00	 0.00000000E+00	 0.00000000E+00	 0.00000000E+00	 1.54274000E+00	 0.00000000E+00	 1.92582000E+00	 0.00000000E+00	 0.00000000E+00	 3.75138000E+00	 0.00000000E+00	 0.00000000E+00	 2.25828000E+01	 0.00000000E+00	 3.85178000E+01	 1.36815000E-05	 1.12451000E-04	 0.00000000E+00	 0.00000000E+00	 0.00000000E+00	 0.00000000E+00	 0.00000000E+00	 8.67277000E-06	 0.00000000E+00	 1.08595000E-05	 0.00000000E+00	 0.00000000E+00	 4.40914000E-05	 0.00000000E+00	 0.00000000E+00	 3.56519000E-04	 0.00000000E+00	 8.32573000E-04
				</DataArray>
			</PointData>
		</Piece>
	</UnstructuredGrid>
</VTKFile>