<?xml version="1.0"?>
<VTKFile type="UnstructuredGrid" version="0.1" byte_order="LittleEndian">
	<UnstructuredGrid>
		<Piece NumberOfPoints="41" NumberOfCells="20">
			<Points>
				<DataArray type="Float64" NumberOfComponents="3" format="ascii">
					 0.00000000E+00	 0.00000000E+00	 0.00000000E+00
					 1.00000000E-01	 0.00000000E+00	 0.00000000E+00
					 5.00000000E-02	 0.00000000E+00	 0.00000000E+00
					 2.00000000E-01	 0.00000000E+00	 0.00000000E+00
					 1.50000000E-01	 0.00000000E+00	 0.00000000E+00
					 3.00000000E-01	 0.00000000E+00	 0.00000000E+00
					 2.50000000E-01	 0.00000000E+00	 0.00000000E+00
					 4.00000000E-01	 0.00000000E+00	 0.00000000E+00
					 3.50000000E-01	 0.00000000E+00	 0.00000000E+00
					 5.00000000E-01	 0.00000000E+00	 0.00000000E+00
					 4.50000000E-01	 0.00000000E+00	 0.00000000E+00
					 6.00000000E-01	 0.00000000E+00	 0.00000000E+00
					 5.50000000E-01	 0.00000000E+00	 0.00000000E+00
					 7.00000000E-01	 0.00000000E+00	 0.00000000E+00
					 6.50000000E-01	 0.00000000E+00	 0.00000000E+00
					 8.00000000E-01	 0.00000000E+00	 0.00000000E+00
					 7.50000000E-01	 0.00000000E+00	 0.00000000E+00
					 9.00000000E-01	 0.00000000E+00	 0.00000000E+00
					 8.50000000E-01	 0.00000000E+00	 0.00000000E+00
					 1.00000000E+00	 0.00000000E+00	 0.00000000E+00
					 9.50000000E-01	 0.00000000E+00	 0.00000000E+00
					 1.10000000E+00	 0.00000000E+00	 0.00000000E+00
					 1.05000000E+00	 0.00000000E+00	 0.00000000E+00
					 1.20000000E+00	 0.00000000E+00	 0.00000000E+00
					 1.15000000E+00	 0.00000000E+00	 0.00000000E+00
					 1.30000000E+00	 0.00000000E+00	 0.00000000E+00
					 1.25000000E+00	 0.00000000E+00	 0.00000000E+00
					 1.40000000E+00	 0.00000000E+00	 0.00000000E+00
					 1.35000000E+00	 0.00000000E+00	 0.00000000E+00
					 1.50000000E+00	 0.00000000E+00	 0.00000000E+00
					 1.45000000E+00	 0.00000000E+00	 0.00000000E+00
					 1.60000000E+00	 0.00000000E+00	 0.00000000E+00
					 1.55000000E+00	 0.00000000E+00	 0.00000000E+00
					 1.70000000E+00	 0.00000000E+00	 0.00000000E+00
					 1.65000000E+00	 0.00000000E+00	 0.00000000E+00
					 1.80000000E+00	 0.00000000E+00	 0.00000000E+00
					 1.75000000E+00	 0.00000000E+00	 0.00000000E+00
					 1.90000000E+00	 0.00000000E+00	 0.00000000E+00
					 1.85000000E+00	 0.00000000E+00	 0.00000000E+00
					 2.00000000E+00	 0.00000000E+00	 0.00000000E+00
					 1.95000000E+00	 0.00000000E+00	 0.00000000E+00

				</DataArray>
			</Points>
			<Cells>
				<DataArray type="Int32" Name="connectivity" format="ascii">
					0 1 2 1 3 4 3 5 6 5 7 8 7 9 10 9 11 12 11 13 14 13 15 16 15 17 18 17 19 20 19 21 22 21 23 24 23 25 26 25 27 28 27 29 30 29 31 32 31 33 34 33 35 36 35 37 38 37 39 40 
				</DataArray>
				<DataArray type="Int32" Name="offsets" format="ascii">
					3 6 9 12 15 18 21 24 27 30 33 36 39 42 45 48 51 54 57 60 
				</DataArray>
				<DataArray type="UInt8" Name="types" format="ascii">
					21 21 21 21 21 21 21 21 21 21 21 21 21 21 21 21 21 21 21 21 
				</DataArray>
			</Cells>
			<PointData>
				<DataArray type="Float32" Name="U" NumberOfComponents="3" ComponentName0="D1" ComponentName1="D2" ComponentName2="D3" format="ascii">
					 0.00000000E+00	 0.00000000E+00	 0.00000000E+00
					-1.55009000E-06	 0.00000000E+00	 5.57387000E-04
					-7.78932000E-07	 0.00000000E+00	 2.79393000E-04
					-3.03896000E-06	 0.00000000E+00	 1.10361000E-03
					-2.30593000E-06	 0.00000000E+00	 8.32594000E-04
					-4.40910000E-06	 0.00000000E+00	 1.62752000E-03
					-3.74226000E-06	 0.00000000E+00	 1.36906000E-03
					-5.61051000E-06	 0.00000000E+00	 2.11795000E-03
					-5.03369000E-06	 0.00000000E+00	 1.87762000E-03
					-6.60437000E-06	 0.00000000E+00	 2.56373000E-03
					-6.13534000E-06	 0.00000000E+00	 2.34711000E-03
					-7.36682000E-06	 0.00000000E+00	 2.95371000E-03
					-7.01542000E-06	 0.00000000E+00	 2.76639000E-03
					-7.89267000E-06	 0.00000000E+00	 3.27672000E-03
					-7.65892000E-06	 0.00000000E+00	 3.12429000E-03
					-8.19917000E-06	 0.00000000E+00	 3.52164000E-03
					-8.07140000E-06	 0.00000000E+00	 3.40964000E-03
					-8.32971000E-06	 0.00000000E+00	 3.67717000E-03
					-8.28273000E-06	 0.00000000E+00	 3.61126000E-03
					-8.35766000E-06	 0.00000000E+00	 3.73266000E-03
					-8.35079000E-06	 0.00000000E+00	 3.71814000E-03
					-8.38561000E-06	 0.00000000E+00	 3.67717000E-03
					-8.36453000E-06	 0.00000000E+00	 3.71814000E-03
					-8.51615000E-06	 0.00000000E+00	 3.52164000E-03
					-8.43258000E-06	 0.00000000E+00	 3.61126000E-03
					-8.82265000E-06	 0.00000000E+00	 3.27672000E-03
					-8.64391000E-06	 0.00000000E+00	 3.40964000E-03
					-9.34850000E-06	 0.00000000E+00	 2.95371000E-03
					-9.05640000E-06	 0.00000000E+00	 3.12429000E-03
					-1.01109000E-05	 0.00000000E+00	 2.56373000E-03
					-9.69990000E-06	 0.00000000E+00	 2.76639000E-03
					-1.11048000E-05	 0.00000000E+00	 2.11795000E-03
					-1.05800000E-05	 0.00000000E+00	 2.34711000E-03
					-1.23062000E-05	 0.00000000E+00	 1.62752000E-03
					-1.16816000E-05	 0.00000000E+00	 1.87762000E-03
					-1.36764000E-05	 0.00000000E+00	 1.10361000E-03
					-1.29731000E-05	 0.00000000E+00	 1.36906000E-03
					-1.51652000E-05	 0.00000000E+00	 5.57387000E-04
					-1.44094000E-05	 0.00000000E+00	 8.32594000E-04
					-1.67153000E-05	 0.00000000E+00	 0.00000000E+00
					-1.59364000E-05	 0.00000000E+00	 2.79393000E-04
				</DataArray>
				<DataArray type="Float32" Name="S" NumberOfComponents="10" ComponentName0="xx" ComponentName1="yy" ComponentName2="zz" ComponentName3="xy" ComponentName4="yz" ComponentName5="zx" ComponentName6="Mises" ComponentName7="Min Principal" ComponentName8="Mid Principal" ComponentName9="Max Principal" format="ascii">
					 0.00000000E+00	 7.72391000E-03	 2.87858000E-05	 0.00000000E+00	 2.29249000E-05	 0.00000000E+00	 7.70965966E-03	 0.00000000E+00	 2.87175040E-05	 7.72397830E-03
					 0.00000000E+00	 7.73975000E-03	 2.94363000E-05	 0.00000000E+00	 4.97874000E-04	 0.00000000E+00	 7.77305619E-03	-2.57971186E-06	 0.00000000E+00	 7.77176601E-03
					 0.00000000E+00	 7.73183000E-03	 2.91110000E-05	 0.00000000E+00	 2.60399000E-04	 0.00000000E+00	 7.73048409E-03	 0.00000000E+00	 2.03179593E-05	 7.74062304E-03
					 0.00000000E+00	 7.75707000E-03	 3.14105000E-05	 0.00000000E+00	 9.99844000E-04	 0.00000000E+00	 7.93275061E-03	-9.58902869E-05	 0.00000000E+00	 7.88437079E-03
					 0.00000000E+00	 7.74841000E-03	 3.04234000E-05	 0.00000000E+00	 7.48859000E-04	 0.00000000E+00	 7.84126390E-03	-4.15652500E-05	 0.00000000E+00	 7.82039865E-03
					 0.00000000E+00	 7.75864000E-03	 3.47083000E-05	 0.00000000E+00	 1.49995000E-03	 0.00000000E+00	 8.16565736E-03	-2.46347722E-04	 0.00000000E+00	 8.03969602E-03
					 0.00000000E+00	 7.75786000E-03	 3.30594000E-05	 0.00000000E+00	 1.24990000E-03	 0.00000000E+00	 8.03839316E-03	-1.64144479E-04	 0.00000000E+00	 7.95506388E-03
					 0.00000000E+00	 7.75887000E-03	 3.93517000E-05	 0.00000000E+00	 1.99998000E-03	 0.00000000E+00	 8.47915370E-03	-4.48033120E-04	 0.00000000E+00	 8.24625482E-03
					 0.00000000E+00	 7.75876000E-03	 3.70300000E-05	 0.00000000E+00	 1.74997000E-03	 0.00000000E+00	 8.31261728E-03	-3.41052222E-04	 0.00000000E+00	 8.13684222E-03
					 0.00000000E+00	 7.75866000E-03	 4.53529000E-05	 0.00000000E+00	 2.49998000E-03	 0.00000000E+00	 8.86547710E-03	-6.94043659E-04	 0.00000000E+00	 8.49805656E-03
					 0.00000000E+00	 7.75876000E-03	 4.23523000E-05	 0.00000000E+00	 2.24998000E-03	 0.00000000E+00	 8.66364699E-03	-5.65778695E-04	 0.00000000E+00	 8.36689100E-03
					 0.00000000E+00	 7.75971000E-03	 5.27475000E-05	 0.00000000E+00	 2.99998000E-03	 0.00000000E+00	 9.31698536E-03	-9.77335291E-04	 0.00000000E+00	 8.78979279E-03
					 0.00000000E+00	 7.75918000E-03	 4.90502000E-05	 0.00000000E+00	 2.74998000E-03	 0.00000000E+00	 9.08371405E-03	-8.31274576E-04	 0.00000000E+00	 8.63950478E-03
					 0.00000000E+00	 7.75534000E-03	 6.14799000E-05	 0.00000000E+00	 3.49999000E-03	 0.00000000E+00	 9.81947406E-03	-1.29243621E-03	 0.00000000E+00	 9.10925611E-03
					 0.00000000E+00	 7.75752000E-03	 5.71137000E-05	 0.00000000E+00	 3.24998000E-03	 0.00000000E+00	 9.56171678E-03	-1.13117839E-03	 0.00000000E+00	 8.94581209E-03
					 0.00000000E+00	 7.77087000E-03	 7.18072000E-05	 0.00000000E+00	 4.00022000E-03	 0.00000000E+00	 1.03845487E-02	-1.63029648E-03	 0.00000000E+00	 9.47297368E-03
					 0.00000000E+00	 7.76310000E-03	 6.66435000E-05	 0.00000000E+00	 3.75011000E-03	 0.00000000E+00	 1.00966716E-02	-1.45841269E-03	 0.00000000E+00	 9.28815619E-03
					 0.00000000E+00	 7.68924000E-03	 8.36896000E-05	 0.00000000E+00	 4.50119000E-03	 0.00000000E+00	 1.09210824E-02	-2.00605679E-03	 0.00000000E+00	 9.77898639E-03
					 0.00000000E+00	 7.73006000E-03	 7.77484000E-05	 0.00000000E+00	 4.25071000E-03	 0.00000000E+00	 1.06472757E-02	-1.81518696E-03	 0.00000000E+00	 9.62299536E-03
					 0.00000000E+00	 0.00000000E+00	 8.50633000E-05	 0.00000000E+00	 4.97871000E-03	 0.00000000E+00	 8.62379821E-03	-4.93636001E-03	 0.00000000E+00	 5.02142331E-03
					 0.00000000E+00	 3.84462000E-03	 8.43764000E-05	 0.00000000E+00	 4.73995000E-03	 0.00000000E+00	 9.04793928E-03	-3.13471586E-03	 0.00000000E+00	 7.06371226E-03
					 0.00000000E+00	-7.68924000E-03	 8.36896000E-05	 0.00000000E+00	 4.50119000E-03	 0.00000000E+00	 1.09798479E-02	-9.74965001E-03	 0.00000000E+00	 2.14409961E-03
					 0.00000000E+00	-3.84462000E-03	 8.43764000E-05	 0.00000000E+00	 4.73995000E-03	 0.00000000E+00	 9.08372146E-03	-7.01104561E-03	 0.00000000E+00	 3.25080201E-03
					 0.00000000E+00	-7.77087000E-03	 7.18072000E-05	 0.00000000E+00	 4.00022000E-03	 0.00000000E+00	 1.04381445E-02	-9.45119691E-03	 0.00000000E+00	 1.75213411E-03
					 0.00000000E+00	-7.73006000E-03	 7.77484000E-05	 0.00000000E+00	 4.25071000E-03	 0.00000000E+00	 1.07035732E-02	-9.59755108E-03	 0.00000000E+00	 1.94523948E-03
					 0.00000000E+00	-7.75534000E-03	 6.14799000E-05	 0.00000000E+00	 3.49999000E-03	 0.00000000E+00	 9.86791091E-03	-9.09341443E-03	 0.00000000E+00	 1.39955433E-03
					 0.00000000E+00	-7.76310000E-03	 6.66435000E-05	 0.00000000E+00	 3.75011000E-03	 0.00000000E+00	 1.01477829E-02	-9.26944083E-03	 0.00000000E+00	 1.57298433E-03
					 0.00000000E+00	-7.75971000E-03	 5.27475000E-05	 0.00000000E+00	 2.99998000E-03	 0.00000000E+00	 9.36081337E-03	-8.77877343E-03	 0.00000000E+00	 1.07181093E-03
					 0.00000000E+00	-7.75752000E-03	 5.71137000E-05	 0.00000000E+00	 3.24998000E-03	 0.00000000E+00	 9.60794199E-03	-8.93247577E-03	 0.00000000E+00	 1.23206947E-03
					 0.00000000E+00	-7.75866000E-03	 4.53529000E-05	 0.00000000E+00	 2.49998000E-03	 0.00000000E+00	 8.90507943E-03	-8.49082600E-03	 0.00000000E+00	 7.77518904E-04
					 0.00000000E+00	-7.75918000E-03	 4.90502000E-05	 0.00000000E+00	 2.74998000E-03	 0.00000000E+00	 9.12551585E-03	-8.63047114E-03	 0.00000000E+00	 9.20341336E-04
					 0.00000000E+00	-7.75887000E-03	 3.93517000E-05	 0.00000000E+00	 1.99998000E-03	 0.00000000E+00	 8.51508643E-03	-8.24188026E-03	 0.00000000E+00	 5.22361960E-04
					 0.00000000E+00	-7.75876000E-03	 4.23523000E-05	 0.00000000E+00	 2.24998000E-03	 0.00000000E+00	 8.70149308E-03	-8.36117490E-03	 0.00000000E+00	 6.44767200E-04
					 0.00000000E+00	-7.75864000E-03	 3.47083000E-05	 0.00000000E+00	 1.49995000E-03	 0.00000000E+00	 8.19856930E-03	-8.03736037E-03	 0.00000000E+00	 3.13428674E-04
					 0.00000000E+00	-7.75876000E-03	 3.70300000E-05	 0.00000000E+00	 1.74997000E-03	 0.00000000E+00	 8.34710847E-03	-8.13356677E-03	 0.00000000E+00	 4.11836772E-04
					 0.00000000E+00	-7.75707000E-03	 3.14105000E-05	 0.00000000E+00	 9.99844000E-04	 0.00000000E+00	 7.96340625E-03	-7.88337637E-03	 0.00000000E+00	 1.57716873E-04
					 0.00000000E+00	-7.75786000E-03	 3.30594000E-05	 0.00000000E+00	 1.24990000E-03	 0.00000000E+00	 8.07023574E-03	-7.95347061E-03	 0.00000000E+00	 2.28670010E-04
					 0.00000000E+00	-7.73975000E-03	 2.94363000E-05	 0.00000000E+00	 4.97874000E-04	 0.00000000E+00	 7.80231131E-03	-7.77152538E-03	 0.00000000E+00	 6.12116798E-05
					 0.00000000E+00	-7.74841000E-03	 3.04234000E-05	 0.00000000E+00	 7.48859000E-04	 0.00000000E+00	 7.87126962E-03	-7.81984574E-03	 0.00000000E+00	 1.01859142E-04
					 0.00000000E+00	-7.72391000E-03	 2.87858000E-05	 0.00000000E+00	 2.29249000E-05	 0.00000000E+00	 7.73844493E-03	-7.72397779E-03	 0.00000000E+00	 2.88535889E-05
					 0.00000000E+00	-7.73183000E-03	 2.91110000E-05	 0.00000000E+00	 2.60399000E-04	 0.00000000E+00	 7.75954553E-03	-7.74055722E-03	 0.00000000E+00	 3.78382245E-05
				</DataArray>
			</PointData>
		</Piece>
	</UnstructuredGrid>
</VTKFile>