    1C
    1UModel: segment                                                    
    1UUSER                                                              
    1UDATE              01.august.2019                                  
    1UTIME              09:55:58                                        
    1UHOST                                                              
    1UPGM               CalculiX                                        
    1UVERSION           Version 2.15                             
    1UCOMPILETIME       Fri 15 Mar 11:57:46 CET 2019                    
    1UDIR                                                               
    1UDBN                                                               
    1UMAT    1EL                                                        
    2C                            81                                     1
 -1         1 1.00000E+00 1.00000E+00 0.00000E+00
 -1         2 1.00000E+00 5.50000E-01 0.00000E+00
 -1         3 1.00000E+00 5.31259E-01 1.42350E-01
 -1         4 1.00000E+00 9.65926E-01 2.58819E-01
 -1         5 5.00000E-01 1.00000E+00 0.00000E+00
 -1         6 5.00000E-01 5.50000E-01 0.00000E+00
 -1         7 5.00000E-01 5.31259E-01 1.42350E-01
 -1         8 5.00000E-01 9.65926E-01 2.58819E-01
 -1         9 1.00000E+00 7.75000E-01 0.00000E+00
 -1        10 1.00000E+00 5.45295E-01 7.17894E-02
 -1        11 1.00000E+00 7.48592E-01 2.00585E-01
 -1        12 1.00000E+00 9.91445E-01 1.30526E-01
 -1        13 7.50000E-01 1.00000E+00 0.00000E+00
 -1        14 7.50000E-01 5.50000E-01 0.00000E+00
 -1        15 7.50000E-01 5.31259E-01 1.42350E-01
 -1        16 7.50000E-01 9.65926E-01 2.58819E-01
 -1        17 5.00000E-01 7.75000E-01 0.00000E+00
 -1        18 5.00000E-01 5.45295E-01 7.17894E-02
 -1        19 5.00000E-01 7.48592E-01 2.00585E-01
 -1        20 5.00000E-01 9.91445E-01 1.30526E-01
 -1        21 1.00000E+00 1.00000E-01 0.00000E+00
 -1        22 1.00000E+00 9.65926E-02 2.58819E-02
 -1        23 5.00000E-01 1.00000E-01 0.00000E+00
 -1        24 5.00000E-01 9.65926E-02 2.58819E-02
 -1        25 1.00000E+00 3.25000E-01 0.00000E+00
 -1        26 1.00000E+00 9.91445E-02 1.30526E-02
 -1        27 1.00000E+00 3.13926E-01 8.41162E-02
 -1        28 7.50000E-01 1.00000E-01 0.00000E+00
 -1        29 7.50000E-01 9.65926E-02 2.58819E-02
 -1        30 5.00000E-01 3.25000E-01 0.00000E+00
 -1        31 5.00000E-01 9.91445E-02 1.30526E-02
 -1        32 5.00000E-01 3.13926E-01 8.41162E-02
 -1        33-7.45058E-09 1.00000E+00 0.00000E+00
 -1        34-7.45058E-09 5.50000E-01 0.00000E+00
 -1        35-7.45058E-09 5.31259E-01 1.42350E-01
 -1        36-7.45058E-09 9.65926E-01 2.58819E-01
 -1        37 2.50000E-01 1.00000E+00 0.00000E+00
 -1        38 2.50000E-01 5.50000E-01 0.00000E+00
 -1        39 2.50000E-01 5.31259E-01 1.42350E-01
 -1        40 2.50000E-01 9.65926E-01 2.58819E-01
 -1        41-7.45058E-09 7.75000E-01 0.00000E+00
 -1        42-7.45058E-09 5.45295E-01 7.17894E-02
 -1        43-7.45058E-09 7.48592E-01 2.00585E-01
 -1        44-7.45058E-09 9.91445E-01 1.30526E-01
 -1        45-7.45058E-09 1.00000E-01 0.00000E+00
 -1        46-7.45058E-09 9.65926E-02 2.58819E-02
 -1        47 2.50000E-01 1.00000E-01 0.00000E+00
 -1        48 2.50000E-01 9.65926E-02 2.58819E-02
 -1        49-7.45058E-09 3.25000E-01 0.00000E+00
 -1        50-7.45058E-09 9.91445E-02 1.30526E-02
 -1        51-7.45058E-09 3.13926E-01 8.41162E-02
 -1        52 1.00000E+00 4.76314E-01 2.75000E-01
 -1        53 1.00000E+00 8.66025E-01 5.00000E-01
 -1        54 5.00000E-01 4.76314E-01 2.75000E-01
 -1        55 5.00000E-01 8.66025E-01 5.00000E-01
 -1        56 1.00000E+00 5.08134E-01 2.10476E-01
 -1        57 1.00000E+00 6.71170E-01 3.87500E-01
 -1        58 1.00000E+00 9.23880E-01 3.82683E-01
 -1        59 7.50000E-01 4.76314E-01 2.75000E-01
 -1        60 7.50000E-01 8.66025E-01 5.00000E-01
 -1        61 5.00000E-01 5.08134E-01 2.10476E-01
 -1        62 5.00000E-01 6.71170E-01 3.87500E-01
 -1        63 5.00000E-01 9.23880E-01 3.82683E-01
 -1        64 1.00000E+00 8.66025E-02 5.00000E-02
 -1        65 5.00000E-01 8.66025E-02 5.00000E-02
 -1        66 1.00000E+00 9.23880E-02 3.82683E-02
 -1        67 1.00000E+00 2.81458E-01 1.62500E-01
 -1        68 7.50000E-01 8.66025E-02 5.00000E-02
 -1        69 5.00000E-01 9.23880E-02 3.82683E-02
 -1        70 5.00000E-01 2.81458E-01 1.62500E-01
 -1        71-7.45058E-09 4.76314E-01 2.75000E-01
 -1        72-7.45058E-09 8.66025E-01 5.00000E-01
 -1        73 2.50000E-01 4.76314E-01 2.75000E-01
 -1        74 2.50000E-01 8.66025E-01 5.00000E-01
 -1        75-7.45058E-09 5.08134E-01 2.10476E-01
 -1        76-7.45058E-09 6.71170E-01 3.87500E-01
 -1        77-7.45058E-09 9.23880E-01 3.82683E-01
 -1        78-7.45058E-09 8.66025E-02 5.00000E-02
 -1        79 2.50000E-01 8.66025E-02 5.00000E-02
 -1        80-7.45058E-09 9.23880E-02 3.82683E-02
 -1        81-7.45058E-09 2.81458E-01 1.62500E-01
 -3
    3C                             8                                     1
 -1         1    4    0    1
 -2         1         2         3         4         5         6         7         8         9        10
 -2        11        12        13        14        15        16        17        18        19        20
 -1         2    4    0    1
 -2         2        21        22         3         6        23        24         7        25        26
 -2        27        10        14        28        29        15        30        31        32        18
 -1         3    4    0    1
 -2         5         6         7         8        33        34        35        36        17        18
 -2        19        20        37        38        39        40        41        42        43        44
 -1         4    4    0    1
 -2         6        23        24         7        34        45        46        35        30        31
 -2        32        18        38        47        48        39        49        50        51        42
 -1         5    4    0    1
 -2         4         3        52        53         8         7        54        55        11        56
 -2        57        58        16        15        59        60        19        61        62        63
 -1         6    4    0    1
 -2         3        22        64        52         7        24        65        54        27        66
 -2        67        56        15        29        68        59        32        69        70        61
 -1         7    4    0    1
 -2         8         7        54        55        36        35        71        72        19        61
 -2        62        63        40        39        73        74        43        75        76        77
 -1         8    4    0    1
 -2         7        24        65        54        35        46        78        71        32        69
 -2        70        61        39        48        79        73        51        80        81        75
 -3
 9999
