# vtk DataFile Version 3.0

ASCII
DATASET UNSTRUCTURED_GRID

POINTS 12 double
	 1.00000000E+02	 0.00000000E+00	 0.00000000E+00
	 0.00000000E+00	 0.00000000E+00	 0.00000000E+00
	 0.00000000E+00	 1.00000000E+02	 0.00000000E+00
	 1.00000000E+02	 1.00000000E+02	 0.00000000E+00
	 2.00000000E+02	 1.00000000E+02	 0.00000000E+00
	 2.00000000E+02	 0.00000000E+00	 0.00000000E+00
	 1.00000000E+02	 0.00000000E+00	-1.00000000E+02
	 1.00000000E+02	 1.00000000E+02	-1.00000000E+02
	 0.00000000E+00	 1.00000000E+02	-1.00000000E+02
	 0.00000000E+00	 0.00000000E+00	-1.00000000E+02
	 2.00000000E+02	 0.00000000E+00	-1.00000000E+02
	 2.00000000E+02	 1.00000000E+02	-1.00000000E+02

CELLS 2 18
	8 5 0 3 4 10 6 7 11 
	8 0 1 2 3 6 9 8 7 

CELL_TYPES 2
	12
	12

POINT_DATA 12
FIELD DOR1  Ry 1
	DOR1  Ry 3 12 double
		 2.05714000E-05	 9.11417000E-05	-1.26656000E-05
		 0.00000000E+00	 0.00000000E+00	 0.00000000E+00
		 0.00000000E+00	 0.00000000E+00	 0.00000000E+00
		 2.05714000E-05	-9.11417000E-05	-1.26656000E-05
		 1.27087000E-03	-2.36941000E-04	 3.46046000E-02
		 1.27087000E-03	 2.36941000E-04	 3.46046000E-02
		-2.20031000E-05	-7.84521000E-05	-2.99089000E-05
		-2.20031000E-05	 7.84521000E-05	-2.99089000E-05
		 0.00000000E+00	 0.00000000E+00	 0.00000000E+00
		 0.00000000E+00	 0.00000000E+00	 0.00000000E+00
		-1.20608000E-03	-2.07243000E-04	 3.45678000E-02
		-1.20608000E-03	 2.07243000E-04	 3.45678000E-02
