<?xml version="1.0"?>
<VTKFile type="UnstructuredGrid" version="0.1" byte_order="LittleEndian">
	<UnstructuredGrid>
		<Piece NumberOfPoints="12" NumberOfCells="2">
			<Points>
				<DataArray type="Float64" NumberOfComponents="3" format="ascii">
					 1.00000000E+02	 0.00000000E+00	 0.00000000E+00
					 0.00000000E+00	 0.00000000E+00	 0.00000000E+00
					 0.00000000E+00	 1.00000000E+02	 0.00000000E+00
					 1.00000000E+02	 1.00000000E+02	 0.00000000E+00
					 2.00000000E+02	 1.00000000E+02	 0.00000000E+00
					 2.00000000E+02	 0.00000000E+00	 0.00000000E+00
					 1.00000000E+02	 0.00000000E+00	-1.00000000E+02
					 1.00000000E+02	 1.00000000E+02	-1.00000000E+02
					 0.00000000E+00	 1.00000000E+02	-1.00000000E+02
					 0.00000000E+00	 0.00000000E+00	-1.00000000E+02
					 2.00000000E+02	 0.00000000E+00	-1.00000000E+02
					 2.00000000E+02	 1.00000000E+02	-1.00000000E+02

				</DataArray>
			</Points>
			<Cells>
				<DataArray type="Int32" Name="connectivity" format="ascii">
					5 0 3 4 10 6 7 11 0 1 2 3 6 9 8 7 
				</DataArray>
				<DataArray type="Int32" Name="offsets" format="ascii">
					8 16 
				</DataArray>
				<DataArray type="UInt8" Name="types" format="ascii">
					12 12 
				</DataArray>
			</Cells>
			<PointData>
				<DataArray type="Float32" Name="SOR1  Rz" NumberOfComponents="6" ComponentName0="dSXXdRz" ComponentName1="dSYYdRz" ComponentName2="dSZZdRz" ComponentName3="dSXYdRz" ComponentName4="dSYZdRz" ComponentName5="dSZXdRz" format="ascii">
					 6.97403000E-01	 3.17541000E-01	 1.83992000E-01	 1.23902000E-01	 2.48999000E-01	-9.26072000E-02
					 1.46341000E+00	 4.58648000E-01	 4.58315000E-01	 3.75262000E-01	-1.02379000E-04	-1.29183000E-01
					-1.42912000E+00	-4.47915000E-01	-4.47574000E-01	 3.53523000E-01	-9.08378000E-05	 1.23314000E-01
					-7.53634000E-01	-3.11677000E-01	-1.77576000E-01	 9.77413000E-02	 2.49004000E-01	 8.58684000E-02
					-2.73752000E-01	-3.98268000E-01	-2.73730000E-01	-6.00583000E-01	 3.52079000E-01	 4.87354000E-02
					 9.87874000E-02	 3.16442000E-01	 2.35805000E-01	-5.69960000E-01	 3.52082000E-01	-5.63615000E-02
					 6.97403000E-01	 3.17541000E-01	 1.83992000E-01	 1.23902000E-01	-2.48999000E-01	 9.26072000E-02
					-7.53634000E-01	-3.11677000E-01	-1.77576000E-01	 9.77413000E-02	-2.49004000E-01	-8.58684000E-02
					-1.42912000E+00	-4.47915000E-01	-4.47574000E-01	 3.53523000E-01	 9.08378000E-05	-1.23314000E-01
					 1.46341000E+00	 4.58648000E-01	 4.58315000E-01	 3.75262000E-01	 1.02379000E-04	 1.29183000E-01
					 9.87874000E-02	 3.16442000E-01	 2.35805000E-01	-5.69960000E-01	-3.52082000E-01	 5.63615000E-02
					-2.73752000E-01	-3.98268000E-01	-2.73730000E-01	-6.00583000E-01	-3.52079000E-01	-4.87354000E-02
				</DataArray>
			</PointData>
		</Piece>
	</UnstructuredGrid>
</VTKFile>