<?xml version="1.0"?>
<VTKFile type="UnstructuredGrid" version="0.1" byte_order="LittleEndian">
	<UnstructuredGrid>
		<Piece NumberOfPoints="12" NumberOfCells="2">
			<Points>
				<DataArray type="Float64" NumberOfComponents="3" format="ascii">
					 1.00000000E+02	 0.00000000E+00	 0.00000000E+00
					 0.00000000E+00	 0.00000000E+00	 0.00000000E+00
					 0.00000000E+00	 1.00000000E+02	 0.00000000E+00
					 1.00000000E+02	 1.00000000E+02	 0.00000000E+00
					 2.00000000E+02	 1.00000000E+02	 0.00000000E+00
					 2.00000000E+02	 0.00000000E+00	 0.00000000E+00
					 1.00000000E+02	 0.00000000E+00	-1.00000000E+02
					 1.00000000E+02	 1.00000000E+02	-1.00000000E+02
					 0.00000000E+00	 1.00000000E+02	-1.00000000E+02
					 0.00000000E+00	 0.00000000E+00	-1.00000000E+02
					 2.00000000E+02	 0.00000000E+00	-1.00000000E+02
					 2.00000000E+02	 1.00000000E+02	-1.00000000E+02

				</DataArray>
			</Points>
			<Cells>
				<DataArray type="Int32" Name="connectivity" format="ascii">
					5 0 3 4 10 6 7 11 0 1 2 3 6 9 8 7 
				</DataArray>
				<DataArray type="Int32" Name="offsets" format="ascii">
					8 16 
				</DataArray>
				<DataArray type="UInt8" Name="types" format="ascii">
					12 12 
				</DataArray>
			</Cells>
			<PointData>
				<DataArray type="Float32" Name="SOR1  Rx" NumberOfComponents="6" ComponentName0="dSXXdRx" ComponentName1="dSYYdRx" ComponentName2="dSZZdRx" ComponentName3="dSXYdRx" ComponentName4="dSYZdRx" ComponentName5="dSZXdRx" format="ascii">
					 8.22640000E+00	 2.58090000E+00	 2.58584000E+00	 2.12936000E-02	-3.51106000E+00	 2.49845000E-04
					 1.32269000E+01	 4.14622000E+00	 4.14799000E+00	 5.06147000E+00	 4.51759000E-03	-5.04063000E+00
					-1.32360000E+01	-4.14906000E+00	-4.15080000E+00	 5.04649000E+00	 4.51883000E-03	 5.06290000E+00
					-8.22702000E+00	-2.57872000E+00	-2.57239000E+00	 4.54688000E-03	-3.51106000E+00	 2.42251000E-02
					-3.21503000E+00	-1.01995000E+00	-9.49886000E-01	 1.33419000E-02	 1.31521000E+01	 3.58626000E-02
					 3.22515000E+00	 9.96326000E-01	 1.06562000E+00	 3.18757000E-02	 1.31521000E+01	-9.12318000E-03
					-8.22702000E+00	-2.57872000E+00	-2.57239000E+00	-4.54688000E-03	-3.51106000E+00	-2.42251000E-02
					 8.22640000E+00	 2.58090000E+00	 2.58584000E+00	-2.12936000E-02	-3.51106000E+00	-2.49845000E-04
					 1.32269000E+01	 4.14622000E+00	 4.14799000E+00	-5.06147000E+00	 4.51759000E-03	 5.04063000E+00
					-1.32360000E+01	-4.14906000E+00	-4.15080000E+00	-5.04649000E+00	 4.51883000E-03	-5.06290000E+00
					-3.21503000E+00	-1.01995000E+00	-9.49886000E-01	-1.33419000E-02	 1.31521000E+01	-3.58626000E-02
					 3.22515000E+00	 9.96326000E-01	 1.06562000E+00	-3.18757000E-02	 1.31521000E+01	 9.12318000E-03
				</DataArray>
			</PointData>
		</Piece>
	</UnstructuredGrid>
</VTKFile>