# vtk DataFile Version 3.0

ASCII
DATASET UNSTRUCTURED_GRID

POINTS 12 double
	 1.00000000E+02	 0.00000000E+00	 0.00000000E+00
	 0.00000000E+00	 0.00000000E+00	 0.00000000E+00
	 0.00000000E+00	 1.00000000E+02	 0.00000000E+00
	 1.00000000E+02	 1.00000000E+02	 0.00000000E+00
	 2.00000000E+02	 1.00000000E+02	 0.00000000E+00
	 2.00000000E+02	 0.00000000E+00	 0.00000000E+00
	 1.00000000E+02	 0.00000000E+00	-1.00000000E+02
	 1.00000000E+02	 1.00000000E+02	-1.00000000E+02
	 0.00000000E+00	 1.00000000E+02	-1.00000000E+02
	 0.00000000E+00	 0.00000000E+00	-1.00000000E+02
	 2.00000000E+02	 0.00000000E+00	-1.00000000E+02
	 2.00000000E+02	 1.00000000E+02	-1.00000000E+02

CELLS 2 18
	8 5 0 3 4 10 6 7 11 
	8 0 1 2 3 6 9 8 7 

CELL_TYPES 2
	12
	12

POINT_DATA 12
FIELD SOR1  Rx 1
	SOR1  Rx 6 12 double
		 8.21920000E+00	 2.58530000E+00	 2.59095000E+00	 3.66873000E-04	-3.52171000E+00	 2.02102000E-02
		 1.32154000E+01	 4.15491000E+00	 4.15491000E+00	 5.04502000E+00	-3.40142000E-04	-5.02645000E+00
		-1.32244000E+01	-4.15775000E+00	-4.15775000E+00	 5.03008000E+00	-3.40142000E-04	 5.04865000E+00
		-8.21978000E+00	-2.58311000E+00	-2.57747000E+00	-1.63503000E-02	-3.52171000E+00	 4.22677000E-03
		-3.21400000E+00	-1.02395000E+00	-9.54075000E-01	-1.43911000E-02	 1.31934000E+01	 8.19545000E-03
		 3.22420000E+00	 1.00022000E+00	 1.07010000E+00	 4.10144000E-03	 1.31934000E+01	 1.84851000E-02
		-8.21978000E+00	-2.58311000E+00	-2.57747000E+00	 1.63503000E-02	-3.52171000E+00	-4.22677000E-03
		 8.21920000E+00	 2.58530000E+00	 2.59095000E+00	-3.66873000E-04	-3.52171000E+00	-2.02102000E-02
		 1.32154000E+01	 4.15491000E+00	 4.15491000E+00	-5.04502000E+00	-3.40142000E-04	 5.02645000E+00
		-1.32244000E+01	-4.15775000E+00	-4.15775000E+00	-5.03008000E+00	-3.40142000E-04	-5.04865000E+00
		-3.21400000E+00	-1.02395000E+00	-9.54075000E-01	 1.43911000E-02	 1.31934000E+01	-8.19545000E-03
		 3.22420000E+00	 1.00022000E+00	 1.07010000E+00	-4.10144000E-03	 1.31934000E+01	-1.84851000E-02
