# vtk DataFile Version 3.0

ASCII
DATASET UNSTRUCTURED_GRID

POINTS 12 double
	 1.00000000E+02	 0.00000000E+00	 0.00000000E+00
	 0.00000000E+00	 0.00000000E+00	 0.00000000E+00
	 0.00000000E+00	 1.00000000E+02	 0.00000000E+00
	 1.00000000E+02	 1.00000000E+02	 0.00000000E+00
	 2.00000000E+02	 1.00000000E+02	 0.00000000E+00
	 2.00000000E+02	 0.00000000E+00	 0.00000000E+00
	 1.00000000E+02	 0.00000000E+00	-1.00000000E+02
	 1.00000000E+02	 1.00000000E+02	-1.00000000E+02
	 0.00000000E+00	 1.00000000E+02	-1.00000000E+02
	 0.00000000E+00	 0.00000000E+00	-1.00000000E+02
	 2.00000000E+02	 0.00000000E+00	-1.00000000E+02
	 2.00000000E+02	 1.00000000E+02	-1.00000000E+02

CELLS 2 18
	8 5 0 3 4 10 6 7 11 
	8 0 1 2 3 6 9 8 7 

CELL_TYPES 2
	12
	12

POINT_DATA 12
FIELD SOR1  Rz 1
	SOR1  Rz 6 12 double
		-2.10328000E-01	 1.41492000E-01	 1.56968000E-01	 2.00495000E-01	 1.21672000E-01	-8.09392000E-02
		 7.76562000E-02	 2.44158000E-02	 2.44147000E-02	 2.61099000E-02	 4.31546000E-07	-6.37650000E-02
		-4.33583000E-02	-1.36304000E-02	-1.36305000E-02	 4.43441000E-03	 4.31548000E-07	 5.79063000E-02
		 1.53539000E-01	-1.35682000E-01	-1.50573000E-01	 1.74519000E-01	 1.21672000E-01	 7.42010000E-02
		 4.19892000E-01	-2.15841000E-01	-1.48457000E-01	-4.05449000E-01	 3.10282000E-01	 9.04958000E-02
		-5.95617000E-01	 1.33698000E-01	 1.10334000E-01	-3.75172000E-01	 3.10282000E-01	-9.81134000E-02
		-2.10328000E-01	 1.41492000E-01	 1.56968000E-01	 2.00495000E-01	-1.21672000E-01	 8.09392000E-02
		 1.53539000E-01	-1.35682000E-01	-1.50573000E-01	 1.74519000E-01	-1.21672000E-01	-7.42010000E-02
		-4.33583000E-02	-1.36304000E-02	-1.36305000E-02	 4.43441000E-03	-4.31547000E-07	-5.79063000E-02
		 7.76562000E-02	 2.44158000E-02	 2.44147000E-02	 2.61099000E-02	-4.31551000E-07	 6.37650000E-02
		-5.95617000E-01	 1.33698000E-01	 1.10334000E-01	-3.75172000E-01	-3.10282000E-01	 9.81134000E-02
		 4.19892000E-01	-2.15841000E-01	-1.48457000E-01	-4.05449000E-01	-3.10282000E-01	-9.04958000E-02
