# vtk DataFile Version 3.0

ASCII
DATASET UNSTRUCTURED_GRID

POINTS 12 double
	 1.00000000E+02	 0.00000000E+00	 0.00000000E+00
	 0.00000000E+00	 0.00000000E+00	 0.00000000E+00
	 0.00000000E+00	 1.00000000E+02	 0.00000000E+00
	 1.00000000E+02	 1.00000000E+02	 0.00000000E+00
	 2.00000000E+02	 1.00000000E+02	 0.00000000E+00
	 2.00000000E+02	 0.00000000E+00	 0.00000000E+00
	 1.00000000E+02	 0.00000000E+00	-1.00000000E+02
	 1.00000000E+02	 1.00000000E+02	-1.00000000E+02
	 0.00000000E+00	 1.00000000E+02	-1.00000000E+02
	 0.00000000E+00	 0.00000000E+00	-1.00000000E+02
	 2.00000000E+02	 0.00000000E+00	-1.00000000E+02
	 2.00000000E+02	 1.00000000E+02	-1.00000000E+02

CELLS 2 18
	8 5 0 3 4 10 6 7 11 
	8 0 1 2 3 6 9 8 7 

CELL_TYPES 2
	12
	12

POINT_DATA 12
FIELD DOR1  Ry 1
	DOR1  Ry 3 12 double
		-8.58278000E-03	-1.16039000E-03	 1.51324000E-02
		 0.00000000E+00	 0.00000000E+00	 0.00000000E+00
		 0.00000000E+00	 0.00000000E+00	 0.00000000E+00
		-8.58278000E-03	 1.16039000E-03	 1.51324000E-02
		-1.09961000E-02	 3.08052000E-05	 3.78557000E-02
		-1.09961000E-02	-3.08052000E-05	 3.78557000E-02
		 8.58278000E-03	 1.16039000E-03	 1.51324000E-02
		 8.58278000E-03	-1.16039000E-03	 1.51324000E-02
		 0.00000000E+00	 0.00000000E+00	 0.00000000E+00
		 0.00000000E+00	 0.00000000E+00	 0.00000000E+00
		 1.09961000E-02	 3.08052000E-05	 3.78557000E-02
		 1.09961000E-02	-3.08052000E-05	 3.78557000E-02
