<?xml version="1.0"?>
<VTKFile type="UnstructuredGrid" version="0.1" byte_order="LittleEndian">
	<UnstructuredGrid>
		<Piece NumberOfPoints="12" NumberOfCells="2">
			<Points>
				<DataArray type="Float64" NumberOfComponents="3" format="ascii">
					 1.00000000E+02	 0.00000000E+00	 0.00000000E+00
					 0.00000000E+00	 0.00000000E+00	 0.00000000E+00
					 0.00000000E+00	 1.00000000E+02	 0.00000000E+00
					 1.00000000E+02	 1.00000000E+02	 0.00000000E+00
					 2.00000000E+02	 1.00000000E+02	 0.00000000E+00
					 2.00000000E+02	 0.00000000E+00	 0.00000000E+00
					 1.00000000E+02	 0.00000000E+00	-1.00000000E+02
					 1.00000000E+02	 1.00000000E+02	-1.00000000E+02
					 0.00000000E+00	 1.00000000E+02	-1.00000000E+02
					 0.00000000E+00	 0.00000000E+00	-1.00000000E+02
					 2.00000000E+02	 0.00000000E+00	-1.00000000E+02
					 2.00000000E+02	 1.00000000E+02	-1.00000000E+02

				</DataArray>
			</Points>
			<Cells>
				<DataArray type="Int32" Name="connectivity" format="ascii">
					5 0 3 4 10 6 7 11 0 1 2 3 6 9 8 7 
				</DataArray>
				<DataArray type="Int32" Name="offsets" format="ascii">
					8 16 
				</DataArray>
				<DataArray type="UInt8" Name="types" format="ascii">
					12 12 
				</DataArray>
			</Cells>
			<PointData>
				<DataArray type="Float32" Name="SOR1  Ry" NumberOfComponents="6" ComponentName0="dSXXdRy" ComponentName1="dSYYdRy" ComponentName2="dSZZdRy" ComponentName3="dSXYdRy" ComponentName4="dSYZdRy" ComponentName5="dSZXdRy" format="ascii">
					 1.65837000E+00	 2.94726000E-01	-1.16655000E+00	 1.53760000E-01	 2.64335000E-01	 1.24852000E+00
					 7.82480000E-01	 2.45029000E-01	 2.45321000E-01	 1.41333000E-01	 3.54144000E-07	-1.87118000E-01
					 7.82480000E-01	 2.45029000E-01	 2.45321000E-01	-1.41333000E-01	-3.54142000E-07	-1.87118000E-01
					 1.65837000E+00	 2.94726000E-01	-1.16655000E+00	-1.53760000E-01	-2.64335000E-01	 1.24852000E+00
					 2.47122000E+00	 1.87100000E-01	-2.62237000E+00	-1.66501000E-01	-5.73967000E-01	-2.26742000E+00
					 2.47122000E+00	 1.87100000E-01	-2.62237000E+00	 1.66501000E-01	 5.73967000E-01	-2.26742000E+00
					-1.68734000E+00	-2.91103000E-01	 1.12384000E+00	-1.34991000E-01	 2.64335000E-01	 1.22708000E+00
					-1.68734000E+00	-2.91103000E-01	 1.12384000E+00	 1.34991000E-01	-2.64335000E-01	 1.22708000E+00
					-7.89655000E-01	-2.47290000E-01	-2.47549000E-01	 1.25276000E-01	-1.51748000E-06	-2.08955000E-01
					-7.89655000E-01	-2.47290000E-01	-2.47549000E-01	-1.25276000E-01	 1.51748000E-06	-2.08955000E-01
					-2.53551000E+00	-2.04671000E-01	 2.56530000E+00	-1.44994000E-01	 5.73967000E-01	-2.28852000E+00
					-2.53551000E+00	-2.04671000E-01	 2.56530000E+00	 1.44994000E-01	-5.73967000E-01	-2.28852000E+00
				</DataArray>
			</PointData>
		</Piece>
	</UnstructuredGrid>
</VTKFile>