# vtk DataFile Version 3.0

ASCII
DATASET UNSTRUCTURED_GRID

POINTS 51 double
	-7.45058000E-09	-7.45058000E-09	-5.00000000E-03
	-7.45058000E-09	-7.45058000E-09	 0.00000000E+00
	-7.45058000E-09	-7.45058000E-09	 5.00000000E-03
	 5.00000000E-01	-7.45058000E-09	-1.50000000E-02
	 5.00000000E-01	-7.45058000E-09	 0.00000000E+00
	 5.00000000E-01	-7.45058000E-09	 1.50000000E-02
	 5.00000000E-01	 5.00000000E-01	-1.50000000E-02
	 5.00000000E-01	 5.00000000E-01	 0.00000000E+00
	 5.00000000E-01	 5.00000000E-01	 1.50000000E-02
	-7.45058000E-09	 5.00000000E-01	-5.00000000E-03
	-7.45058000E-09	 5.00000000E-01	 0.00000000E+00
	-7.45058000E-09	 5.00000000E-01	 5.00000000E-03
	 2.50000000E-01	-7.45058000E-09	-1.00000000E-02
	 2.50000000E-01	-7.45058000E-09	 1.00000000E-02
	 5.00000000E-01	 2.50000000E-01	-1.50000000E-02
	 5.00000000E-01	 2.50000000E-01	 1.50000000E-02
	 2.50000000E-01	 5.00000000E-01	-1.00000000E-02
	 2.50000000E-01	 5.00000000E-01	 1.00000000E-02
	-7.45058000E-09	 2.50000000E-01	-5.00000000E-03
	-7.45058000E-09	 2.50000000E-01	 5.00000000E-03
	 5.00000000E-01	 1.00000000E+00	-1.50000000E-02
	 5.00000000E-01	 1.00000000E+00	 0.00000000E+00
	 5.00000000E-01	 1.00000000E+00	 1.50000000E-02
	-7.45058000E-09	 1.00000000E+00	-5.00000000E-03
	-7.45058000E-09	 1.00000000E+00	 0.00000000E+00
	-7.45058000E-09	 1.00000000E+00	 5.00000000E-03
	 5.00000000E-01	 7.50000000E-01	-1.50000000E-02
	 5.00000000E-01	 7.50000000E-01	 1.50000000E-02
	 2.50000000E-01	 1.00000000E+00	-1.00000000E-02
	 2.50000000E-01	 1.00000000E+00	 1.00000000E-02
	-7.45058000E-09	 7.50000000E-01	-5.00000000E-03
	-7.45058000E-09	 7.50000000E-01	 5.00000000E-03
	 1.00000000E+00	-7.45058000E-09	-1.00000000E-02
	 1.00000000E+00	-7.45058000E-09	 0.00000000E+00
	 1.00000000E+00	-7.45058000E-09	 1.00000000E-02
	 1.00000000E+00	 5.00000000E-01	-1.00000000E-02
	 1.00000000E+00	 5.00000000E-01	 0.00000000E+00
	 1.00000000E+00	 5.00000000E-01	 1.00000000E-02
	 7.50000000E-01	-7.45058000E-09	-1.25000000E-02
	 7.50000000E-01	-7.45058000E-09	 1.25000000E-02
	 1.00000000E+00	 2.50000000E-01	-1.00000000E-02
	 1.00000000E+00	 2.50000000E-01	 1.00000000E-02
	 7.50000000E-01	 5.00000000E-01	-1.25000000E-02
	 7.50000000E-01	 5.00000000E-01	 1.25000000E-02
	 1.00000000E+00	 1.00000000E+00	-1.00000000E-02
	 1.00000000E+00	 1.00000000E+00	 0.00000000E+00
	 1.00000000E+00	 1.00000000E+00	 1.00000000E-02
	 1.00000000E+00	 7.50000000E-01	-1.00000000E-02
	 1.00000000E+00	 7.50000000E-01	 1.00000000E-02
	 7.50000000E-01	 1.00000000E+00	-1.25000000E-02
	 7.50000000E-01	 1.00000000E+00	 1.25000000E-02

CELLS 4 84
	20 0 3 6 9 2 5 8 11 12 14 16 18 13 15 17 19 1 4 7 10 
	20 9 6 20 23 11 8 22 25 16 26 28 30 17 27 29 31 10 7 21 24 
	20 3 32 35 6 5 34 37 8 38 40 42 14 39 41 43 15 4 33 36 7 
	20 6 35 44 20 8 37 46 22 42 47 49 26 43 48 50 27 7 36 45 21 

CELL_TYPES 4
	25
	25
	25
	25

POINT_DATA 51
FIELD U 1
	U 3 51 double
		 0.00000000E+00	 0.00000000E+00	-5.10987000E-06
		 0.00000000E+00	 0.00000000E+00	 0.00000000E+00
		 0.00000000E+00	 0.00000000E+00	 5.10987000E-06
		-6.93168000E-05	-4.13640000E-04	-1.48301000E-02
		 4.51096000E-04	-5.46810000E-04	-1.48309000E-02
		 9.71126000E-04	-6.80157000E-04	-1.48295000E-02
		 1.68005000E-04	 0.00000000E+00	-1.26900000E-02
		 6.33757000E-04	 0.00000000E+00	-1.26732000E-02
		 1.10090000E-03	 0.00000000E+00	-1.26542000E-02
		 0.00000000E+00	 0.00000000E+00	-1.43711000E-05
		 0.00000000E+00	 0.00000000E+00	 0.00000000E+00
		 0.00000000E+00	 0.00000000E+00	 1.43711000E-05
		-5.47231000E-05	-3.77769000E-04	-5.92715000E-03
		 5.99485000E-04	-4.65804000E-04	-5.90918000E-03
		 1.14294000E-04	-1.93447000E-04	-1.32125000E-02
		 1.12570000E-03	-3.17597000E-04	-1.31933000E-02
		 1.44512000E-04	 0.00000000E+00	-4.91495000E-03
		 6.94111000E-04	 0.00000000E+00	-4.90581000E-03
		 0.00000000E+00	 0.00000000E+00	-9.56899000E-06
		 0.00000000E+00	 0.00000000E+00	 9.56899000E-06
		-6.93168000E-05	 4.13640000E-04	-1.48301000E-02
		 4.51096000E-04	 5.46810000E-04	-1.48309000E-02
		 9.71126000E-04	 6.80157000E-04	-1.48295000E-02
		 0.00000000E+00	 0.00000000E+00	-5.10987000E-06
		 0.00000000E+00	 0.00000000E+00	 0.00000000E+00
		 0.00000000E+00	 0.00000000E+00	 5.10987000E-06
		 1.14294000E-04	 1.93447000E-04	-1.32125000E-02
		 1.12570000E-03	 3.17597000E-04	-1.31933000E-02
		-5.47231000E-05	 3.77769000E-04	-5.92715000E-03
		 5.99485000E-04	 4.65804000E-04	-5.90918000E-03
		 0.00000000E+00	 0.00000000E+00	-9.56899000E-06
		 0.00000000E+00	 0.00000000E+00	 9.56899000E-06
		 4.35784000E-04	-4.93784000E-04	-3.29801000E-02
		 8.08969000E-04	-6.16157000E-04	-3.29816000E-02
		 1.18450000E-03	-7.38369000E-04	-3.29804000E-02
		 1.02493000E-03	 0.00000000E+00	-2.84316000E-02
		 1.31613000E-03	 0.00000000E+00	-2.84201000E-02
		 1.60286000E-03	 0.00000000E+00	-2.84079000E-02
		 2.23320000E-04	-4.44592000E-04	-2.37817000E-02
		 1.11054000E-03	-7.00664000E-04	-2.37625000E-02
		 6.37708000E-04	-2.18116000E-04	-2.99598000E-02
		 1.30400000E-03	-4.30971000E-04	-2.99495000E-02
		 5.44352000E-04	 0.00000000E+00	-2.06927000E-02
		 1.32665000E-03	 0.00000000E+00	-2.06857000E-02
		 4.35784000E-04	 4.93784000E-04	-3.29801000E-02
		 8.08969000E-04	 6.16157000E-04	-3.29816000E-02
		 1.18450000E-03	 7.38369000E-04	-3.29804000E-02
		 6.37708000E-04	 2.18116000E-04	-2.99598000E-02
		 1.30400000E-03	 4.30971000E-04	-2.99495000E-02
		 2.23320000E-04	 4.44592000E-04	-2.37817000E-02
		 1.11054000E-03	 7.00664000E-04	-2.37625000E-02
FIELD NT 1
	NT 1 51 double
		 3.68000000E+02
		 3.73000000E+02
		 3.78000000E+02
		 3.58000000E+02
		 3.73000000E+02
		 3.88000000E+02
		 3.58000000E+02
		 3.73000000E+02
		 3.88000000E+02
		 3.68000000E+02
		 3.73000000E+02
		 3.78000000E+02
		 3.63000000E+02
		 3.83000000E+02
		 3.58000000E+02
		 3.88000000E+02
		 3.63000000E+02
		 3.83000000E+02
		 3.68000000E+02
		 3.78000000E+02
		 3.58000000E+02
		 3.73000000E+02
		 3.88000000E+02
		 3.68000000E+02
		 3.73000000E+02
		 3.78000000E+02
		 3.58000000E+02
		 3.88000000E+02
		 3.63000000E+02
		 3.83000000E+02
		 3.68000000E+02
		 3.78000000E+02
		 3.63000000E+02
		 3.73000000E+02
		 3.83000000E+02
		 3.63000000E+02
		 3.73000000E+02
		 3.83000000E+02
		 3.60500000E+02
		 3.85500000E+02
		 3.63000000E+02
		 3.83000000E+02
		 3.60500000E+02
		 3.85500000E+02
		 3.63000000E+02
		 3.73000000E+02
		 3.83000000E+02
		 3.63000000E+02
		 3.83000000E+02
		 3.60500000E+02
		 3.85500000E+02
FIELD S 1
	S 10 51 double
		-3.30487000E+02	-3.29386000E+02	-1.28374000E+02	-1.63518000E+02	 4.57582000E+00	-1.46317000E+00	 3.47724023E+02	-4.93468611E+02	-1.66891624E+02	-1.27886765E+02
		-5.77319000E+00	-2.12401000E+02	-1.51199000E-01	-1.73300000E+02	 3.81859000E+00	-3.16770000E+00	 3.66143191E+02	-3.10855915E+02	-3.72705153E-01	 9.29032313E+01
		 3.18940000E+02	-9.54171000E+01	 1.28071000E+02	-1.83083000E+02	 3.06136000E+00	-4.87223000E+00	 4.79262290E+02	-1.64725048E+02	 1.27953198E+02	 3.88365750E+02
		 1.39767000E+02	 6.22356000E+01	 3.45945000E+01	 7.16748000E+01	-1.86145000E+00	-1.65243000E+00	 1.56040440E+02	 1.94771713E+01	 3.45940375E+01	 1.82525891E+02
		 5.81718000E+01	 5.02719000E+01	 4.29531000E-01	 5.44870000E+01	-1.17215000E+00	-3.09762000E+00	 1.08994619E+02	-1.33868530E+00	 1.27341165E+00	 1.08938505E+02
		-2.34235000E+01	 3.83082000E+01	-3.37355000E+01	 3.72991000E+01	-4.82857000E-01	-4.54280000E+00	 9.37549815E+01	-4.26863336E+01	-3.20837058E+01	 5.59192394E+01
		 5.60742000E+01	-1.66083000E+01	 2.69466000E+01	-5.26598000E-08	 1.61147000E-08	-8.92190000E+00	 6.52142392E+01	-1.66083000E+01	 2.44310391E+01	 5.85897609E+01
		 1.23952000E+00	-3.37933000E+01	-3.13832000E-01	-3.04230000E-07	 2.83644000E-08	-2.13698000E-02	 3.42825677E+01	-3.37933000E+01	-3.14125933E-01	 1.23981393E+00
		-5.35951000E+01	-5.09784000E+01	-2.75742000E+01	-5.55801000E-07	 4.06140000E-08	 8.87916000E+00	 2.91952721E+01	-5.63361989E+01	-5.09784000E+01	-2.48331011E+01
		-8.98571000E+01	-2.47881000E+02	-1.00287000E+02	 1.62733000E-06	-5.83426000E-08	 3.03819000E+00	 1.53166100E+02	-2.47881000E+02	-1.01107471E+02	-8.90366294E+01
		 1.68779000E+02	-1.59345000E+02	-1.63773000E-01	 1.58513000E-06	-5.03617000E-08	-5.02565000E+00	 2.84338905E+02	-1.59345000E+02	-3.13142200E-01	 1.68928369E+02
		 4.27415000E+02	-7.08088000E+01	 9.99596000E+01	 1.54292000E-06	-4.23808000E-08	-1.30895000E+01	 4.39114934E+02	-7.08088000E+01	 9.94372018E+01	 4.27937398E+02
		-6.84202000E+01	-1.10376000E+02	-3.84177000E+01	-3.43707000E+01	 4.54826000E-01	 6.38474000E-01	 8.64007908E+01	-1.29670437E+02	-4.91416821E+01	-3.84017811E+01
		 1.30480000E+02	-2.69752000E+01	 3.84722000E+01	-6.91699000E+01	 7.47661000E-01	-7.44269000E+00	 1.82460275E+02	-5.30856660E+01	 3.80719031E+01	 1.56990763E+02
		 9.79206000E+01	 2.28137000E+01	 3.07706000E+01	 3.50320000E+01	-1.28186000E+00	-5.28716000E+00	 9.42191878E+01	 8.98467663E+00	 3.04392611E+01	 1.12080962E+02
		-3.85093000E+01	-6.33512000E+00	-3.06549000E+01	-1.77202000E+00	-9.39070000E-02	 2.16818000E+00	 2.94569213E+01	-3.91554328E+01	-3.01079311E+01	-6.23595609E+00
		-1.16692000E+01	-1.16153000E+02	-3.04669000E+01	 8.07182000E-07	-1.53290000E-08	-5.82262000E+00	 9.69941832E+01	-1.16153000E+02	-3.21243281E+01	-1.00117719E+01
		 1.66892000E+02	-5.89775000E+01	 3.09476000E+01	 5.04421000E-07	 3.29942000E-09	 1.73191000E+00	 1.96980242E+02	-5.89775000E+01	 3.09255393E+01	 1.66914061E+02
		-2.10172000E+02	-2.88633000E+02	-1.14330000E+02	-7.67054000E+01	 7.94371000E-01	 7.87511000E-01	 2.01287321E+02	-3.35563242E+02	-1.63248467E+02	-1.14323291E+02
		 3.73178000E+02	-8.31130000E+01	 1.14015000E+02	-8.87944000E+01	-2.83491000E-01	-8.98086000E+00	 4.25451217E+02	-9.98009170E+01	 1.13753698E+02	 3.90127219E+02
		 1.39767000E+02	 6.22356000E+01	 3.45945000E+01	-7.16748000E+01	 1.86145000E+00	-1.65243000E+00	 1.56040440E+02	 1.94771713E+01	 3.45940375E+01	 1.82525891E+02
		 5.81718000E+01	 5.02719000E+01	 4.29531000E-01	-5.44870000E+01	 1.17215000E+00	-3.09762000E+00	 1.08994619E+02	-1.33868530E+00	 1.27341165E+00	 1.08938505E+02
		-2.34235000E+01	 3.83082000E+01	-3.37355000E+01	-3.72991000E+01	 4.82857000E-01	-4.54280000E+00	 9.37549815E+01	-4.26863336E+01	-3.20837058E+01	 5.59192394E+01
		-3.30487000E+02	-3.29386000E+02	-1.28374000E+02	 1.63518000E+02	-4.57582000E+00	-1.46317000E+00	 3.47724023E+02	-4.93468611E+02	-1.66891624E+02	-1.27886765E+02
		-5.77319000E+00	-2.12401000E+02	-1.51199000E-01	 1.73300000E+02	-3.81859000E+00	-3.16770000E+00	 3.66143191E+02	-3.10855915E+02	-3.72705153E-01	 9.29032313E+01
		 3.18940000E+02	-9.54171000E+01	 1.28071000E+02	 1.83083000E+02	-3.06136000E+00	-4.87223000E+00	 4.79262290E+02	-1.64725048E+02	 1.27953198E+02	 3.88365750E+02
		 9.79206000E+01	 2.28137000E+01	 3.07706000E+01	-3.50320000E+01	 1.28186000E+00	-5.28716000E+00	 9.42191878E+01	 8.98467663E+00	 3.04392611E+01	 1.12080962E+02
		-3.85093000E+01	-6.33512000E+00	-3.06549000E+01	 1.77202000E+00	 9.39070000E-02	 2.16818000E+00	 2.94569213E+01	-3.91554328E+01	-3.01079311E+01	-6.23595609E+00
		-6.84202000E+01	-1.10376000E+02	-3.84177000E+01	 3.43707000E+01	-4.54826000E-01	 6.38475000E-01	 8.64007908E+01	-1.29670437E+02	-4.91416822E+01	-3.84017810E+01
		 1.30480000E+02	-2.69752000E+01	 3.84722000E+01	 6.91699000E+01	-7.47661000E-01	-7.44269000E+00	 1.82460275E+02	-5.30856660E+01	 3.80719031E+01	 1.56990763E+02
		-2.10172000E+02	-2.88633000E+02	-1.14330000E+02	 7.67054000E+01	-7.94371000E-01	 7.87511000E-01	 2.01287321E+02	-3.35563242E+02	-1.63248467E+02	-1.14323291E+02
		 3.73178000E+02	-8.31130000E+01	 1.14015000E+02	 8.87944000E+01	 2.83491000E-01	-8.98086000E+00	 4.25451217E+02	-9.98009170E+01	 1.13753698E+02	 3.90127219E+02
		-5.67568000E+01	 2.65619000E+01	-8.44418000E+00	-2.23146000E+01	-4.42072000E-01	-9.51139000E+00	 8.37650306E+01	-6.39277129E+01	-6.96269485E+00	 3.22513277E+01
		-7.39535000E+01	-2.60389000E+01	-4.68622000E-01	-4.87098000E+01	 1.97543000E-01	 2.13331000E+00	 1.06332223E+02	-1.04314098E+02	-6.20946225E-01	 4.47402173E+00
		-9.11502000E+01	-7.86397000E+01	 7.50694000E+00	-7.51049000E+01	 8.37158000E-01	 1.37780000E+01	 1.61707557E+02	-1.60942308E+02	-1.30830358E+01	 1.17423834E+01
		 2.05264000E+02	-1.26767000E+01	-7.52488000E+00	 3.41275000E-07	-1.27616000E-09	 2.29792000E+01	 2.19057138E+02	-1.26767000E+01	-9.97813403E+00	 2.07717254E+02
		 1.71155000E+02	 8.20465000E+01	 1.11363000E+00	 8.60408000E-09	 1.66846000E-08	-2.37915000E+00	 1.47374496E+02	 1.08034841E+00	 8.20465000E+01	 1.71188282E+02
		 1.37046000E+02	 1.76770000E+02	 9.75215000E+00	-3.24067000E-07	 3.46454000E-08	-2.77375000E+01	 1.58576316E+02	 3.97069486E+00	 1.42827455E+02	 1.76770000E+02
		 1.45655000E+01	 2.12002000E+01	 4.60337000E+00	 1.31292000E+01	-2.49403000E-01	-7.77818000E+00	 3.01359181E+01	-1.88781618E+00	 9.89715692E+00	 3.23597293E+01
		-4.00086000E+01	-2.17451000E+01	-4.41864000E+00	-2.26250000E+01	 7.18740000E-01	 7.35277000E+00	 5.14744089E+01	-5.60959810E+01	-8.81158111E+00	-1.26477793E+00
		 7.42538000E+01	 6.94261000E+00	-7.98453000E+00	 6.06515000E+01	 1.01100000E+00	 6.73388000E+00	 1.30127993E+02	-2.90767122E+01	-8.01054120E+00	 1.10299133E+02
		 2.29478000E+01	 4.90650000E+01	 8.62955000E+00	 1.39277000E+01	 2.24474000E+00	-6.97973000E+00	 4.47692078E+01	 4.37369927E+00	 2.11588323E+01	 5.51098184E+01
		 1.25447000E+02	-3.07345000E+01	 3.50748000E+00	 1.24460000E-07	 1.63437000E-09	 9.90939000E+00	 1.43219406E+02	-3.07345000E+01	 2.70744443E+00	 1.26247036E+02
		 6.17435000E+01	 6.09795000E+01	-3.66596000E+00	-4.50793000E-07	 3.34469000E-08	-1.32662000E+01	 6.89708961E+01	-6.25416735E+00	 6.09795000E+01	 6.43317074E+01
		-5.67568000E+01	 2.65619000E+01	-8.44418000E+00	 2.23146000E+01	 4.42072000E-01	-9.51139000E+00	 8.37650306E+01	-6.39277129E+01	-6.96269485E+00	 3.22513277E+01
		-7.39535000E+01	-2.60389000E+01	-4.68622000E-01	 4.87098000E+01	-1.97543000E-01	 2.13331000E+00	 1.06332223E+02	-1.04314098E+02	-6.20946225E-01	 4.47402173E+00
		-9.11503000E+01	-7.86397000E+01	 7.50694000E+00	 7.51049000E+01	-8.37158000E-01	 1.37780000E+01	 1.61707592E+02	-1.60942362E+02	-1.30830726E+01	 1.17423745E+01
		 7.42538000E+01	 6.94261000E+00	-7.98453000E+00	-6.06515000E+01	-1.01100000E+00	 6.73388000E+00	 1.30127993E+02	-2.90767122E+01	-8.01054120E+00	 1.10299133E+02
		 2.29478000E+01	 4.90650000E+01	 8.62955000E+00	-1.39277000E+01	-2.24474000E+00	-6.97973000E+00	 4.47692078E+01	 4.37369927E+00	 2.11588323E+01	 5.51098184E+01
		 1.45655000E+01	 2.12002000E+01	 4.60337000E+00	-1.31292000E+01	 2.49403000E-01	-7.77818000E+00	 3.01359181E+01	-1.88781618E+00	 9.89715692E+00	 3.23597293E+01
		-4.00086000E+01	-2.17451000E+01	-4.41864000E+00	 2.26250000E+01	-7.18740000E-01	 7.35277000E+00	 5.14744089E+01	-5.60959810E+01	-8.81158111E+00	-1.26477793E+00
FIELD RF 1
	RF 3 51 double
		 2.17086000E-01	 1.17126000E-01	 2.64952000E+00
		-6.10822000E-02	 2.91259000E-01	-5.29747000E+00
		 4.64719000E-02	 5.47702000E-02	 2.64952000E+00
		 4.77736000E-05	-1.17607000E-05	 2.09042000E-03
		-2.74633000E-07	-3.48350000E-07	-1.03678000E-07
		 8.47604000E-07	-9.10894000E-08	-2.66945000E-06
		 9.92724000E-05	 0.00000000E+00	 4.18161000E-03
		-5.29020000E-07	 0.00000000E+00	-1.97419000E-07
		 1.82152000E-06	 0.00000000E+00	-5.77747000E-06
		 2.76956000E-01	 0.00000000E+00	 4.89920000E+00
		-6.07550000E-01	-1.73669000E-09	-9.79283000E+00
		 1.72133000E-02	 0.00000000E+00	 4.89920000E+00
		 6.52187000E-07	-1.46039000E-07	-4.00891000E-06
		-1.13127000E-06	-4.82198000E-08	 3.88422000E-06
		-1.94010000E-04	 4.61216000E-05	-8.36327000E-03
		-3.47858000E-06	 3.97413000E-07	 1.30464000E-05
		 1.17788000E-06	 0.00000000E+00	-7.52146000E-06
		-2.09508000E-06	 0.00000000E+00	 7.28580000E-06
		 3.70698000E-02	 6.23124000E-02	 1.03487000E-02
		-5.82264000E-01	 6.65201000E-02	 1.03537000E-02
		 4.77736000E-05	 1.17607000E-05	 2.09042000E-03
		-2.74633000E-07	 3.48350000E-07	-1.03668000E-07
		 8.47604000E-07	 9.10894000E-08	-2.66946000E-06
		 2.17086000E-01	-1.17126000E-01	 2.64952000E+00
		-6.10822000E-02	-2.91259000E-01	-5.29747000E+00
		 4.64720000E-02	-5.47702000E-02	 2.64952000E+00
		-1.94010000E-04	-4.61216000E-05	-8.36327000E-03
		-3.47858000E-06	-3.97413000E-07	 1.30464000E-05
		 6.52187000E-07	 1.46040000E-07	-4.00892000E-06
		-1.13127000E-06	 4.82198000E-08	 3.88422000E-06
		 3.70699000E-02	-6.23124000E-02	 1.03487000E-02
		-5.82264000E-01	-6.65201000E-02	 1.03537000E-02
		 4.64141000E-05	-7.42218000E-06	 2.08956000E-03
		 3.59419000E-07	-2.42520000E-07	 7.34444000E-08
		 3.80739000E-07	-1.41878000E-08	-1.68580000E-06
		-4.99898000E-01	 0.00000000E+00	 4.17894000E-03
		 2.00000000E+00	 0.00000000E+00	 8.12056000E-08
		-4.99999000E-01	 0.00000000E+00	-4.59715000E-06
		-2.01226000E-04	 6.67721000E-05	-8.35903000E-03
		-2.30075000E-06	 2.29526000E-07	 9.11416000E-06
		-1.94152000E-04	 5.93643000E-05	-8.35957000E-03
		-1.86168000E-06	 5.15197000E-07	 8.97346000E-06
		-3.76492000E-04	 0.00000000E+00	-1.67174000E-02
		-3.83403000E-06	 0.00000000E+00	 1.54875000E-05
		 4.64141000E-05	 7.42218000E-06	 2.08956000E-03
		 3.59420000E-07	 2.42520000E-07	 7.34557000E-08
		 3.80739000E-07	 1.41878000E-08	-1.68581000E-06
		-1.94152000E-04	-5.93643000E-05	-8.35957000E-03
		-1.86168000E-06	-5.15197000E-07	 8.97347000E-06
		-2.01226000E-04	-6.67721000E-05	-8.35903000E-03
		-2.30075000E-06	-2.29526000E-07	 9.11417000E-06
