    1C
    1UUSER                                                              
    1UDATE              01.august.2019                                  
    1UTIME              09:56:22                                        
    1UHOST                                                              
    1UPGM               CalculiX                                        
    1UVERSION           Version 2.15                             
    1UCOMPILETIME       Fri 15 Mar 11:57:46 CET 2019                    
    1UDIR                                                               
    1UDBN                                                               
    1UMAT    1ALUM                                                      
    2C                           128                                     1
 -1        22-1.55563E-01 0.00000E+00 0.00000E+00
 -1        23 0.00000E+00-1.55563E-01 0.00000E+00
 -1        24 1.55563E-01 0.00000E+00 0.00000E+00
 -1        25 0.00000E+00 1.55563E-01 0.00000E+00
 -1        26-7.77817E-02-7.77817E-02 0.00000E+00
 -1        27 7.77817E-02-7.77817E-02 0.00000E+00
 -1        28 7.77817E-02 7.77817E-02 0.00000E+00
 -1        29-7.77817E-02 7.77817E-02 0.00000E+00
 -1        30-1.55563E-01 0.00000E+00 5.00000E-01
 -1        31 0.00000E+00-1.55563E-01 5.00000E-01
 -1        32 1.55563E-01 0.00000E+00 5.00000E-01
 -1        33 0.00000E+00 1.55563E-01 5.00000E-01
 -1        38-1.55563E-01 0.00000E+00 1.00000E+00
 -1        39 0.00000E+00-1.55563E-01 1.00000E+00
 -1        40 1.55563E-01 0.00000E+00 1.00000E+00
 -1        41 0.00000E+00 1.55563E-01 1.00000E+00
 -1        42-7.77817E-02-7.77817E-02 1.00000E+00
 -1        43 7.77817E-02-7.77817E-02 1.00000E+00
 -1        44 7.77817E-02 7.77817E-02 1.00000E+00
 -1        45-7.77817E-02 7.77817E-02 1.00000E+00
 -1        46-1.55563E-01 0.00000E+00 1.50000E+00
 -1        47 0.00000E+00-1.55563E-01 1.50000E+00
 -1        48 1.55563E-01 0.00000E+00 1.50000E+00
 -1        49 0.00000E+00 1.55563E-01 1.50000E+00
 -1        54-1.55563E-01 0.00000E+00 2.00000E+00
 -1        55 0.00000E+00-1.55563E-01 2.00000E+00
 -1        56 1.55563E-01 0.00000E+00 2.00000E+00
 -1        57 0.00000E+00 1.55563E-01 2.00000E+00
 -1        58-7.77817E-02-7.77817E-02 2.00000E+00
 -1        59 7.77817E-02-7.77817E-02 2.00000E+00
 -1        60 7.77817E-02 7.77817E-02 2.00000E+00
 -1        61-7.77817E-02 7.77817E-02 2.00000E+00
 -1        62-1.55563E-01 0.00000E+00 2.50000E+00
 -1        63 0.00000E+00-1.55563E-01 2.50000E+00
 -1        64 1.55563E-01 0.00000E+00 2.50000E+00
 -1        65 0.00000E+00 1.55563E-01 2.50000E+00
 -1        70-1.55563E-01 0.00000E+00 3.00000E+00
 -1        71 0.00000E+00-1.55563E-01 3.00000E+00
 -1        72 1.55563E-01 0.00000E+00 3.00000E+00
 -1        73 0.00000E+00 1.55563E-01 3.00000E+00
 -1        74-7.77817E-02-7.77817E-02 3.00000E+00
 -1        75 7.77817E-02-7.77817E-02 3.00000E+00
 -1        76 7.77817E-02 7.77817E-02 3.00000E+00
 -1        77-7.77817E-02 7.77817E-02 3.00000E+00
 -1        78-1.55563E-01 0.00000E+00 3.50000E+00
 -1        79 0.00000E+00-1.55563E-01 3.50000E+00
 -1        80 1.55563E-01 0.00000E+00 3.50000E+00
 -1        81 0.00000E+00 1.55563E-01 3.50000E+00
 -1        86-1.55563E-01 0.00000E+00 4.00000E+00
 -1        87 0.00000E+00-1.55563E-01 4.00000E+00
 -1        88 1.55563E-01 0.00000E+00 4.00000E+00
 -1        89 0.00000E+00 1.55563E-01 4.00000E+00
 -1        90-7.77817E-02-7.77817E-02 4.00000E+00
 -1        91 7.77817E-02-7.77817E-02 4.00000E+00
 -1        92 7.77817E-02 7.77817E-02 4.00000E+00
 -1        93-7.77817E-02 7.77817E-02 4.00000E+00
 -1        94-1.55563E-01 0.00000E+00 4.50000E+00
 -1        95 0.00000E+00-1.55563E-01 4.50000E+00
 -1        96 1.55563E-01 0.00000E+00 4.50000E+00
 -1        97 0.00000E+00 1.55563E-01 4.50000E+00
 -1       102-1.55563E-01 0.00000E+00 5.00000E+00
 -1       103 0.00000E+00-1.55563E-01 5.00000E+00
 -1       104 1.55563E-01 0.00000E+00 5.00000E+00
 -1       105 0.00000E+00 1.55563E-01 5.00000E+00
 -1       106-7.77817E-02-7.77817E-02 5.00000E+00
 -1       107 7.77817E-02-7.77817E-02 5.00000E+00
 -1       108 7.77817E-02 7.77817E-02 5.00000E+00
 -1       109-7.77817E-02 7.77817E-02 5.00000E+00
 -1       110-1.55563E-01 0.00000E+00 5.50000E+00
 -1       111 0.00000E+00-1.55563E-01 5.50000E+00
 -1       112 1.55563E-01 0.00000E+00 5.50000E+00
 -1       113 0.00000E+00 1.55563E-01 5.50000E+00
 -1       118-1.55563E-01 0.00000E+00 6.00000E+00
 -1       119 0.00000E+00-1.55563E-01 6.00000E+00
 -1       120 1.55563E-01 0.00000E+00 6.00000E+00
 -1       121 0.00000E+00 1.55563E-01 6.00000E+00
 -1       122-7.77817E-02-7.77817E-02 6.00000E+00
 -1       123 7.77817E-02-7.77817E-02 6.00000E+00
 -1       124 7.77817E-02 7.77817E-02 6.00000E+00
 -1       125-7.77817E-02 7.77817E-02 6.00000E+00
 -1       126-1.55563E-01 0.00000E+00 6.50000E+00
 -1       127 0.00000E+00-1.55563E-01 6.50000E+00
 -1       128 1.55563E-01 0.00000E+00 6.50000E+00
 -1       129 0.00000E+00 1.55563E-01 6.50000E+00
 -1       134-1.55563E-01 0.00000E+00 7.00000E+00
 -1       135 0.00000E+00-1.55563E-01 7.00000E+00
 -1       136 1.55563E-01 0.00000E+00 7.00000E+00
 -1       137 0.00000E+00 1.55563E-01 7.00000E+00
 -1       138-7.77817E-02-7.77817E-02 7.00000E+00
 -1       139 7.77817E-02-7.77817E-02 7.00000E+00
 -1       140 7.77817E-02 7.77817E-02 7.00000E+00
 -1       141-7.77817E-02 7.77817E-02 7.00000E+00
 -1       142-1.55563E-01 0.00000E+00 7.50000E+00
 -1       143 0.00000E+00-1.55563E-01 7.50000E+00
 -1       144 1.55563E-01 0.00000E+00 7.50000E+00
 -1       145 0.00000E+00 1.55563E-01 7.50000E+00
 -1       150-1.55563E-01 0.00000E+00 8.00000E+00
 -1       151 0.00000E+00-1.55563E-01 8.00000E+00
 -1       152 1.55563E-01 0.00000E+00 8.00000E+00
 -1       153 0.00000E+00 1.55563E-01 8.00000E+00
 -1       154-7.77817E-02-7.77817E-02 8.00000E+00
 -1       155 7.77817E-02-7.77817E-02 8.00000E+00
 -1       156 7.77817E-02 7.77817E-02 8.00000E+00
 -1       157-7.77817E-02 7.77817E-02 8.00000E+00
 -1       158-1.55563E-01 0.00000E+00 8.50000E+00
 -1       159 0.00000E+00-1.55563E-01 8.50000E+00
 -1       160 1.55563E-01 0.00000E+00 8.50000E+00
 -1       161 0.00000E+00 1.55563E-01 8.50000E+00
 -1       166-1.55563E-01 0.00000E+00 9.00000E+00
 -1       167 0.00000E+00-1.55563E-01 9.00000E+00
 -1       168 1.55563E-01 0.00000E+00 9.00000E+00
 -1       169 0.00000E+00 1.55563E-01 9.00000E+00
 -1       170-7.77817E-02-7.77817E-02 9.00000E+00
 -1       171 7.77817E-02-7.77817E-02 9.00000E+00
 -1       172 7.77817E-02 7.77817E-02 9.00000E+00
 -1       173-7.77817E-02 7.77817E-02 9.00000E+00
 -1       174-1.55563E-01 0.00000E+00 9.50000E+00
 -1       175 0.00000E+00-1.55563E-01 9.50000E+00
 -1       176 1.55563E-01 0.00000E+00 9.50000E+00
 -1       177 0.00000E+00 1.55563E-01 9.50000E+00
 -1       182-1.55563E-01 0.00000E+00 1.00000E+01
 -1       183 0.00000E+00-1.55563E-01 1.00000E+01
 -1       184 1.55563E-01 0.00000E+00 1.00000E+01
 -1       185 0.00000E+00 1.55563E-01 1.00000E+01
 -1       186-7.77817E-02-7.77817E-02 1.00000E+01
 -1       187 7.77817E-02-7.77817E-02 1.00000E+01
 -1       188 7.77817E-02 7.77817E-02 1.00000E+01
 -1       189-7.77817E-02 7.77817E-02 1.00000E+01
 -3
    3C                            10                                     1
 -1         1    4    0    1
 -2        22        38        39        23        25        41        40        24        30        42
 -2        31        26        29        45        43        27        33        44        32        28
 -1         2    4    0    1
 -2        38        54        55        39        41        57        56        40        46        58
 -2        47        42        45        61        59        43        49        60        48        44
 -1         3    4    0    1
 -2        54        70        71        55        57        73        72        56        62        74
 -2        63        58        61        77        75        59        65        76        64        60
 -1         4    4    0    1
 -2        70        86        87        71        73        89        88        72        78        90
 -2        79        74        77        93        91        75        81        92        80        76
 -1         5    4    0    1
 -2        86       102       103        87        89       105       104        88        94       106
 -2        95        90        93       109       107        91        97       108        96        92
 -1         6    4    0    1
 -2       102       118       119       103       105       121       120       104       110       122
 -2       111       106       109       125       123       107       113       124       112       108
 -1         7    4    0    1
 -2       118       134       135       119       121       137       136       120       126       138
 -2       127       122       125       141       139       123       129       140       128       124
 -1         8    4    0    1
 -2       134       150       151       135       137       153       152       136       142       154
 -2       143       138       141       157       155       139       145       156       144       140
 -1         9    4    0    1
 -2       150       166       167       151       153       169       168       152       158       170
 -2       159       154       157       173       171       155       161       172       160       156
 -1        10    4    0    1
 -2       166       182       183       167       169       185       184       168       174       186
 -2       175       170       173       189       187       171       177       188       176       172
 -3
 9999
