<?xml version="1.0"?>
<VTKFile type="UnstructuredGrid" version="0.1" byte_order="LittleEndian">
	<UnstructuredGrid>
		<Piece NumberOfPoints="21" NumberOfCells="10">
			<Points>
				<DataArray type="Float64" NumberOfComponents="3" format="ascii">
					 0.00000000E+00	 0.00000000E+00	 0.00000000E+00
					 0.00000000E+00	 0.00000000E+00	 5.00000000E-01
					 0.00000000E+00	 0.00000000E+00	 1.00000000E+00
					 0.00000000E+00	 0.00000000E+00	 1.50000000E+00
					 0.00000000E+00	 0.00000000E+00	 2.00000000E+00
					 0.00000000E+00	 0.00000000E+00	 2.50000000E+00
					 0.00000000E+00	 0.00000000E+00	 3.00000000E+00
					 0.00000000E+00	 0.00000000E+00	 3.50000000E+00
					 0.00000000E+00	 0.00000000E+00	 4.00000000E+00
					 0.00000000E+00	 0.00000000E+00	 4.50000000E+00
					 0.00000000E+00	 0.00000000E+00	 5.00000000E+00
					 0.00000000E+00	 0.00000000E+00	 5.50000000E+00
					 0.00000000E+00	 0.00000000E+00	 6.00000000E+00
					 0.00000000E+00	 0.00000000E+00	 6.50000000E+00
					 0.00000000E+00	 0.00000000E+00	 7.00000000E+00
					 0.00000000E+00	 0.00000000E+00	 7.50000000E+00
					 0.00000000E+00	 0.00000000E+00	 8.00000000E+00
					 0.00000000E+00	 0.00000000E+00	 8.50000000E+00
					 0.00000000E+00	 0.00000000E+00	 9.00000000E+00
					 0.00000000E+00	 0.00000000E+00	 9.50000000E+00
					 0.00000000E+00	 0.00000000E+00	 1.00000000E+01

				</DataArray>
			</Points>
			<Cells>
				<DataArray type="Int32" Name="connectivity" format="ascii">
					0 2 1 2 4 3 4 6 5 6 8 7 8 10 9 10 12 11 12 14 13 14 16 15 16 18 17 18 20 19 
				</DataArray>
				<DataArray type="Int32" Name="offsets" format="ascii">
					3 6 9 12 15 18 21 24 27 30 
				</DataArray>
				<DataArray type="UInt8" Name="types" format="ascii">
					21 21 21 21 21 21 21 21 21 21 
				</DataArray>
			</Cells>
			<PointData>
				<DataArray type="Float32" Name="U" NumberOfComponents="3" ComponentName0="D1" ComponentName1="D2" ComponentName2="D3" format="ascii">
					 9.04305000E-01	 0.00000000E+00	 0.00000000E+00
					 8.36284000E-01	 0.00000000E+00	 0.00000000E+00
					 7.68606000E-01	 0.00000000E+00	 0.00000000E+00
					 7.01615000E-01	 0.00000000E+00	 0.00000000E+00
					 6.35653000E-01	 0.00000000E+00	 0.00000000E+00
					 5.71062000E-01	 0.00000000E+00	 0.00000000E+00
					 5.08185000E-01	 0.00000000E+00	 0.00000000E+00
					 4.47367000E-01	 0.00000000E+00	 0.00000000E+00
					 3.88949000E-01	 0.00000000E+00	 0.00000000E+00
					 3.33274000E-01	 0.00000000E+00	 0.00000000E+00
					 2.80686000E-01	 0.00000000E+00	 0.00000000E+00
					 2.31528000E-01	 0.00000000E+00	 0.00000000E+00
					 1.86140000E-01	 0.00000000E+00	 0.00000000E+00
					 1.44866000E-01	 0.00000000E+00	 0.00000000E+00
					 1.08056000E-01	 0.00000000E+00	 0.00000000E+00
					 7.60550000E-02	 0.00000000E+00	 0.00000000E+00
					 4.91742000E-02	 0.00000000E+00	 0.00000000E+00
					 2.77485000E-02	 0.00000000E+00	 0.00000000E+00
					 1.22427000E-02	 0.00000000E+00	 0.00000000E+00
					 3.03121000E-03	 0.00000000E+00	 0.00000000E+00
					 0.00000000E+00	 0.00000000E+00	 0.00000000E+00
				</DataArray>
				<DataArray type="Float32" Name="S" NumberOfComponents="10" ComponentName0="xx" ComponentName1="yy" ComponentName2="zz" ComponentName3="xy" ComponentName4="yz" ComponentName5="zx" ComponentName6="Mises" ComponentName7="Min Principal" ComponentName8="Mid Principal" ComponentName9="Max Principal" format="ascii">
					-9.99960000E-01	 0.00000000E+00	 0.00000000E+00	 0.00000000E+00	 0.00000000E+00	 2.11347000E-04	 9.99960067E-01	-9.99960045E-01	 0.00000000E+00	 4.46194107E-08
					-9.99960000E-01	 0.00000000E+00	 0.00000000E+00	 0.00000000E+00	 0.00000000E+00	 5.00138000E-01	 1.32300191E+00	-1.20717023E+00	 0.00000000E+00	 2.07210229E-01
					-9.99960000E-01	 0.00000000E+00	 0.00000000E+00	 0.00000000E+00	 0.00000000E+00	 1.00006000E+00	 2.00007000E+00	-1.61805871E+00	 0.00000000E+00	 6.18098711E-01
					-9.99960000E-01	 0.00000000E+00	 0.00000000E+00	 0.00000000E+00	 0.00000000E+00	 1.50002000E+00	 2.78390014E+00	-2.08113148E+00	 0.00000000E+00	 1.08117148E+00
					-9.99960000E-01	 0.00000000E+00	 0.00000000E+00	 0.00000000E+00	 0.00000000E+00	 1.99997000E+00	 3.60549026E+00	-2.56149886E+00	 0.00000000E+00	 1.56153886E+00
					-9.99960000E-01	 0.00000000E+00	 0.00000000E+00	 0.00000000E+00	 0.00000000E+00	 2.49997000E+00	 4.44403758E+00	-3.04945642E+00	 0.00000000E+00	 2.04949642E+00
					-9.99960000E-01	 0.00000000E+00	 0.00000000E+00	 0.00000000E+00	 0.00000000E+00	 2.99998000E+00	 5.29146105E+00	-3.54133825E+00	 0.00000000E+00	 2.54137825E+00
					-9.99960000E-01	 0.00000000E+00	 0.00000000E+00	 0.00000000E+00	 1.00159000E-09	 3.49999000E+00	 6.14407926E+00	-4.03550118E+00	 0.00000000E+00	 3.03554118E+00
					-9.99960000E-01	 0.00000000E+00	 0.00000000E+00	 0.00000000E+00	 1.16071000E-09	 3.99999000E+00	 6.99997714E+00	-4.53109647E+00	 0.00000000E+00	 3.53113647E+00
					-9.99960000E-01	 0.00000000E+00	 0.00000000E+00	 0.00000000E+00	 1.32651000E-09	 4.49995000E+00	 7.85802583E+00	-5.02762067E+00	 0.00000000E+00	 4.02766067E+00
					-9.99960000E-01	 0.00000000E+00	 0.00000000E+00	 0.00000000E+00	 1.49231000E-09	 4.99992000E+00	 8.71765565E+00	-5.52483622E+00	 0.00000000E+00	 4.52487622E+00
					-9.99960000E-01	 0.00000000E+00	 0.00000000E+00	 0.00000000E+00	 1.72053000E-09	 5.50001000E+00	 9.57863508E+00	-6.02266866E+00	 0.00000000E+00	 5.02270866E+00
					-9.99960000E-01	 0.00000000E+00	 0.00000000E+00	 0.00000000E+00	 1.94876000E-09	 6.00010000E+00	 1.04404751E+01	-6.52087528E+00	 0.00000000E+00	 5.52091528E+00
					-9.99960000E-01	 0.00000000E+00	 0.00000000E+00	 0.00000000E+00	 2.19254000E-09	 6.49987000E+00	 1.13024267E+01	-7.01905125E+00	 0.00000000E+00	 6.01909125E+00
					-9.99960000E-01	 0.00000000E+00	 0.00000000E+00	 0.00000000E+00	 2.43632000E-09	 6.99964000E+00	 1.21649003E+01	-7.51745391E+00	 0.00000000E+00	 6.51749391E+00
					-9.99960000E-01	 0.00000000E+00	 0.00000000E+00	 0.00000000E+00	 2.67200000E-09	 7.50001000E+00	 1.30288284E+01	-8.01663684E+00	 0.00000000E+00	 7.01667684E+00
					-9.99960000E-01	 0.00000000E+00	 0.00000000E+00	 0.00000000E+00	 2.90768000E-09	 8.00039000E+00	 1.38931149E+01	-8.51597776E+00	 0.00000000E+00	 7.51601776E+00
					-9.99960000E-01	 0.00000000E+00	 0.00000000E+00	 0.00000000E+00	 3.13563000E-09	 8.50078000E+00	 1.47576997E+01	-9.01545066E+00	 0.00000000E+00	 8.01549066E+00
					-9.99960000E-01	 0.00000000E+00	 0.00000000E+00	 0.00000000E+00	 3.36357000E-09	 9.00118000E+00	 1.56225364E+01	-9.51503526E+00	 0.00000000E+00	 8.51507526E+00
					-9.99960000E-01	 0.00000000E+00	 0.00000000E+00	 0.00000000E+00	 3.58971000E-09	 9.50081000E+00	 1.64862395E+01	-1.00139366E+01	 0.00000000E+00	 9.01397662E+00
					-9.99960000E-01	 0.00000000E+00	 0.00000000E+00	 0.00000000E+00	 3.81584000E-09	 1.00004000E+01	 1.73500409E+01	-1.05128707E+01	 0.00000000E+00	 9.51291070E+00
				</DataArray>
			</PointData>
		</Piece>
	</UnstructuredGrid>
</VTKFile>