# vtk DataFile Version 3.0

ASCII
DATASET UNSTRUCTURED_GRID

POINTS 16 double
	 0.00000000E+00	 0.00000000E+00	 0.00000000E+00
	 1.00000000E+00	 0.00000000E+00	 0.00000000E+00
	 1.00000000E+00	 1.00000000E+00	 0.00000000E+00
	 0.00000000E+00	 1.00000000E+00	 0.00000000E+00
	 0.00000000E+00	 0.00000000E+00	 8.00000000E+00
	 1.00000000E+00	 0.00000000E+00	 8.00000000E+00
	 1.00000000E+00	 1.00000000E+00	 8.00000000E+00
	 0.00000000E+00	 1.00000000E+00	 8.00000000E+00
	 1.00000000E+00	 0.00000000E+00	 2.00000000E+00
	 1.00000000E+00	 0.00000000E+00	 4.00000000E+00
	 0.00000000E+00	 0.00000000E+00	 4.00000000E+00
	 0.00000000E+00	 0.00000000E+00	 2.00000000E+00
	 1.00000000E+00	 1.00000000E+00	 2.00000000E+00
	 1.00000000E+00	 1.00000000E+00	 4.00000000E+00
	 0.00000000E+00	 1.00000000E+00	 2.00000000E+00
	 0.00000000E+00	 1.00000000E+00	 4.00000000E+00

CELLS 3 27
	8 2 12 14 3 1 8 11 0 
	8 12 13 15 14 8 9 10 11 
	8 13 6 7 15 9 5 4 10 

CELL_TYPES 3
	12
	12
	12

POINT_DATA 16
FIELD NT 1
	NT 1 16 double
		 9.99847000E-01
		 9.99847000E-01
		 9.99847000E-01
		 9.99847000E-01
		 0.00000000E+00
		 0.00000000E+00
		 0.00000000E+00
		 0.00000000E+00
		 1.00031000E+00
		 9.98904000E-01
		 9.98904000E-01
		 1.00031000E+00
		 1.00031000E+00
		 9.98904000E-01
		 1.00031000E+00
		 9.98904000E-01
