<?xml version="1.0"?>
<VTKFile type="UnstructuredGrid" version="0.1" byte_order="LittleEndian">
	<UnstructuredGrid>
		<Piece NumberOfPoints="522" NumberOfCells="64">
			<Points>
				<DataArray type="Float64" NumberOfComponents="3" format="ascii">
					 1.00000000E+00	 1.00000000E+00	 0.00000000E+00
					 1.00000000E+00	 5.00000000E-01	 0.00000000E+00
					 1.00000000E+00	 5.00000000E-01	 1.00000000E+00
					 1.00000000E+00	 1.00000000E+00	 1.00000000E+00
					 5.00000000E-01	 1.00000000E+00	 0.00000000E+00
					 5.00000000E-01	 5.00000000E-01	 0.00000000E+00
					 5.00000000E-01	 5.00000000E-01	 1.00000000E+00
					 5.00000000E-01	 1.00000000E+00	 1.00000000E+00
					 1.00000000E+00	 7.50000000E-01	 0.00000000E+00
					 1.00000000E+00	 5.00000000E-01	 5.00000000E-01
					 1.00000000E+00	 7.50000000E-01	 1.00000000E+00
					 1.00000000E+00	 1.00000000E+00	 5.00000000E-01
					 7.50000000E-01	 1.00000000E+00	 0.00000000E+00
					 7.50000000E-01	 5.00000000E-01	 0.00000000E+00
					 7.50000000E-01	 5.00000000E-01	 1.00000000E+00
					 7.50000000E-01	 1.00000000E+00	 1.00000000E+00
					 5.00000000E-01	 7.50000000E-01	 0.00000000E+00
					 5.00000000E-01	 5.00000000E-01	 5.00000000E-01
					 5.00000000E-01	 7.50000000E-01	 1.00000000E+00
					 5.00000000E-01	 1.00000000E+00	 5.00000000E-01
					 1.00000000E+00	 0.00000000E+00	 0.00000000E+00
					 1.00000000E+00	 0.00000000E+00	 1.00000000E+00
					 5.00000000E-01	 0.00000000E+00	 0.00000000E+00
					 5.00000000E-01	 0.00000000E+00	 1.00000000E+00
					 1.00000000E+00	 2.50000000E-01	 0.00000000E+00
					 1.00000000E+00	 0.00000000E+00	 5.00000000E-01
					 1.00000000E+00	 2.50000000E-01	 1.00000000E+00
					 7.50000000E-01	 0.00000000E+00	 0.00000000E+00
					 7.50000000E-01	 0.00000000E+00	 1.00000000E+00
					 5.00000000E-01	 2.50000000E-01	 0.00000000E+00
					 5.00000000E-01	 0.00000000E+00	 5.00000000E-01
					 5.00000000E-01	 2.50000000E-01	 1.00000000E+00
					 0.00000000E+00	 1.00000000E+00	 0.00000000E+00
					 0.00000000E+00	 5.00000000E-01	 0.00000000E+00
					 0.00000000E+00	 5.00000000E-01	 1.00000000E+00
					 0.00000000E+00	 1.00000000E+00	 1.00000000E+00
					 2.50000000E-01	 1.00000000E+00	 0.00000000E+00
					 2.50000000E-01	 5.00000000E-01	 0.00000000E+00
					 2.50000000E-01	 5.00000000E-01	 1.00000000E+00
					 2.50000000E-01	 1.00000000E+00	 1.00000000E+00
					 0.00000000E+00	 7.50000000E-01	 0.00000000E+00
					 0.00000000E+00	 5.00000000E-01	 5.00000000E-01
					 0.00000000E+00	 7.50000000E-01	 1.00000000E+00
					 0.00000000E+00	 1.00000000E+00	 5.00000000E-01
					 0.00000000E+00	 0.00000000E+00	 0.00000000E+00
					 0.00000000E+00	 0.00000000E+00	 1.00000000E+00
					 2.50000000E-01	 0.00000000E+00	 0.00000000E+00
					 2.50000000E-01	 0.00000000E+00	 1.00000000E+00
					 0.00000000E+00	 2.50000000E-01	 0.00000000E+00
					 0.00000000E+00	 0.00000000E+00	 5.00000000E-01
					 0.00000000E+00	 2.50000000E-01	 1.00000000E+00
					 1.00000000E+00	 5.00000000E-01	 2.00000000E+00
					 1.00000000E+00	 1.00000000E+00	 2.00000000E+00
					 5.00000000E-01	 5.00000000E-01	 2.00000000E+00
					 5.00000000E-01	 1.00000000E+00	 2.00000000E+00
					 1.00000000E+00	 5.00000000E-01	 1.50000000E+00
					 1.00000000E+00	 7.50000000E-01	 2.00000000E+00
					 1.00000000E+00	 1.00000000E+00	 1.50000000E+00
					 7.50000000E-01	 5.00000000E-01	 2.00000000E+00
					 7.50000000E-01	 1.00000000E+00	 2.00000000E+00
					 5.00000000E-01	 5.00000000E-01	 1.50000000E+00
					 5.00000000E-01	 7.50000000E-01	 2.00000000E+00
					 5.00000000E-01	 1.00000000E+00	 1.50000000E+00
					 1.00000000E+00	 0.00000000E+00	 2.00000000E+00
					 5.00000000E-01	 0.00000000E+00	 2.00000000E+00
					 1.00000000E+00	 0.00000000E+00	 1.50000000E+00
					 1.00000000E+00	 2.50000000E-01	 2.00000000E+00
					 7.50000000E-01	 0.00000000E+00	 2.00000000E+00
					 5.00000000E-01	 0.00000000E+00	 1.50000000E+00
					 5.00000000E-01	 2.50000000E-01	 2.00000000E+00
					 0.00000000E+00	 5.00000000E-01	 2.00000000E+00
					 0.00000000E+00	 1.00000000E+00	 2.00000000E+00
					 2.50000000E-01	 5.00000000E-01	 2.00000000E+00
					 2.50000000E-01	 1.00000000E+00	 2.00000000E+00
					 0.00000000E+00	 5.00000000E-01	 1.50000000E+00
					 0.00000000E+00	 7.50000000E-01	 2.00000000E+00
					 0.00000000E+00	 1.00000000E+00	 1.50000000E+00
					 0.00000000E+00	 0.00000000E+00	 2.00000000E+00
					 2.50000000E-01	 0.00000000E+00	 2.00000000E+00
					 0.00000000E+00	 0.00000000E+00	 1.50000000E+00
					 0.00000000E+00	 2.50000000E-01	 2.00000000E+00
					 1.00000000E+00	 5.00000000E-01	 3.00000000E+00
					 1.00000000E+00	 1.00000000E+00	 3.00000000E+00
					 5.00000000E-01	 5.00000000E-01	 3.00000000E+00
					 5.00000000E-01	 1.00000000E+00	 3.00000000E+00
					 1.00000000E+00	 5.00000000E-01	 2.50000000E+00
					 1.00000000E+00	 7.50000000E-01	 3.00000000E+00
					 1.00000000E+00	 1.00000000E+00	 2.50000000E+00
					 7.50000000E-01	 5.00000000E-01	 3.00000000E+00
					 7.50000000E-01	 1.00000000E+00	 3.00000000E+00
					 5.00000000E-01	 5.00000000E-01	 2.50000000E+00
					 5.00000000E-01	 7.50000000E-01	 3.00000000E+00
					 5.00000000E-01	 1.00000000E+00	 2.50000000E+00
					 1.00000000E+00	 0.00000000E+00	 3.00000000E+00
					 5.00000000E-01	 0.00000000E+00	 3.00000000E+00
					 1.00000000E+00	 0.00000000E+00	 2.50000000E+00
					 1.00000000E+00	 2.50000000E-01	 3.00000000E+00
					 7.50000000E-01	 0.00000000E+00	 3.00000000E+00
					 5.00000000E-01	 0.00000000E+00	 2.50000000E+00
					 5.00000000E-01	 2.50000000E-01	 3.00000000E+00
					 0.00000000E+00	 5.00000000E-01	 3.00000000E+00
					 0.00000000E+00	 1.00000000E+00	 3.00000000E+00
					 2.50000000E-01	 5.00000000E-01	 3.00000000E+00
					 2.50000000E-01	 1.00000000E+00	 3.00000000E+00
					 0.00000000E+00	 5.00000000E-01	 2.50000000E+00
					 0.00000000E+00	 7.50000000E-01	 3.00000000E+00
					 0.00000000E+00	 1.00000000E+00	 2.50000000E+00
					 0.00000000E+00	 0.00000000E+00	 3.00000000E+00
					 2.50000000E-01	 0.00000000E+00	 3.00000000E+00
					 0.00000000E+00	 0.00000000E+00	 2.50000000E+00
					 0.00000000E+00	 2.50000000E-01	 3.00000000E+00
					 1.00000000E+00	 5.00000000E-01	 4.00000000E+00
					 1.00000000E+00	 1.00000000E+00	 4.00000000E+00
					 5.00000000E-01	 5.00000000E-01	 4.00000000E+00
					 5.00000000E-01	 1.00000000E+00	 4.00000000E+00
					 1.00000000E+00	 5.00000000E-01	 3.50000000E+00
					 1.00000000E+00	 7.50000000E-01	 4.00000000E+00
					 1.00000000E+00	 1.00000000E+00	 3.50000000E+00
					 7.50000000E-01	 5.00000000E-01	 4.00000000E+00
					 7.50000000E-01	 1.00000000E+00	 4.00000000E+00
					 5.00000000E-01	 5.00000000E-01	 3.50000000E+00
					 5.00000000E-01	 7.50000000E-01	 4.00000000E+00
					 5.00000000E-01	 1.00000000E+00	 3.50000000E+00
					 1.00000000E+00	 0.00000000E+00	 4.00000000E+00
					 5.00000000E-01	 0.00000000E+00	 4.00000000E+00
					 1.00000000E+00	 0.00000000E+00	 3.50000000E+00
					 1.00000000E+00	 2.50000000E-01	 4.00000000E+00
					 7.50000000E-01	 0.00000000E+00	 4.00000000E+00
					 5.00000000E-01	 0.00000000E+00	 3.50000000E+00
					 5.00000000E-01	 2.50000000E-01	 4.00000000E+00
					 0.00000000E+00	 5.00000000E-01	 4.00000000E+00
					 0.00000000E+00	 1.00000000E+00	 4.00000000E+00
					 2.50000000E-01	 5.00000000E-01	 4.00000000E+00
					 2.50000000E-01	 1.00000000E+00	 4.00000000E+00
					 0.00000000E+00	 5.00000000E-01	 3.50000000E+00
					 0.00000000E+00	 7.50000000E-01	 4.00000000E+00
					 0.00000000E+00	 1.00000000E+00	 3.50000000E+00
					 0.00000000E+00	 0.00000000E+00	 4.00000000E+00
					 2.50000000E-01	 0.00000000E+00	 4.00000000E+00
					 0.00000000E+00	 0.00000000E+00	 3.50000000E+00
					 0.00000000E+00	 2.50000000E-01	 4.00000000E+00
					 1.00000000E+00	 5.00000000E-01	 5.00000000E+00
					 1.00000000E+00	 1.00000000E+00	 5.00000000E+00
					 5.00000000E-01	 5.00000000E-01	 5.00000000E+00
					 5.00000000E-01	 1.00000000E+00	 5.00000000E+00
					 1.00000000E+00	 5.00000000E-01	 4.50000000E+00
					 1.00000000E+00	 7.50000000E-01	 5.00000000E+00
					 1.00000000E+00	 1.00000000E+00	 4.50000000E+00
					 7.50000000E-01	 5.00000000E-01	 5.00000000E+00
					 7.50000000E-01	 1.00000000E+00	 5.00000000E+00
					 5.00000000E-01	 5.00000000E-01	 4.50000000E+00
					 5.00000000E-01	 7.50000000E-01	 5.00000000E+00
					 5.00000000E-01	 1.00000000E+00	 4.50000000E+00
					 1.00000000E+00	 0.00000000E+00	 5.00000000E+00
					 5.00000000E-01	 0.00000000E+00	 5.00000000E+00
					 1.00000000E+00	 0.00000000E+00	 4.50000000E+00
					 1.00000000E+00	 2.50000000E-01	 5.00000000E+00
					 7.50000000E-01	 0.00000000E+00	 5.00000000E+00
					 5.00000000E-01	 0.00000000E+00	 4.50000000E+00
					 5.00000000E-01	 2.50000000E-01	 5.00000000E+00
					 0.00000000E+00	 5.00000000E-01	 5.00000000E+00
					 0.00000000E+00	 1.00000000E+00	 5.00000000E+00
					 2.50000000E-01	 5.00000000E-01	 5.00000000E+00
					 2.50000000E-01	 1.00000000E+00	 5.00000000E+00
					 0.00000000E+00	 5.00000000E-01	 4.50000000E+00
					 0.00000000E+00	 7.50000000E-01	 5.00000000E+00
					 0.00000000E+00	 1.00000000E+00	 4.50000000E+00
					 0.00000000E+00	 0.00000000E+00	 5.00000000E+00
					 2.50000000E-01	 0.00000000E+00	 5.00000000E+00
					 0.00000000E+00	 0.00000000E+00	 4.50000000E+00
					 0.00000000E+00	 2.50000000E-01	 5.00000000E+00
					 1.00000000E+00	 5.00000000E-01	 6.00000000E+00
					 1.00000000E+00	 1.00000000E+00	 6.00000000E+00
					 5.00000000E-01	 5.00000000E-01	 6.00000000E+00
					 5.00000000E-01	 1.00000000E+00	 6.00000000E+00
					 1.00000000E+00	 5.00000000E-01	 5.50000000E+00
					 1.00000000E+00	 7.50000000E-01	 6.00000000E+00
					 1.00000000E+00	 1.00000000E+00	 5.50000000E+00
					 7.50000000E-01	 5.00000000E-01	 6.00000000E+00
					 7.50000000E-01	 1.00000000E+00	 6.00000000E+00
					 5.00000000E-01	 5.00000000E-01	 5.50000000E+00
					 5.00000000E-01	 7.50000000E-01	 6.00000000E+00
					 5.00000000E-01	 1.00000000E+00	 5.50000000E+00
					 1.00000000E+00	 0.00000000E+00	 6.00000000E+00
[...]
			<PointData>
				<DataArray type="Float32" Name="U" NumberOfComponents="3" ComponentName0="D1" ComponentName1="D2" ComponentName2="D3" format="ascii">
					 1.23759000E-02	 1.23853000E-02	 0.00000000E+00
					 1.17535000E-02	 7.44265000E-03	 0.00000000E+00
					 1.42496000E-02	 7.44268000E-03	 9.88222000E-03
					 1.48708000E-02	 1.23894000E-02	 9.87806000E-03
					 6.81282000E-03	 1.36303000E-02	 0.00000000E+00
					 6.18798000E-03	 7.44263000E-03	 0.00000000E+00
					 8.68723000E-03	 7.44266000E-03	 1.23788000E-02
					 9.31112000E-03	 1.36321000E-02	 1.23750000E-02
					 1.19093000E-02	 9.91390000E-03	 0.00000000E+00
					 1.23781000E-02	 7.44266000E-03	 4.94196000E-03
					 1.44052000E-02	 9.91597000E-03	 9.88135000E-03
					 1.30002000E-02	 1.23869000E-02	 4.93973000E-03
					 9.74958000E-03	 1.30074000E-02	 0.00000000E+00
					 9.12622000E-03	 7.44264000E-03	 0.00000000E+00
					 1.16235000E-02	 7.44266000E-03	 1.11302000E-02
					 1.22458000E-02	 1.30103000E-02	 1.11260000E-02
					 6.34413000E-03	 1.05366000E-02	 0.00000000E+00
					 6.81289000E-03	 7.44264000E-03	 6.19059000E-03
					 8.84320000E-03	 1.05376000E-02	 1.23779000E-02
					 7.43744000E-03	 1.36312000E-02	 6.18858000E-03
					 1.23759000E-02	 2.49994000E-03	 0.00000000E+00
					 1.48709000E-02	 2.49585000E-03	 9.87811000E-03
					 6.81282000E-03	 1.25498000E-03	 0.00000000E+00
					 9.31112000E-03	 1.25316000E-03	 1.23751000E-02
					 1.19093000E-02	 4.97138000E-03	 0.00000000E+00
					 1.30002000E-02	 2.49837000E-03	 4.93975000E-03
					 1.44052000E-02	 4.96936000E-03	 9.88137000E-03
					 9.74959000E-03	 1.87789000E-03	 0.00000000E+00
					 1.22458000E-02	 1.87497000E-03	 1.11261000E-02
					 6.34414000E-03	 4.34866000E-03	 0.00000000E+00
					 7.43744000E-03	 1.25406000E-03	 6.18860000E-03
					 8.84320000E-03	 4.34774000E-03	 1.23779000E-02
					 0.00000000E+00	 1.48853000E-02	 0.00000000E+00
					-6.27533000E-04	 7.44263000E-03	 0.00000000E+00
					 1.87703000E-03	 7.44266000E-03	 1.48797000E-02
					 2.50373000E-03	 1.48853000E-02	 1.48763000E-02
					 3.56390000E-03	 1.42572000E-02	 0.00000000E+00
					 2.93747000E-03	 7.44263000E-03	 0.00000000E+00
					 5.43911000E-03	 7.44266000E-03	 1.36285000E-02
					 6.06467000E-03	 1.42582000E-02	 1.36250000E-02
					-4.71003000E-04	 1.11638000E-02	 0.00000000E+00
					-1.55863000E-06	 7.44264000E-03	 7.44141000E-03
					 2.03337000E-03	 1.11639000E-02	 1.48788000E-02
					 6.25708000E-04	 1.48855000E-02	 7.43962000E-03
					 0.00000000E+00	 0.00000000E+00	 0.00000000E+00
					 2.50373000E-03	 0.00000000E+00	 1.48763000E-02
					 3.56389000E-03	 6.28015000E-04	 0.00000000E+00
					 6.06467000E-03	 6.27155000E-04	 1.36251000E-02
					-4.71002000E-04	 3.72142000E-03	 0.00000000E+00
					 6.25708000E-04	-2.48358000E-07	 7.43965000E-03
					 2.03337000E-03	 3.72142000E-03	 1.48788000E-02
					 2.17260000E-02	 7.44276000E-03	 1.97528000E-02
					 2.23456000E-02	 1.23954000E-02	 1.97459000E-02
					 1.61777000E-02	 7.44274000E-03	 2.47379000E-02
					 1.68002000E-02	 1.36350000E-02	 2.47312000E-02
					 1.73669000E-02	 7.44271000E-03	 1.48209000E-02
					 2.18812000E-02	 9.91899000E-03	 1.97511000E-02
					 1.79872000E-02	 1.23931000E-02	 1.48153000E-02
					 1.91065000E-02	 7.44275000E-03	 2.22440000E-02
					 1.97273000E-02	 1.30147000E-02	 2.22372000E-02
					 1.18094000E-02	 7.44269000E-03	 1.85624000E-02
					 1.63333000E-02	 1.05390000E-02	 2.47362000E-02
					 1.24325000E-02	 1.36339000E-02	 1.85571000E-02
					 2.23457000E-02	 2.49007000E-03	 1.97461000E-02
					 1.68002000E-02	 1.25052000E-03	 2.47314000E-02
					 1.79872000E-02	 2.49221000E-03	 1.48154000E-02
					 2.18813000E-02	 4.96651000E-03	 1.97512000E-02
					 1.97273000E-02	 1.87079000E-03	 2.22373000E-02
					 1.24325000E-02	 1.25149000E-03	 1.85571000E-02
					 1.63333000E-02	 4.34645000E-03	 2.47363000E-02
					 9.38461000E-03	 7.44274000E-03	 2.97345000E-02
					 1.00100000E-02	 1.48854000E-02	 2.97280000E-02
					 1.29378000E-02	 7.44274000E-03	 2.72347000E-02
					 1.35620000E-02	 1.42596000E-02	 2.72282000E-02
					 5.00593000E-03	 7.44269000E-03	 2.23117000E-02
					 9.54063000E-03	 1.11640000E-02	 2.97328000E-02
					 5.63192000E-03	 1.48856000E-02	 2.23067000E-02
					 1.00100000E-02	 6.94287000E-08	 2.97281000E-02
					 1.35620000E-02	 6.25899000E-04	 2.72283000E-02
					 5.63192000E-03	-2.02713000E-07	 2.23068000E-02
					 9.54063000E-03	 3.72149000E-03	 2.97328000E-02
					 3.41679000E-02	 7.44292000E-03	 2.95815000E-02
					 3.47869000E-02	 1.23980000E-02	 2.95719000E-02
					 2.86483000E-02	 7.44290000E-03	 3.70517000E-02
					 2.92701000E-02	 1.36364000E-02	 3.70422000E-02
					 2.73267000E-02	 7.44283000E-03	 2.46741000E-02
					 3.43229000E-02	 9.92038000E-03	 2.95791000E-02
					 2.79459000E-02	 1.23970000E-02	 2.46659000E-02
					 3.15626000E-02	 7.44290000E-03	 3.33144000E-02
					 3.21827000E-02	 1.30167000E-02	 3.33049000E-02
					 2.17909000E-02	 7.44281000E-03	 3.09022000E-02
					 2.88037000E-02	 1.05398000E-02	 3.70493000E-02
					 2.24130000E-02	 1.36359000E-02	 3.08941000E-02
					 3.47869000E-02	 2.48775000E-03	 2.95721000E-02
					 2.92701000E-02	 1.24941000E-03	 3.70424000E-02
					 2.79460000E-02	 2.48855000E-03	 2.46661000E-02
					 3.43230000E-02	 4.96543000E-03	 2.95792000E-02
					 3.21827000E-02	 1.86906000E-03	 3.33051000E-02
					 2.24130000E-02	 1.24966000E-03	 3.08943000E-02
					 2.88037000E-02	 4.34597000E-03	 3.70494000E-02
					 2.18852000E-02	 7.44290000E-03	 4.45400000E-02
					 2.25099000E-02	 1.48856000E-02	 4.45305000E-02
					 2.54232000E-02	 7.44290000E-03	 4.07936000E-02
					 2.60467000E-02	 1.42604000E-02	 4.07841000E-02
					 1.50110000E-02	 7.44281000E-03	 3.71449000E-02
					 2.20411000E-02	 1.11641000E-02	 4.45376000E-02
					 1.56360000E-02	 1.48857000E-02	 3.71369000E-02
					 2.25099000E-02	 2.32735000E-07	 4.45307000E-02
					 2.60467000E-02	 6.25407000E-04	 4.07843000E-02
					 1.56360000E-02	-8.54484000E-08	 3.71371000E-02
					 2.20411000E-02	 3.72166000E-03	 4.45377000E-02
					 5.15711000E-02	 7.44315000E-03	 3.93402000E-02
					 5.21898000E-02	 1.23993000E-02	 3.93278000E-02
					 4.60935000E-02	 7.44313000E-03	 4.92938000E-02
					 4.67150000E-02	 1.36371000E-02	 4.92814000E-02
					 4.22496000E-02	 7.44303000E-03	 3.44713000E-02
					 5.17261000E-02	 9.92112000E-03	 3.93371000E-02
					 4.28684000E-02	 1.23989000E-02	 3.44603000E-02
					 4.89868000E-02	 7.44314000E-03	 4.43140000E-02
					 4.96066000E-02	 1.30177000E-02	 4.43016000E-02
					 3.67493000E-02	 7.44300000E-03	 4.31834000E-02
					 4.62489000E-02	 1.05403000E-02	 4.92907000E-02
					 3.73709000E-02	 1.36370000E-02	 4.31724000E-02
					 5.21899000E-02	 2.48697000E-03	 3.93280000E-02
					 4.67150000E-02	 1.24911000E-03	 4.92817000E-02
					 4.28685000E-02	 2.48708000E-03	 3.44605000E-02
					 5.17261000E-02	 4.96516000E-03	 3.93372000E-02
					 4.96066000E-02	 1.86852000E-03	 4.43018000E-02
					 3.73709000E-02	 1.24899000E-03	 4.31726000E-02
					 4.62489000E-02	 4.34594000E-03	 4.92908000E-02
					 3.93732000E-02	 7.44313000E-03	 5.92718000E-02
					 3.99975000E-02	 1.48858000E-02	 5.92593000E-02
					 4.28897000E-02	 7.44313000E-03	 5.42798000E-02
					 4.35129000E-02	 1.42609000E-02	 5.42673000E-02
					 3.00058000E-02	 7.44300000E-03	 5.19166000E-02
					 3.95289000E-02	 1.11644000E-02	 5.92687000E-02
					 3.06303000E-02	 1.48859000E-02	 5.19057000E-02
					 3.99975000E-02	 4.64982000E-07	 5.92596000E-02
					 4.35129000E-02	 6.25375000E-04	 5.42676000E-02
					 3.06303000E-02	 1.12851000E-07	 5.19059000E-02
					 3.95289000E-02	 3.72189000E-03	 5.92688000E-02
					 7.39336000E-02	 7.44347000E-03	 4.90024000E-02
					 7.45522000E-02	 1.23997000E-02	 4.89871000E-02
					 6.85109000E-02	 7.44344000E-03	 6.14386000E-02
					 6.91324000E-02	 1.36375000E-02	 6.14232000E-02
					 6.21327000E-02	 7.44330000E-03	 4.41850000E-02
					 7.40886000E-02	 9.92150000E-03	 4.89985000E-02
					 6.27513000E-02	 1.23997000E-02	 4.41711000E-02
					 7.13767000E-02	 7.44345000E-03	 5.52167000E-02
					 7.19964000E-02	 1.30181000E-02	 5.52013000E-02
					 5.66808000E-02	 7.44328000E-03	 5.53800000E-02
					 6.86663000E-02	 1.05406000E-02	 6.14347000E-02
					 5.73023000E-02	 1.36376000E-02	 5.53661000E-02
					 7.45523000E-02	 2.48714000E-03	 4.89875000E-02
					 6.91324000E-02	 1.24939000E-03	 6.14236000E-02
					 6.27514000E-02	 2.48678000E-03	 4.41715000E-02
					 7.40886000E-02	 4.96540000E-03	 4.89987000E-02
					 7.19965000E-02	 1.86875000E-03	 5.52017000E-02
					 5.73023000E-02	 1.24898000E-03	 5.53664000E-02
					 6.86663000E-02	 4.34624000E-03	 6.14349000E-02
					 6.18457000E-02	 7.44344000E-03	 7.39055000E-02
					 6.24700000E-02	 1.48861000E-02	 7.38900000E-02
					 6.53347000E-02	 7.44344000E-03	 6.76682000E-02
					 6.59578000E-02	 1.42612000E-02	 6.76527000E-02
					 4.99862000E-02	 7.44328000E-03	 6.66025000E-02
					 6.20014000E-02	 1.11647000E-02	 7.39016000E-02
					 5.06105000E-02	 1.48862000E-02	 6.65885000E-02
					 6.24700000E-02	 7.79278000E-07	 7.38904000E-02
					 6.59578000E-02	 6.25670000E-04	 6.76531000E-02
					 5.06105000E-02	 3.86300000E-07	 6.65888000E-02
					 6.20014000E-02	 3.72220000E-03	 7.39018000E-02
					 1.01254000E-01	 7.44386000E-03	 5.85415000E-02
					 1.01873000E-01	 1.23987000E-02	 5.85235000E-02
					 9.58997000E-02	 7.44384000E-03	 7.34603000E-02
					 9.65215000E-02	 1.36371000E-02	 7.34421000E-02
					 8.69742000E-02	 7.44365000E-03	 5.37892000E-02
					 1.01409000E-01	 9.92118000E-03	 5.85369000E-02
					 8.75929000E-02	 1.23995000E-02	 5.37725000E-02
					 9.87314000E-02	 7.44384000E-03	 6.59962000E-02
					 9.93514000E-02	 1.30174000E-02	 6.59782000E-02
					 8.15839000E-02	 7.44363000E-03	 6.74665000E-02
					 9.60552000E-02	 1.05407000E-02	 7.34557000E-02
					 8.22054000E-02	 1.36376000E-02	 6.74497000E-02
					 1.01873000E-01	 2.48896000E-03	 5.85239000E-02
					 9.65215000E-02	 1.25054000E-03	 7.34426000E-02
					 8.75930000E-02	 2.48768000E-03	 5.37729000E-02
					 1.01409000E-01	 4.96651000E-03	 5.85371000E-02
					 9.93514000E-02	 1.87026000E-03	 6.59786000E-02
					 8.22054000E-02	 1.24965000E-03	 6.74501000E-02
					 9.60552000E-02	 4.34701000E-03	 7.34559000E-02
					 8.93023000E-02	 7.44384000E-03	 8.84165000E-02
					 8.99269000E-02	 1.48865000E-02	 8.83981000E-02
					 9.27574000E-02	 7.44384000E-03	 8.09338000E-02
					 9.33809000E-02	 1.42612000E-02	 8.09154000E-02
					 7.49507000E-02	 7.44363000E-03	 8.11779000E-02
					 8.94581000E-02	 1.11651000E-02	 8.84119000E-02
					 7.55751000E-02	 1.48865000E-02	 8.11609000E-02
					 8.99269000E-02	 1.17203000E-06	 8.83985000E-02
					 9.33809000E-02	 6.26467000E-04	 8.09158000E-02
					 7.55751000E-02	 7.39228000E-07	 8.11613000E-02
					 8.94581000E-02	 3.72259000E-03	 8.84121000E-02
					 1.33533000E-01	 7.44433000E-03	 6.79287000E-02
					 1.34153000E-01	 1.23937000E-02	 6.79082000E-02
					 1.28262000E-01	 7.44431000E-03	 8.53321000E-02
					 1.28885000E-01	 1.36350000E-02	 8.53111000E-02
					 1.16774000E-01	 7.44409000E-03	 6.32560000E-02
					 1.33689000E-01	 9.91894000E-03	 6.79234000E-02
					 1.17393000E-01	 1.23970000E-02	 6.32369000E-02
					 1.31053000E-01	 7.44432000E-03	 7.66247000E-02
					 1.31674000E-01	 1.30139000E-02	 7.66041000E-02
					 1.11459000E-01	 7.44407000E-03	 7.94166000E-02
					 1.28418000E-01	 1.05399000E-02	 8.53268000E-02
					 1.12081000E-01	 1.36365000E-02	 7.93971000E-02
					 1.34153000E-01	 2.49489000E-03	 6.79087000E-02
					 1.28885000E-01	 1.25362000E-03	 8.53116000E-02
					 1.17393000E-01	 2.49107000E-03	 6.32373000E-02
					 1.33689000E-01	 4.96970000E-03	 6.79236000E-02
					 1.31674000E-01	 1.87472000E-03	 7.66046000E-02
					 1.12081000E-01	 1.25167000E-03	 7.93976000E-02
					 1.28418000E-01	 4.34877000E-03	 8.53270000E-02
					 1.21746000E-01	 7.44432000E-03	 1.02780000E-01
					 1.22372000E-01	 1.48870000E-02	 1.02759000E-01
					 1.25161000E-01	 7.44431000E-03	 9.40508000E-02
					 1.25785000E-01	 1.42604000E-02	 9.40294000E-02
					 1.04900000E-01	 7.44407000E-03	 9.56184000E-02
					 1.21902000E-01	 1.11656000E-02	 1.02775000E-01
					 1.05525000E-01	 1.48870000E-02	 9.55984000E-02
					 1.22372000E-01	 1.62952000E-06	 1.02759000E-01
					 1.25785000E-01	 6.28200000E-04	 9.40299000E-02
					 1.05525000E-01	 1.17080000E-06	 9.55989000E-02
					 1.21902000E-01	 3.72306000E-03	 1.02775000E-01
					 1.70783000E-01	 7.44487000E-03	 7.71328000E-02
					 1.71404000E-01	 1.23894000E-02	 7.71095000E-02
					 1.65608000E-01	 7.44486000E-03	 9.70253000E-02
					 1.66232000E-01	 1.36337000E-02	 9.70022000E-02
					 1.51536000E-01	 7.44459000E-03	 7.25540000E-02
					 1.70939000E-01	 9.91714000E-03	 7.71270000E-02
					 1.52157000E-01	 1.23913000E-02	 7.25318000E-02
					 1.68351000E-01	 7.44486000E-03	 8.70728000E-02
					 1.68973000E-01	 1.30111000E-02	 8.70496000E-02
					 1.46312000E-01	 7.44458000E-03	 9.12028000E-02
					 1.65764000E-01	 1.05395000E-02	 9.70197000E-02
					 1.46935000E-01	 1.36346000E-02	 9.11802000E-02
					 1.71404000E-01	 2.50033000E-03	 7.71101000E-02
					 1.66232000E-01	 1.25600000E-03	 9.70027000E-02
					 1.52157000E-01	 2.49781000E-03	 7.25323000E-02
					 1.70939000E-01	 4.97259000E-03	 7.71274000E-02
					 1.68973000E-01	 1.87859000E-03	 8.70502000E-02
					 1.46935000E-01	 1.25453000E-03	 9.11807000E-02
					 1.65764000E-01	 4.35025000E-03	 9.70200000E-02
					 1.59185000E-01	 7.44486000E-03	 1.16973000E-01
					 1.59812000E-01	 1.48869000E-02	 1.16950000E-01
					 1.62553000E-01	 7.44486000E-03	 1.06993000E-01
					 1.63179000E-01	 1.42598000E-02	 1.06970000E-01
					 1.39840000E-01	 7.44458000E-03	 1.09899000E-01
					 1.59342000E-01	 1.11659000E-02	 1.16968000E-01
					 1.40466000E-01	 1.48874000E-02	 1.09877000E-01
					 1.59812000E-01	 2.76857000E-06	 1.16950000E-01
					 1.63179000E-01	 6.29881000E-04	 1.06970000E-01
					 1.40466000E-01	 1.75939000E-06	 1.09877000E-01
					 1.59342000E-01	 3.72383000E-03	 1.16968000E-01
					 6.78541000E-04	 6.65778000E-04	 0.00000000E+00
					 5.06985000E-04	 6.66377000E-04	 0.00000000E+00
					 1.19896000E-03	 6.65817000E-04	 2.88120000E-06
					 1.38363000E-03	 6.65604000E-04	-2.71744000E-06
					 5.05941000E-04	 1.00512000E-03	 0.00000000E+00
					 3.36518000E-04	 6.66811000E-04	 0.00000000E+00
					 1.01535000E-03	 6.66253000E-04	 7.03319000E-04
					 1.19982000E-03	 1.03399000E-03	 6.92768000E-04
					 5.50318000E-04	 6.65908000E-04	 0.00000000E+00
					 6.78994000E-04	 6.66240000E-04	 1.33849000E-06
					 1.24531000E-03	 6.65686000E-04	 3.90472000E-07
					 8.54762000E-04	 6.66004000E-04	-2.01897000E-06
					 6.34344000E-04	 8.36313000E-04	 0.00000000E+00
					 4.63349000E-04	 6.66596000E-04	 0.00000000E+00
					 1.15307000E-03	 6.66037000E-04	 3.53307000E-04
					 1.33769000E-03	 8.49837000E-04	 3.47621000E-04
					 3.79962000E-04	 8.35566000E-04	 0.00000000E+00
					 5.04625000E-04	 6.66672000E-04	 3.46237000E-04
					 1.06162000E-03	 8.50088000E-04	 7.01303000E-04
					 6.78755000E-04	 1.01606000E-03	 3.39049000E-04
					 6.77615000E-04	 6.66871000E-04	 0.00000000E+00
					 1.38269000E-03	 6.65912000E-04	-3.87288000E-06
					 5.05028000E-04	 3.28636000E-04	 0.00000000E+00
					 1.19890000E-03	 2.98669000E-04	 6.91631000E-04
					 5.49880000E-04	 6.66815000E-04	 0.00000000E+00
					 8.53833000E-04	 6.66365000E-04	-2.58451000E-06
					 1.24487000E-03	 6.65912000E-04	-1.89409000E-07
					 6.33364000E-04	 4.96891000E-04	 0.00000000E+00
					 1.33669000E-03	 4.82251000E-04	 3.46469000E-04
					 3.79554000E-04	 4.98100000E-04	 0.00000000E+00
					 6.77839000E-04	 3.17423000E-04	 3.38495000E-04
					 1.06122000E-03	 4.82469000E-04	 7.00729000E-04
					 0.00000000E+00	 1.33496000E-03	 0.00000000E+00
					-1.64199000E-04	 6.66907000E-04	 0.00000000E+00
					 4.65433000E-04	 6.66315000E-04	 1.37651000E-03
					 6.48843000E-04	 1.40138000E-03	 1.36021000E-03
					 2.92349000E-04	 1.17086000E-03	 0.00000000E+00
					 1.25286000E-04	 6.66937000E-04	 0.00000000E+00
					 7.86360000E-04	 6.66375000E-04	 1.04674000E-03
					 9.70428000E-04	 1.21773000E-03	 1.03039000E-03
					-1.21856000E-04	 1.00093000E-03	 0.00000000E+00
					-1.32792000E-05	 6.66757000E-04	 6.76704000E-04
					 5.11134000E-04	 1.03370000E-03	 1.37548000E-03
					 1.56667000E-04	 1.35735000E-03	 6.65773000E-04
					 0.00000000E+00	 0.00000000E+00	 0.00000000E+00
					 6.48938000E-04	-6.74517000E-05	 1.35915000E-03
					 2.91660000E-04	 1.63566000E-04	 0.00000000E+00
					 9.69740000E-04	 1.15638000E-04	 1.02929000E-03
					-1.21675000E-04	 3.33297000E-04	 0.00000000E+00
					 1.56695000E-04	-2.26331000E-05	 6.65250000E-04
					 5.11395000E-04	 2.99395000E-04	 1.37495000E-03
					 3.36894000E-03	 6.64030000E-04	-1.72824000E-06
					 3.57267000E-03	 6.64026000E-04	-4.71843000E-06
					 3.16759000E-03	 6.64471000E-04	 1.48060000E-03
					 3.37261000E-03	 1.07264000E-03	 1.47479000E-03
					 2.08834000E-03	 6.65087000E-04	 4.85372000E-07
					 3.41987000E-03	 6.64107000E-04	-2.90092000E-06
					 2.28358000E-03	 6.64972000E-04	-4.24795000E-06
					 3.31958000E-03	 6.64252000E-04	 7.39520000E-04
					 3.52375000E-03	 8.67905000E-04	 7.36335000E-04
					 1.89425000E-03	 6.65529000E-04	 1.08384000E-03
					 3.21849000E-03	 8.68736000E-04	 1.47946000E-03
					 2.09067000E-03	 1.05570000E-03	 1.07422000E-03
					 3.57171000E-03	 6.63902000E-04	-7.17605000E-06
					 3.37167000E-03	 2.56474000E-04	 1.47234000E-03
					 2.28263000E-03	 6.65077000E-04	-6.03833000E-06
					 3.41942000E-03	 6.63914000E-04	-4.13078000E-06
					 3.52272000E-03	 4.60616000E-04	 7.33878000E-04
					 2.08973000E-03	 2.75518000E-04	 1.07244000E-03
					 3.21808000E-03	 4.60263000E-04	 1.47824000E-03
					 2.55395000E-03	 6.64491000E-04	 2.95355000E-03
					 2.76095000E-03	 1.48703000E-03	 2.94529000E-03
					 2.91350000E-03	 6.64584000E-04	 2.21960000E-03
					 3.11964000E-03	 1.27942000E-03	 2.21151000E-03
					 1.30522000E-03	 6.65563000E-04	 2.14758000E-03
					 2.60488000E-03	 1.07560000E-03	 2.95232000E-03
					 1.50355000E-03	 1.45328000E-03	 2.13300000E-03
					 2.76116000E-03	-1.56580000E-04	 2.94284000E-03
					 3.11895000E-03	 5.04519000E-05	 2.20906000E-03
					 1.50372000E-03	-1.20740000E-04	 2.13126000E-03
					 2.60522000E-03	 2.53914000E-04	 2.95109000E-03
					 7.15990000E-03	 6.60884000E-04	-1.05972000E-05
					 7.37181000E-03	 6.60730000E-04	-1.09511000E-05
					 6.95380000E-03	 6.61324000E-04	 2.30536000E-03
					 7.16637000E-03	 1.08469000E-03	 2.30387000E-03
					 5.05567000E-03	 6.62631000E-04	-5.68850000E-06
					 7.21297000E-03	 6.60834000E-04	-1.04788000E-05
					 5.26435000E-03	 6.62529000E-04	-7.19267000E-06
					 7.10980000E-03	 6.61106000E-04	 1.14720000E-03
					 7.32201000E-03	 8.72621000E-04	 1.14666000E-03
					 4.85097000E-03	 6.63071000E-04	 1.88948000E-03
					 7.00699000E-03	 8.73043000E-04	 2.30535000E-03
					 5.06049000E-03	 1.07982000E-03	 1.88646000E-03
					 7.37084000E-03	 6.60903000E-04	-1.47926000E-05
					 7.16542000E-03	 2.38131000E-04	 2.30002000E-03
					 5.26338000E-03	 6.62598000E-04	-1.03369000E-05
					 7.21251000E-03	 6.60893000E-04	-1.24000000E-05
					 7.32097000E-03	 4.49607000E-04	 1.14282000E-03
					 5.05954000E-03	 2.46499000E-04	 1.88332000E-03
					 7.00658000E-03	 4.49663000E-04	 2.30343000E-03
					 6.32205000E-03	 6.61332000E-04	 4.61862000E-03
					 6.53510000E-03	 1.51182000E-03	 4.61600000E-03
					 6.69121000E-03	 6.61432000E-04	 3.46269000E-03
					 6.90423000E-03	 1.29815000E-03	 3.46029000E-03
					 4.22770000E-03	 6.63086000E-04	 3.77847000E-03
					 6.37514000E-03	 1.08650000E-03	 4.61849000E-03
					 4.43811000E-03	 1.50097000E-03	 3.77385000E-03
					 6.53532000E-03	-1.87660000E-04	 4.61216000E-03
					 6.90355000E-03	 2.54329000E-05	 3.45645000E-03
					 4.43832000E-03	-1.73311000E-04	 3.77071000E-03
					 6.37550000E-03	 2.36704000E-04	 4.61657000E-03
					 1.26403000E-02	 6.56333000E-04	-2.65304000E-05
					 1.28553000E-02	 6.56202000E-04	-2.57230000E-05