<?xml version="1.0"?>
<VTKFile type="UnstructuredGrid" version="0.1" byte_order="LittleEndian">
	<UnstructuredGrid>
		<Piece NumberOfPoints="16" NumberOfCells="2">
			<Points>
				<DataArray type="Float64" NumberOfComponents="3" format="ascii">
					 8.83883000E-02	-1.25000000E-01	-8.83883000E-02
					 8.83883000E-02	 1.25000000E-01	-8.83883000E-02
					-8.83883000E-02	 1.25000000E-01	 8.83883000E-02
					-8.83883000E-02	-1.25000000E-01	 8.83883000E-02
					 5.08839000E+00	-1.25000000E-01	 4.91161000E+00
					 5.08839000E+00	 1.25000000E-01	 4.91161000E+00
					 4.91161000E+00	 1.25000000E-01	 5.08839000E+00
					 4.91161000E+00	-1.25000000E-01	 5.08839000E+00
					 5.08839000E+00	-1.25000000E-01	 5.08839000E+00
					 5.08839000E+00	 1.25000000E-01	 5.08839000E+00
					 4.91161000E+00	 1.25000000E-01	 4.91161000E+00
					 4.91161000E+00	-1.25000000E-01	 4.91161000E+00
					 8.83883000E-02	-1.25000000E-01	 1.00884000E+01
					 8.83883000E-02	 1.25000000E-01	 1.00884000E+01
					-8.83883000E-02	 1.25000000E-01	 9.91161000E+00
					-8.83883000E-02	-1.25000000E-01	 9.91161000E+00

				</DataArray>
			</Points>
			<Cells>
				<DataArray type="Int32" Name="connectivity" format="ascii">
					0 4 5 1 3 7 6 2 8 12 13 9 11 15 14 10 
				</DataArray>
				<DataArray type="Int32" Name="offsets" format="ascii">
					8 16 
				</DataArray>
				<DataArray type="UInt8" Name="types" format="ascii">
					12 12 
				</DataArray>
			</Cells>
			<PointData>
				<DataArray type="Float32" Name="U" NumberOfComponents="3" ComponentName0="D1" ComponentName1="D2" ComponentName2="D3" format="ascii">
					-1.05232000E-07	 4.24264000E-08	-4.52316000E-08
					-1.54768000E-07	-4.24264000E-08	-9.47684000E-08
					 1.05232000E-07	-4.24264000E-08	 4.52316000E-08
					 1.54768000E-07	 4.24264000E-08	 9.47684000E-08
					 1.12085000E-05	 2.02390000E-06	-4.52316000E-08
					 1.11589000E-05	 1.93905000E-06	-9.47684000E-08
					 1.14189000E-05	 1.93905000E-06	 4.52316000E-08
					 1.14685000E-05	 2.02390000E-06	 9.47684000E-08
					 1.12085000E-05	 2.02390000E-06	 4.52316000E-08
					 1.11589000E-05	 1.93905000E-06	 9.47684000E-08
					 1.14189000E-05	 1.93905000E-06	-4.52316000E-08
					 1.14685000E-05	 2.02390000E-06	-9.47684000E-08
					-1.05232000E-07	 4.24264000E-08	 4.52316000E-08
					-1.54768000E-07	-4.24264000E-08	 9.47684000E-08
					 1.05232000E-07	-4.24264000E-08	-4.52316000E-08
					 1.54768000E-07	 4.24264000E-08	-9.47684000E-08
				</DataArray>
				<DataArray type="Float32" Name="S" NumberOfComponents="10" ComponentName0="xx" ComponentName1="yy" ComponentName2="zz" ComponentName3="xy" ComponentName4="yz" ComponentName5="zx" ComponentName6="Mises" ComponentName7="Min Principal" ComponentName8="Mid Principal" ComponentName9="Max Principal" format="ascii">
					 5.65663000E+00	 0.00000000E+00	 5.65663000E+00	 0.00000000E+00	 0.00000000E+00	 5.65663000E+00	 1.13132600E+01	 0.00000000E+00	 0.00000000E+00	 1.13132600E+01
					 5.65663000E+00	 0.00000000E+00	 5.65663000E+00	 0.00000000E+00	 0.00000000E+00	 5.65663000E+00	 1.13132600E+01	 0.00000000E+00	 0.00000000E+00	 1.13132600E+01
					 5.65663000E+00	 0.00000000E+00	 5.65663000E+00	 0.00000000E+00	 0.00000000E+00	 5.65663000E+00	 1.13132600E+01	 0.00000000E+00	 0.00000000E+00	 1.13132600E+01
					 5.65663000E+00	 0.00000000E+00	 5.65663000E+00	 0.00000000E+00	 0.00000000E+00	 5.65663000E+00	 1.13132600E+01	 0.00000000E+00	 0.00000000E+00	 1.13132600E+01
					 5.65663000E+00	 0.00000000E+00	 5.65663000E+00	 0.00000000E+00	 0.00000000E+00	 5.65663000E+00	 1.13132600E+01	 0.00000000E+00	 0.00000000E+00	 1.13132600E+01
					 5.65663000E+00	 0.00000000E+00	 5.65663000E+00	 0.00000000E+00	 0.00000000E+00	 5.65663000E+00	 1.13132600E+01	 0.00000000E+00	 0.00000000E+00	 1.13132600E+01
					 5.65663000E+00	 0.00000000E+00	 5.65663000E+00	 0.00000000E+00	 0.00000000E+00	 5.65663000E+00	 1.13132600E+01	 0.00000000E+00	 0.00000000E+00	 1.13132600E+01
					 5.65663000E+00	 0.00000000E+00	 5.65663000E+00	 0.00000000E+00	 0.00000000E+00	 5.65663000E+00	 1.13132600E+01	 0.00000000E+00	 0.00000000E+00	 1.13132600E+01
					 5.65663000E+00	 0.00000000E+00	 5.65663000E+00	 0.00000000E+00	 0.00000000E+00	-5.65663000E+00	 1.13132600E+01	 0.00000000E+00	 0.00000000E+00	 1.13132600E+01
					 5.65663000E+00	 0.00000000E+00	 5.65663000E+00	 0.00000000E+00	 0.00000000E+00	-5.65663000E+00	 1.13132600E+01	 0.00000000E+00	 0.00000000E+00	 1.13132600E+01
					 5.65663000E+00	 0.00000000E+00	 5.65663000E+00	 0.00000000E+00	 0.00000000E+00	-5.65663000E+00	 1.13132600E+01	 0.00000000E+00	 0.00000000E+00	 1.13132600E+01
					 5.65663000E+00	 0.00000000E+00	 5.65663000E+00	 0.00000000E+00	 0.00000000E+00	-5.65663000E+00	 1.13132600E+01	 0.00000000E+00	 0.00000000E+00	 1.13132600E+01
					 5.65663000E+00	 0.00000000E+00	 5.65663000E+00	 0.00000000E+00	 0.00000000E+00	-5.65663000E+00	 1.13132600E+01	 0.00000000E+00	 0.00000000E+00	 1.13132600E+01
					 5.65663000E+00	 0.00000000E+00	 5.65663000E+00	 0.00000000E+00	 0.00000000E+00	-5.65663000E+00	 1.13132600E+01	 0.00000000E+00	 0.00000000E+00	 1.13132600E+01
					 5.65663000E+00	 0.00000000E+00	 5.65663000E+00	 0.00000000E+00	 0.00000000E+00	-5.65663000E+00	 1.13132600E+01	 0.00000000E+00	 0.00000000E+00	 1.13132600E+01
					 5.65663000E+00	 0.00000000E+00	 5.65663000E+00	 0.00000000E+00	 0.00000000E+00	-5.65663000E+00	 1.13132600E+01	 0.00000000E+00	 0.00000000E+00	 1.13132600E+01
				</DataArray>
			</PointData>
		</Piece>
	</UnstructuredGrid>
</VTKFile>