<?xml version="1.0"?>
<VTKFile type="UnstructuredGrid" version="0.1" byte_order="LittleEndian">
	<UnstructuredGrid>
		<Piece NumberOfPoints="68" NumberOfCells="5">
			<Points>
				<DataArray type="Float64" NumberOfComponents="3" format="ascii">
					-1.25000000E+01	 2.50000000E+01	 0.00000000E+00
					-1.25000000E+01	-2.50000000E+01	 0.00000000E+00
					 1.25000000E+01	-2.50000000E+01	 0.00000000E+00
					 1.25000000E+01	 2.50000000E+01	 0.00000000E+00
					-1.25000000E+01	 0.00000000E+00	 0.00000000E+00
					 0.00000000E+00	-2.50000000E+01	 0.00000000E+00
					 1.25000000E+01	 0.00000000E+00	 0.00000000E+00
					 0.00000000E+00	 2.50000000E+01	 0.00000000E+00
					-1.25000000E+01	 2.50000000E+01	 1.00000000E+02
					-1.25000000E+01	-2.50000000E+01	 1.00000000E+02
					 1.25000000E+01	-2.50000000E+01	 1.00000000E+02
					 1.25000000E+01	 2.50000000E+01	 1.00000000E+02
					-1.25000000E+01	 2.50000000E+01	 2.00000000E+02
					-1.25000000E+01	-2.50000000E+01	 2.00000000E+02
					 1.25000000E+01	-2.50000000E+01	 2.00000000E+02
					 1.25000000E+01	 2.50000000E+01	 2.00000000E+02
					-1.25000000E+01	 0.00000000E+00	 2.00000000E+02
					 0.00000000E+00	-2.50000000E+01	 2.00000000E+02
					 1.25000000E+01	 0.00000000E+00	 2.00000000E+02
					 0.00000000E+00	 2.50000000E+01	 2.00000000E+02
					-1.25000000E+01	 2.50000000E+01	 3.00000000E+02
					-1.25000000E+01	-2.50000000E+01	 3.00000000E+02
					 1.25000000E+01	-2.50000000E+01	 3.00000000E+02
					 1.25000000E+01	 2.50000000E+01	 3.00000000E+02
					-1.25000000E+01	 2.50000000E+01	 4.00000000E+02
					-1.25000000E+01	-2.50000000E+01	 4.00000000E+02
					 1.25000000E+01	-2.50000000E+01	 4.00000000E+02
					 1.25000000E+01	 2.50000000E+01	 4.00000000E+02
					-1.25000000E+01	 0.00000000E+00	 4.00000000E+02
					 0.00000000E+00	-2.50000000E+01	 4.00000000E+02
					 1.25000000E+01	 0.00000000E+00	 4.00000000E+02
					 0.00000000E+00	 2.50000000E+01	 4.00000000E+02
					-1.25000000E+01	 2.50000000E+01	 5.00000000E+02
					-1.25000000E+01	-2.50000000E+01	 5.00000000E+02
					 1.25000000E+01	-2.50000000E+01	 5.00000000E+02
					 1.25000000E+01	 2.50000000E+01	 5.00000000E+02
					-1.25000000E+01	 2.50000000E+01	 6.00000000E+02
					-1.25000000E+01	-2.50000000E+01	 6.00000000E+02
					 1.25000000E+01	-2.50000000E+01	 6.00000000E+02
					 1.25000000E+01	 2.50000000E+01	 6.00000000E+02
					-1.25000000E+01	 0.00000000E+00	 6.00000000E+02
					 0.00000000E+00	-2.50000000E+01	 6.00000000E+02
					 1.25000000E+01	 0.00000000E+00	 6.00000000E+02
					 0.00000000E+00	 2.50000000E+01	 6.00000000E+02
					-1.25000000E+01	 2.50000000E+01	 7.00000000E+02
					-1.25000000E+01	-2.50000000E+01	 7.00000000E+02
					 1.25000000E+01	-2.50000000E+01	 7.00000000E+02
					 1.25000000E+01	 2.50000000E+01	 7.00000000E+02
					-1.25000000E+01	 2.50000000E+01	 8.00000000E+02
					-1.25000000E+01	-2.50000000E+01	 8.00000000E+02
					 1.25000000E+01	-2.50000000E+01	 8.00000000E+02
					 1.25000000E+01	 2.50000000E+01	 8.00000000E+02
					-1.25000000E+01	 0.00000000E+00	 8.00000000E+02
					 0.00000000E+00	-2.50000000E+01	 8.00000000E+02
					 1.25000000E+01	 0.00000000E+00	 8.00000000E+02
					 0.00000000E+00	 2.50000000E+01	 8.00000000E+02
					-1.25000000E+01	 2.50000000E+01	 9.00000000E+02
					-1.25000000E+01	-2.50000000E+01	 9.00000000E+02
					 1.25000000E+01	-2.50000000E+01	 9.00000000E+02
					 1.25000000E+01	 2.50000000E+01	 9.00000000E+02
					-1.25000000E+01	 2.50000000E+01	 1.00000000E+03
					-1.25000000E+01	-2.50000000E+01	 1.00000000E+03
					 1.25000000E+01	-2.50000000E+01	 1.00000000E+03
					 1.25000000E+01	 2.50000000E+01	 1.00000000E+03
					-1.25000000E+01	 0.00000000E+00	 1.00000000E+03
					 0.00000000E+00	-2.50000000E+01	 1.00000000E+03
					 1.25000000E+01	 0.00000000E+00	 1.00000000E+03
					 0.00000000E+00	 2.50000000E+01	 1.00000000E+03

				</DataArray>
			</Points>
			<Cells>
				<DataArray type="Int32" Name="connectivity" format="ascii">
					0 12 13 1 3 15 14 2 8 16 9 4 11 18 10 6 7 19 17 5 12 24 25 13 15 27 26 14 20 28 21 16 23 30 22 18 19 31 29 17 24 36 37 25 27 39 38 26 32 40 33 28 35 42 34 30 31 43 41 29 36 48 49 37 39 51 50 38 44 52 45 40 47 54 46 42 43 55 53 41 48 60 61 49 51 63 62 50 56 64 57 52 59 66 58 54 55 67 65 53 
				</DataArray>
				<DataArray type="Int32" Name="offsets" format="ascii">
					20 40 60 80 100 
				</DataArray>
				<DataArray type="UInt8" Name="types" format="ascii">
					25 25 25 25 25 
				</DataArray>
			</Cells>
			<PointData>
				<DataArray type="Float32" Name="U" NumberOfComponents="3" ComponentName0="D1" ComponentName1="D2" ComponentName2="D3" format="ascii">
					 4.13630000E-01	 1.56901000E-01	 1.04281000E+00
					-4.13630000E-01	 1.56901000E-01	-1.04281000E+00
					 5.70531000E-01	-1.56901000E-01	 1.04281000E+00
					-5.70531000E-01	-1.56901000E-01	-1.04281000E+00
					 0.00000000E+00	 1.56901000E-01	 0.00000000E+00
					 7.84507000E-02	 0.00000000E+00	 0.00000000E+00
					 0.00000000E+00	-1.56901000E-01	 0.00000000E+00
					-7.84507000E-02	 0.00000000E+00	 0.00000000E+00
					 1.31314000E+00	-1.79970000E+01	 4.68776000E+00
					-1.31314000E+00	-1.79970000E+01	-4.68776000E+00
					-1.23693000E+00	-1.91814000E+01	-4.97834000E+00
					 1.23693000E+00	-1.91814000E+01	 4.97834000E+00
					-5.56972000E-01	-3.34944000E+01	 5.74395000E-02
					 5.56972000E-01	-3.34944000E+01	-5.74395000E-02
					-1.56123000E-01	-3.35467000E+01	 2.54910000E-01
					 1.56123000E-01	-3.35467000E+01	-2.54910000E-01
					 0.00000000E+00	-3.37936000E+01	 0.00000000E+00
					 1.94531000E-01	-3.34559000E+01	 8.42830000E-02
					 0.00000000E+00	-3.38242000E+01	 0.00000000E+00
					-1.94531000E-01	-3.34559000E+01	-8.42830000E-02
					-2.00944000E+00	-1.77988000E+01	-6.69663000E+00
					 2.00944000E+00	-1.77988000E+01	 6.69663000E+00
					 1.68826000E+00	-1.57545000E+01	 6.03234000E+00
					-1.68826000E+00	-1.57545000E+01	-6.03234000E+00
					-4.07254000E+00	 1.32827000E+01	-6.79867000E+00
					 4.07254000E+00	 1.32827000E+01	 6.79867000E+00
					 4.26868000E+00	 1.71994000E+01	 6.53952000E+00
					-4.26868000E+00	 1.71994000E+01	-6.53952000E+00
					 0.00000000E+00	 1.34702000E+01	 0.00000000E+00
					 4.17522000E+00	 1.52021000E+01	 6.68286000E+00
					 0.00000000E+00	 1.73695000E+01	 0.00000000E+00
					-4.17522000E+00	 1.52021000E+01	-6.68286000E+00
					-4.11473000E+00	 2.78246000E+01	 1.04367000E-01
					 4.11473000E+00	 2.78246000E+01	-1.04367000E-01
					 4.84131000E+00	 3.23315000E+01	-2.01249000E-02
					-4.84131000E+00	 3.23315000E+01	 2.01249000E-02
					-2.88790000E+00	 1.30490000E+01	 6.87054000E+00
					 2.88790000E+00	 1.30490000E+01	-6.87054000E+00
					 3.04489000E+00	 1.58106000E+01	-6.24270000E+00
					-3.04489000E+00	 1.58106000E+01	 6.24270000E+00
					 0.00000000E+00	 1.32428000E+01	 0.00000000E+00
					 2.97005000E+00	 1.43877000E+01	-6.56732000E+00
					 0.00000000E+00	 1.59912000E+01	 0.00000000E+00
					-2.97005000E+00	 1.43877000E+01	 6.56732000E+00
					-1.60195000E-01	-1.64954000E+01	 5.93866000E+00
					 1.60195000E-01	-1.64954000E+01	-5.93866000E+00
					-2.24109000E-01	-1.63763000E+01	-5.27212000E+00
					 2.24109000E-01	-1.63763000E+01	 5.27212000E+00
					 2.00310000E+00	-2.69538000E+01	-1.89697000E+00
					-2.00310000E+00	-2.69538000E+01	 1.89697000E+00
					-2.76037000E+00	-2.95531000E+01	 2.13140000E+00
					 2.76037000E+00	-2.95531000E+01	-2.13140000E+00
					 0.00000000E+00	-2.73819000E+01	 0.00000000E+00
					-2.38715000E+00	-2.81562000E+01	 2.02250000E+00
					 0.00000000E+00	-2.99618000E+01	 0.00000000E+00
					 2.38715000E+00	-2.81562000E+01	-2.02250000E+00
					 3.11264000E+00	-1.29063000E+00	-9.16233000E+00
					-3.11264000E+00	-1.29063000E+00	 9.16233000E+00
					-3.41029000E+00	-4.45478000E+00	 9.13252000E+00
					 3.41029000E+00	-4.45478000E+00	-9.13252000E+00
					 3.00849000E+00	 4.31571000E+01	-1.15428000E+01
					-3.00849000E+00	 4.31571000E+01	 1.15428000E+01
					-3.11298000E+00	 3.98953000E+01	 1.13584000E+01
					 3.11298000E+00	 3.98953000E+01	-1.13584000E+01
					 0.00000000E+00	 4.31914000E+01	 0.00000000E+00
					-3.06045000E+00	 4.15206000E+01	 1.14501000E+01
					 0.00000000E+00	 3.99297000E+01	 0.00000000E+00
					 3.06045000E+00	 4.15206000E+01	-1.14501000E+01
				</DataArray>
			</PointData>
		</Piece>
	</UnstructuredGrid>
</VTKFile>