<?xml version="1.0"?>
<VTKFile type="UnstructuredGrid" version="0.1" byte_order="LittleEndian">
	<UnstructuredGrid>
		<Piece NumberOfPoints="68" NumberOfCells="5">
			<Points>
				<DataArray type="Float64" NumberOfComponents="3" format="ascii">
					-1.25000000E+01	 2.50000000E+01	 0.00000000E+00
					-1.25000000E+01	-2.50000000E+01	 0.00000000E+00
					 1.25000000E+01	-2.50000000E+01	 0.00000000E+00
					 1.25000000E+01	 2.50000000E+01	 0.00000000E+00
					-1.25000000E+01	 0.00000000E+00	 0.00000000E+00
					 0.00000000E+00	-2.50000000E+01	 0.00000000E+00
					 1.25000000E+01	 0.00000000E+00	 0.00000000E+00
					 0.00000000E+00	 2.50000000E+01	 0.00000000E+00
					-1.25000000E+01	 2.50000000E+01	 1.00000000E+02
					-1.25000000E+01	-2.50000000E+01	 1.00000000E+02
					 1.25000000E+01	-2.50000000E+01	 1.00000000E+02
					 1.25000000E+01	 2.50000000E+01	 1.00000000E+02
					-1.25000000E+01	 2.50000000E+01	 2.00000000E+02
					-1.25000000E+01	-2.50000000E+01	 2.00000000E+02
					 1.25000000E+01	-2.50000000E+01	 2.00000000E+02
					 1.25000000E+01	 2.50000000E+01	 2.00000000E+02
					-1.25000000E+01	 0.00000000E+00	 2.00000000E+02
					 0.00000000E+00	-2.50000000E+01	 2.00000000E+02
					 1.25000000E+01	 0.00000000E+00	 2.00000000E+02
					 0.00000000E+00	 2.50000000E+01	 2.00000000E+02
					-1.25000000E+01	 2.50000000E+01	 3.00000000E+02
					-1.25000000E+01	-2.50000000E+01	 3.00000000E+02
					 1.25000000E+01	-2.50000000E+01	 3.00000000E+02
					 1.25000000E+01	 2.50000000E+01	 3.00000000E+02
					-1.25000000E+01	 2.50000000E+01	 4.00000000E+02
					-1.25000000E+01	-2.50000000E+01	 4.00000000E+02
					 1.25000000E+01	-2.50000000E+01	 4.00000000E+02
					 1.25000000E+01	 2.50000000E+01	 4.00000000E+02
					-1.25000000E+01	 0.00000000E+00	 4.00000000E+02
					 0.00000000E+00	-2.50000000E+01	 4.00000000E+02
					 1.25000000E+01	 0.00000000E+00	 4.00000000E+02
					 0.00000000E+00	 2.50000000E+01	 4.00000000E+02
					-1.25000000E+01	 2.50000000E+01	 5.00000000E+02
					-1.25000000E+01	-2.50000000E+01	 5.00000000E+02
					 1.25000000E+01	-2.50000000E+01	 5.00000000E+02
					 1.25000000E+01	 2.50000000E+01	 5.00000000E+02
					-1.25000000E+01	 2.50000000E+01	 6.00000000E+02
					-1.25000000E+01	-2.50000000E+01	 6.00000000E+02
					 1.25000000E+01	-2.50000000E+01	 6.00000000E+02
					 1.25000000E+01	 2.50000000E+01	 6.00000000E+02
					-1.25000000E+01	 0.00000000E+00	 6.00000000E+02
					 0.00000000E+00	-2.50000000E+01	 6.00000000E+02
					 1.25000000E+01	 0.00000000E+00	 6.00000000E+02
					 0.00000000E+00	 2.50000000E+01	 6.00000000E+02
					-1.25000000E+01	 2.50000000E+01	 7.00000000E+02
					-1.25000000E+01	-2.50000000E+01	 7.00000000E+02
					 1.25000000E+01	-2.50000000E+01	 7.00000000E+02
					 1.25000000E+01	 2.50000000E+01	 7.00000000E+02
					-1.25000000E+01	 2.50000000E+01	 8.00000000E+02
					-1.25000000E+01	-2.50000000E+01	 8.00000000E+02
					 1.25000000E+01	-2.50000000E+01	 8.00000000E+02
					 1.25000000E+01	 2.50000000E+01	 8.00000000E+02
					-1.25000000E+01	 0.00000000E+00	 8.00000000E+02
					 0.00000000E+00	-2.50000000E+01	 8.00000000E+02
					 1.25000000E+01	 0.00000000E+00	 8.00000000E+02
					 0.00000000E+00	 2.50000000E+01	 8.00000000E+02
					-1.25000000E+01	 2.50000000E+01	 9.00000000E+02
					-1.25000000E+01	-2.50000000E+01	 9.00000000E+02
					 1.25000000E+01	-2.50000000E+01	 9.00000000E+02
					 1.25000000E+01	 2.50000000E+01	 9.00000000E+02
					-1.25000000E+01	 2.50000000E+01	 1.00000000E+03
					-1.25000000E+01	-2.50000000E+01	 1.00000000E+03
					 1.25000000E+01	-2.50000000E+01	 1.00000000E+03
					 1.25000000E+01	 2.50000000E+01	 1.00000000E+03
					-1.25000000E+01	 0.00000000E+00	 1.00000000E+03
					 0.00000000E+00	-2.50000000E+01	 1.00000000E+03
					 1.25000000E+01	 0.00000000E+00	 1.00000000E+03
					 0.00000000E+00	 2.50000000E+01	 1.00000000E+03

				</DataArray>
			</Points>
			<Cells>
				<DataArray type="Int32" Name="connectivity" format="ascii">
					0 12 13 1 3 15 14 2 8 16 9 4 11 18 10 6 7 19 17 5 12 24 25 13 15 27 26 14 20 28 21 16 23 30 22 18 19 31 29 17 24 36 37 25 27 39 38 26 32 40 33 28 35 42 34 30 31 43 41 29 36 48 49 37 39 51 50 38 44 52 45 40 47 54 46 42 43 55 53 41 48 60 61 49 51 63 62 50 56 64 57 52 59 66 58 54 55 67 65 53 
				</DataArray>
				<DataArray type="Int32" Name="offsets" format="ascii">
					20 40 60 80 100 
				</DataArray>
				<DataArray type="UInt8" Name="types" format="ascii">
					25 25 25 25 25 
				</DataArray>
			</Cells>
			<PointData>
				<DataArray type="Float32" Name="U" NumberOfComponents="3" ComponentName0="D1" ComponentName1="D2" ComponentName2="D3" format="ascii">
					 1.39077000E-05	-5.43648000E-05	-1.78153000E-04
					-1.39077000E-05	-5.43648000E-05	 1.78153000E-04
					-4.04570000E-05	 5.43648000E-05	-1.78153000E-04
					 4.04570000E-05	 5.43648000E-05	 1.78153000E-04
					 0.00000000E+00	-5.43648000E-05	 0.00000000E+00
					-2.71824000E-05	 0.00000000E+00	 0.00000000E+00
					 0.00000000E+00	 5.43648000E-05	 0.00000000E+00
					 2.71824000E-05	 0.00000000E+00	 0.00000000E+00
					-1.70986000E-03	-2.24186000E-04	-1.59387000E-04
					 1.70986000E-03	-2.24186000E-04	 1.59387000E-04
					 1.72040000E-03	 1.43851000E-03	-1.37207000E-04
					-1.72040000E-03	 1.43851000E-03	 1.37207000E-04
					-3.33527000E-03	-4.62079000E-04	-1.56089000E-04
					 3.33527000E-03	-4.62079000E-04	 1.56089000E-04
					 3.31946000E-03	 2.94167000E-03	-1.40660000E-04
					-3.31946000E-03	 2.94167000E-03	 1.40660000E-04
					 0.00000000E+00	-4.61995000E-04	 0.00000000E+00
					 3.32737000E-03	 1.23984000E-03	 3.51622000E-06
					 0.00000000E+00	 2.94158000E-03	 0.00000000E+00
					-3.32737000E-03	 1.23984000E-03	-3.51622000E-06
					-5.01206000E-03	-6.49034000E-04	-1.64347000E-04
					 5.01206000E-03	-6.49034000E-04	 1.64347000E-04
					 5.01744000E-03	 4.34156000E-03	-1.43040000E-04
					-5.01744000E-03	 4.34156000E-03	 1.43040000E-04
					-6.66121000E-03	-8.69072000E-04	-1.50174000E-04
					 6.66121000E-03	-8.69072000E-04	 1.50174000E-04
					 6.65462000E-03	 5.81200000E-03	-1.32484000E-04
					-6.65462000E-03	 5.81200000E-03	 1.32484000E-04
					 0.00000000E+00	-8.69188000E-04	 0.00000000E+00
					 6.65800000E-03	 2.47141000E-03	 5.72745000E-06
					 0.00000000E+00	 5.81205000E-03	 0.00000000E+00
					-6.65800000E-03	 2.47141000E-03	-5.72745000E-06
					-8.31916000E-03	-1.07322000E-03	-1.65086000E-04
					 8.31916000E-03	-1.07322000E-03	 1.65086000E-04
					 8.32031000E-03	 7.24746000E-03	-1.44750000E-04
					-8.32031000E-03	 7.24746000E-03	 1.44750000E-04
					-9.98173000E-03	-1.27629000E-03	-1.50157000E-04
					 9.98173000E-03	-1.27629000E-03	 1.50157000E-04
					 9.98373000E-03	 8.67875000E-03	-1.32935000E-04
					-9.98373000E-03	 8.67875000E-03	 1.32935000E-04
					 0.00000000E+00	-1.27584000E-03	 0.00000000E+00
					 9.98242000E-03	 3.70144000E-03	 5.30522000E-06
					 0.00000000E+00	 8.67865000E-03	 0.00000000E+00
					-9.98242000E-03	 3.70144000E-03	-5.30522000E-06
					-1.16259000E-02	-1.49893000E-03	-1.63950000E-04
					 1.16259000E-02	-1.49893000E-03	 1.63950000E-04
					 1.16228000E-02	 1.01522000E-02	-1.43210000E-04
					-1.16228000E-02	 1.01522000E-02	 1.43210000E-04
					-1.33084000E-02	-1.68215000E-03	-1.58139000E-04
					 1.33084000E-02	-1.68215000E-03	 1.58139000E-04
					 1.33193000E-02	 1.15515000E-02	-1.41583000E-04
					-1.33193000E-02	 1.15515000E-02	 1.41583000E-04
					 0.00000000E+00	-1.68390000E-03	 0.00000000E+00
					 1.33150000E-02	 4.93385000E-03	 4.67857000E-06
					 0.00000000E+00	 1.15519000E-02	 0.00000000E+00
					-1.33150000E-02	 4.93385000E-03	-4.67857000E-06
					-1.49273000E-02	-1.91926000E-03	-1.59061000E-04
					 1.49273000E-02	-1.91926000E-03	 1.59061000E-04
					 1.49196000E-02	 1.30578000E-02	-1.34382000E-04
					-1.49196000E-02	 1.30578000E-02	 1.34382000E-04
					-1.66640000E-02	-2.09478000E-03	-1.79338000E-04
					 1.66640000E-02	-2.09478000E-03	 1.79338000E-04
					 1.66853000E-02	 1.44353000E-02	-1.85157000E-04
					-1.66853000E-02	 1.44353000E-02	 1.85157000E-04
					 0.00000000E+00	-2.08847000E-03	 0.00000000E+00
					 1.66704000E-02	 6.17315000E-03	-5.21072000E-06
					 0.00000000E+00	 1.44340000E-02	 0.00000000E+00
					-1.66704000E-02	 6.17315000E-03	 5.21072000E-06
				</DataArray>
			</PointData>
		</Piece>
	</UnstructuredGrid>
</VTKFile>