    1C
    1UUSER                                                              
    1UDATE              01.august.2019                                  
    1UTIME              09:58:33                                        
    1UHOST                                                              
    1UPGM               CalculiX                                        
    1UVERSION           Version 2.15                             
    1UCOMPILETIME       Fri 15 Mar 11:57:46 CET 2019                    
    1UDIR                                                               
    1UDBN                                                               
    1UMAT    1STEEL                                                     
    2C                           307                                     1
 -1        97 0.00000E+00 5.00000E-01 1.00000E-01
 -1        98 2.00000E-01 5.00000E-01 1.00000E-01
 -1        99 1.00000E-01 5.00000E-01 1.00000E-01
 -1       100 4.00000E-01 5.00000E-01 1.00000E-01
 -1       101 3.00000E-01 5.00000E-01 1.00000E-01
 -1       102 6.00000E-01 5.00000E-01 1.00000E-01
 -1       103 5.00000E-01 5.00000E-01 1.00000E-01
 -1       104 8.00000E-01 5.00000E-01 1.00000E-01
 -1       105 7.00000E-01 5.00000E-01 1.00000E-01
 -1       106 1.00000E+00 5.00000E-01 1.00000E-01
 -1       107 9.00000E-01 5.00000E-01 1.00000E-01
 -1       108 1.00000E+00 0.00000E+00 5.00000E-03
 -1       109 1.00000E+00 0.00000E+00 0.00000E+00
 -1       110 1.00000E+00 0.00000E+00-5.00000E-03
 -1       111 8.00000E-01 0.00000E+00 5.00000E-03
 -1       112 8.00000E-01 0.00000E+00 0.00000E+00
 -1       113 8.00000E-01 0.00000E+00-5.00000E-03
 -1       114 8.00000E-01 2.00000E-01 5.00000E-03
 -1       115 8.00000E-01 2.00000E-01 0.00000E+00
 -1       116 8.00000E-01 2.00000E-01-5.00000E-03
 -1       117 1.00000E+00 2.00000E-01 5.00000E-03
 -1       118 1.00000E+00 2.00000E-01 0.00000E+00
 -1       119 1.00000E+00 2.00000E-01-5.00000E-03
 -1       120 9.00000E-01 0.00000E+00 5.00000E-03
 -1       122 9.00000E-01 0.00000E+00-5.00000E-03
 -1       123 8.00000E-01 1.00000E-01 5.00000E-03
 -1       125 8.00000E-01 1.00000E-01-5.00000E-03
 -1       126 9.00000E-01 2.00000E-01 5.00000E-03
 -1       128 9.00000E-01 2.00000E-01-5.00000E-03
 -1       129 1.00000E+00 1.00000E-01 5.00000E-03
 -1       131 1.00000E+00 1.00000E-01-5.00000E-03
 -1       132 8.00000E-01 4.00000E-01 5.00000E-03
 -1       133 8.00000E-01 4.00000E-01 0.00000E+00
 -1       134 8.00000E-01 4.00000E-01-5.00000E-03
 -1       135 1.00000E+00 4.00000E-01 5.00000E-03
 -1       136 1.00000E+00 4.00000E-01 0.00000E+00
 -1       137 1.00000E+00 4.00000E-01-5.00000E-03
 -1       138 8.00000E-01 3.00000E-01 5.00000E-03
 -1       140 8.00000E-01 3.00000E-01-5.00000E-03
 -1       141 9.00000E-01 4.00000E-01 5.00000E-03
 -1       143 9.00000E-01 4.00000E-01-5.00000E-03
 -1       144 1.00000E+00 3.00000E-01 5.00000E-03
 -1       146 1.00000E+00 3.00000E-01-5.00000E-03
 -1       147 8.00000E-01 6.00000E-01 5.00000E-03
 -1       148 8.00000E-01 6.00000E-01 0.00000E+00
 -1       149 8.00000E-01 6.00000E-01-5.00000E-03
 -1       150 1.00000E+00 6.00000E-01 5.00000E-03
 -1       151 1.00000E+00 6.00000E-01 0.00000E+00
 -1       152 1.00000E+00 6.00000E-01-5.00000E-03
 -1       153 8.00000E-01 5.00000E-01 5.00000E-03
 -1       155 8.00000E-01 5.00000E-01-5.00000E-03
 -1       156 9.00000E-01 6.00000E-01 5.00000E-03
 -1       158 9.00000E-01 6.00000E-01-5.00000E-03
 -1       159 1.00000E+00 5.00000E-01 5.00000E-03
 -1       161 1.00000E+00 5.00000E-01-5.00000E-03
 -1       162 8.00000E-01 8.00000E-01 5.00000E-03
 -1       163 8.00000E-01 8.00000E-01 0.00000E+00
 -1       164 8.00000E-01 8.00000E-01-5.00000E-03
 -1       165 1.00000E+00 8.00000E-01 5.00000E-03
 -1       166 1.00000E+00 8.00000E-01 0.00000E+00
 -1       167 1.00000E+00 8.00000E-01-5.00000E-03
 -1       168 8.00000E-01 7.00000E-01 5.00000E-03
 -1       170 8.00000E-01 7.00000E-01-5.00000E-03
 -1       171 9.00000E-01 8.00000E-01 5.00000E-03
 -1       173 9.00000E-01 8.00000E-01-5.00000E-03
 -1       174 1.00000E+00 7.00000E-01 5.00000E-03
 -1       176 1.00000E+00 7.00000E-01-5.00000E-03
 -1       177 8.00000E-01 1.00000E+00 5.00000E-03
 -1       178 8.00000E-01 1.00000E+00 0.00000E+00
 -1       179 8.00000E-01 1.00000E+00-5.00000E-03
 -1       180 1.00000E+00 1.00000E+00 5.00000E-03
 -1       181 1.00000E+00 1.00000E+00 0.00000E+00
 -1       182 1.00000E+00 1.00000E+00-5.00000E-03
 -1       183 8.00000E-01 9.00000E-01 5.00000E-03
 -1       185 8.00000E-01 9.00000E-01-5.00000E-03
 -1       186 9.00000E-01 1.00000E+00 5.00000E-03
 -1       188 9.00000E-01 1.00000E+00-5.00000E-03
 -1       189 1.00000E+00 9.00000E-01 5.00000E-03
 -1       191 1.00000E+00 9.00000E-01-5.00000E-03
 -1       192 6.00000E-01 0.00000E+00 5.00000E-03
 -1       193 6.00000E-01 0.00000E+00 0.00000E+00
 -1       194 6.00000E-01 0.00000E+00-5.00000E-03
 -1       195 6.00000E-01 2.00000E-01 5.00000E-03
 -1       196 6.00000E-01 2.00000E-01 0.00000E+00
 -1       197 6.00000E-01 2.00000E-01-5.00000E-03
 -1       198 7.00000E-01 0.00000E+00 5.00000E-03
 -1       200 7.00000E-01 0.00000E+00-5.00000E-03
 -1       201 6.00000E-01 1.00000E-01 5.00000E-03
 -1       203 6.00000E-01 1.00000E-01-5.00000E-03
 -1       204 7.00000E-01 2.00000E-01 5.00000E-03
 -1       206 7.00000E-01 2.00000E-01-5.00000E-03
 -1       207 6.00000E-01 4.00000E-01 5.00000E-03
 -1       208 6.00000E-01 4.00000E-01 0.00000E+00
 -1       209 6.00000E-01 4.00000E-01-5.00000E-03
 -1       210 6.00000E-01 3.00000E-01 5.00000E-03
 -1       212 6.00000E-01 3.00000E-01-5.00000E-03
 -1       213 7.00000E-01 4.00000E-01 5.00000E-03
 -1       215 7.00000E-01 4.00000E-01-5.00000E-03
 -1       216 6.00000E-01 6.00000E-01 5.00000E-03
 -1       217 6.00000E-01 6.00000E-01 0.00000E+00
 -1       218 6.00000E-01 6.00000E-01-5.00000E-03
 -1       219 6.00000E-01 5.00000E-01 5.00000E-03
 -1       221 6.00000E-01 5.00000E-01-5.00000E-03
 -1       222 7.00000E-01 6.00000E-01 5.00000E-03
 -1       224 7.00000E-01 6.00000E-01-5.00000E-03
 -1       225 6.00000E-01 8.00000E-01 5.00000E-03
 -1       226 6.00000E-01 8.00000E-01 0.00000E+00
 -1       227 6.00000E-01 8.00000E-01-5.00000E-03
 -1       228 6.00000E-01 7.00000E-01 5.00000E-03
 -1       230 6.00000E-01 7.00000E-01-5.00000E-03
 -1       231 7.00000E-01 8.00000E-01 5.00000E-03
 -1       233 7.00000E-01 8.00000E-01-5.00000E-03
 -1       234 6.00000E-01 1.00000E+00 5.00000E-03
 -1       235 6.00000E-01 1.00000E+00 0.00000E+00
 -1       236 6.00000E-01 1.00000E+00-5.00000E-03
 -1       237 6.00000E-01 9.00000E-01 5.00000E-03
 -1       239 6.00000E-01 9.00000E-01-5.00000E-03
 -1       240 7.00000E-01 1.00000E+00 5.00000E-03
 -1       242 7.00000E-01 1.00000E+00-5.00000E-03
 -1       243 4.00000E-01 0.00000E+00 5.00000E-03
 -1       244 4.00000E-01 0.00000E+00 0.00000E+00
 -1       245 4.00000E-01 0.00000E+00-5.00000E-03
 -1       246 4.00000E-01 2.00000E-01 5.00000E-03
 -1       247 4.00000E-01 2.00000E-01 0.00000E+00
 -1       248 4.00000E-01 2.00000E-01-5.00000E-03
 -1       249 5.00000E-01 0.00000E+00 5.00000E-03
 -1       251 5.00000E-01 0.00000E+00-5.00000E-03
 -1       252 4.00000E-01 1.00000E-01 5.00000E-03
 -1       254 4.00000E-01 1.00000E-01-5.00000E-03
 -1       255 5.00000E-01 2.00000E-01 5.00000E-03
 -1       257 5.00000E-01 2.00000E-01-5.00000E-03
 -1       258 4.00000E-01 4.00000E-01 5.00000E-03
 -1       259 4.00000E-01 4.00000E-01 0.00000E+00
 -1       260 4.00000E-01 4.00000E-01-5.00000E-03
 -1       261 4.00000E-01 3.00000E-01 5.00000E-03
 -1       263 4.00000E-01 3.00000E-01-5.00000E-03
 -1       264 5.00000E-01 4.00000E-01 5.00000E-03
 -1       266 5.00000E-01 4.00000E-01-5.00000E-03
 -1       267 4.00000E-01 6.00000E-01 5.00000E-03
 -1       268 4.00000E-01 6.00000E-01 0.00000E+00
 -1       269 4.00000E-01 6.00000E-01-5.00000E-03
 -1       270 4.00000E-01 5.00000E-01 5.00000E-03
 -1       272 4.00000E-01 5.00000E-01-5.00000E-03
 -1       273 5.00000E-01 6.00000E-01 5.00000E-03
 -1       275 5.00000E-01 6.00000E-01-5.00000E-03
 -1       276 4.00000E-01 8.00000E-01 5.00000E-03
 -1       277 4.00000E-01 8.00000E-01 0.00000E+00
 -1       278 4.00000E-01 8.00000E-01-5.00000E-03
 -1       279 4.00000E-01 7.00000E-01 5.00000E-03
 -1       281 4.00000E-01 7.00000E-01-5.00000E-03
 -1       282 5.00000E-01 8.00000E-01 5.00000E-03
 -1       284 5.00000E-01 8.00000E-01-5.00000E-03
 -1       285 4.00000E-01 1.00000E+00 5.00000E-03
 -1       286 4.00000E-01 1.00000E+00 0.00000E+00
 -1       287 4.00000E-01 1.00000E+00-5.00000E-03
 -1       288 4.00000E-01 9.00000E-01 5.00000E-03
 -1       290 4.00000E-01 9.00000E-01-5.00000E-03
 -1       291 5.00000E-01 1.00000E+00 5.00000E-03
 -1       293 5.00000E-01 1.00000E+00-5.00000E-03
 -1       294 2.00000E-01 0.00000E+00 5.00000E-03
 -1       295 2.00000E-01 0.00000E+00 0.00000E+00
 -1       296 2.00000E-01 0.00000E+00-5.00000E-03
 -1       297 2.00000E-01 2.00000E-01 5.00000E-03
 -1       298 2.00000E-01 2.00000E-01 0.00000E+00
 -1       299 2.00000E-01 2.00000E-01-5.00000E-03
 -1       300 3.00000E-01 0.00000E+00 5.00000E-03
 -1       302 3.00000E-01 0.00000E+00-5.00000E-03
 -1       303 2.00000E-01 1.00000E-01 5.00000E-03
 -1       305 2.00000E-01 1.00000E-01-5.00000E-03
 -1       306 3.00000E-01 2.00000E-01 5.00000E-03
 -1       308 3.00000E-01 2.00000E-01-5.00000E-03
 -1       309 2.00000E-01 4.00000E-01 5.00000E-03
 -1       310 2.00000E-01 4.00000E-01 0.00000E+00
 -1       311 2.00000E-01 4.00000E-01-5.00000E-03
 -1       312 2.00000E-01 3.00000E-01 5.00000E-03
 -1       314 2.00000E-01 3.00000E-01-5.00000E-03
 -1       315 3.00000E-01 4.00000E-01 5.00000E-03
 -1       317 3.00000E-01 4.00000E-01-5.00000E-03
 -1       318 2.00000E-01 6.00000E-01 5.00000E-03
 -1       319 2.00000E-01 6.00000E-01 0.00000E+00
 -1       320 2.00000E-01 6.00000E-01-5.00000E-03
 -1       321 2.00000E-01 5.00000E-01 5.00000E-03
 -1       323 2.00000E-01 5.00000E-01-5.00000E-03
 -1       324 3.00000E-01 6.00000E-01 5.00000E-03
 -1       326 3.00000E-01 6.00000E-01-5.00000E-03
 -1       327 2.00000E-01 8.00000E-01 5.00000E-03
 -1       328 2.00000E-01 8.00000E-01 0.00000E+00
 -1       329 2.00000E-01 8.00000E-01-5.00000E-03
 -1       330 2.00000E-01 7.00000E-01 5.00000E-03
 -1       332 2.00000E-01 7.00000E-01-5.00000E-03
 -1       333 3.00000E-01 8.00000E-01 5.00000E-03
 -1       335 3.00000E-01 8.00000E-01-5.00000E-03
 -1       336 2.00000E-01 1.00000E+00 5.00000E-03
 -1       337 2.00000E-01 1.00000E+00 0.00000E+00
 -1       338 2.00000E-01 1.00000E+00-5.00000E-03
 -1       339 2.00000E-01 9.00000E-01 5.00000E-03
 -1       341 2.00000E-01 9.00000E-01-5.00000E-03
 -1       342 3.00000E-01 1.00000E+00 5.00000E-03
 -1       344 3.00000E-01 1.00000E+00-5.00000E-03
 -1       345 0.00000E+00 0.00000E+00 5.00000E-03
 -1       346 0.00000E+00 0.00000E+00 0.00000E+00
 -1       347 0.00000E+00 0.00000E+00-5.00000E-03
 -1       348 0.00000E+00 2.00000E-01 5.00000E-03
 -1       349 0.00000E+00 2.00000E-01 0.00000E+00
 -1       350 0.00000E+00 2.00000E-01-5.00000E-03
 -1       351 1.00000E-01 0.00000E+00 5.00000E-03
 -1       353 1.00000E-01 0.00000E+00-5.00000E-03
 -1       354 0.00000E+00 1.00000E-01 5.00000E-03
 -1       356 0.00000E+00 1.00000E-01-5.00000E-03
 -1       357 1.00000E-01 2.00000E-01 5.00000E-03
 -1       359 1.00000E-01 2.00000E-01-5.00000E-03
 -1       360 0.00000E+00 4.00000E-01 5.00000E-03
 -1       361 0.00000E+00 4.00000E-01 0.00000E+00
 -1       362 0.00000E+00 4.00000E-01-5.00000E-03
 -1       363 0.00000E+00 3.00000E-01 5.00000E-03
 -1       365 0.00000E+00 3.00000E-01-5.00000E-03
 -1       366 1.00000E-01 4.00000E-01 5.00000E-03
 -1       368 1.00000E-01 4.00000E-01-5.00000E-03
 -1       369 0.00000E+00 6.00000E-01 5.00000E-03
 -1       370 0.00000E+00 6.00000E-01 0.00000E+00
 -1       371 0.00000E+00 6.00000E-01-5.00000E-03
 -1       372 0.00000E+00 5.00000E-01 5.00000E-03
 -1       374 0.00000E+00 5.00000E-01-5.00000E-03
 -1       375 1.00000E-01 6.00000E-01 5.00000E-03
 -1       377 1.00000E-01 6.00000E-01-5.00000E-03
 -1       378 0.00000E+00 8.00000E-01 5.00000E-03
 -1       379 0.00000E+00 8.00000E-01 0.00000E+00
 -1       380 0.00000E+00 8.00000E-01-5.00000E-03
 -1       381 0.00000E+00 7.00000E-01 5.00000E-03
 -1       383 0.00000E+00 7.00000E-01-5.00000E-03
 -1       384 1.00000E-01 8.00000E-01 5.00000E-03
 -1       386 1.00000E-01 8.00000E-01-5.00000E-03
 -1       387 0.00000E+00 1.00000E+00 5.00000E-03
 -1       388 0.00000E+00 1.00000E+00 0.00000E+00
 -1       389 0.00000E+00 1.00000E+00-5.00000E-03
 -1       390 0.00000E+00 9.00000E-01 5.00000E-03
 -1       392 0.00000E+00 9.00000E-01-5.00000E-03
 -1       393 1.00000E-01 1.00000E+00 5.00000E-03
 -1       395 1.00000E-01 1.00000E+00-5.00000E-03
 -1       396 6.93889E-19 5.05000E-01 1.05000E-01
 -1       397 6.93889E-19 4.95000E-01 1.05000E-01
 -1       398-6.93889E-19 4.95000E-01 9.50000E-02
 -1       399-6.93889E-19 5.05000E-01 9.50000E-02
 -1       400 6.93889E-19 5.00000E-01 1.05000E-01
 -1       401 0.00000E+00 4.95000E-01 1.00000E-01
 -1       402-6.93889E-19 5.00000E-01 9.50000E-02
 -1       403 0.00000E+00 5.05000E-01 1.00000E-01
 -1       404 2.00000E-01 5.05000E-01 1.05000E-01
 -1       405 2.00000E-01 4.95000E-01 1.05000E-01
 -1       406 2.00000E-01 4.95000E-01 9.50000E-02
 -1       407 2.00000E-01 5.05000E-01 9.50000E-02
 -1       408 2.00000E-01 5.00000E-01 1.05000E-01
 -1       409 2.00000E-01 4.95000E-01 1.00000E-01
 -1       410 2.00000E-01 5.00000E-01 9.50000E-02
 -1       411 2.00000E-01 5.05000E-01 1.00000E-01
 -1       412 1.00000E-01 5.05000E-01 1.05000E-01
 -1       413 1.00000E-01 4.95000E-01 1.05000E-01
 -1       414 1.00000E-01 4.95000E-01 9.50000E-02
 -1       415 1.00000E-01 5.05000E-01 9.50000E-02
 -1       420 4.00000E-01 5.05000E-01 1.05000E-01
 -1       421 4.00000E-01 4.95000E-01 1.05000E-01
 -1       422 4.00000E-01 4.95000E-01 9.50000E-02
 -1       423 4.00000E-01 5.05000E-01 9.50000E-02
 -1       424 4.00000E-01 5.00000E-01 1.05000E-01
 -1       425 4.00000E-01 4.95000E-01 1.00000E-01
 -1       426 4.00000E-01 5.00000E-01 9.50000E-02
 -1       427 4.00000E-01 5.05000E-01 1.00000E-01
 -1       428 3.00000E-01 5.05000E-01 1.05000E-01
 -1       429 3.00000E-01 4.95000E-01 1.05000E-01
 -1       430 3.00000E-01 4.95000E-01 9.50000E-02
 -1       431 3.00000E-01 5.05000E-01 9.50000E-02
 -1       436 6.00000E-01 5.05000E-01 1.05000E-01
 -1       437 6.00000E-01 4.95000E-01 1.05000E-01
 -1       438 6.00000E-01 4.95000E-01 9.50000E-02
 -1       439 6.00000E-01 5.05000E-01 9.50000E-02
 -1       440 6.00000E-01 5.00000E-01 1.05000E-01
 -1       441 6.00000E-01 4.95000E-01 1.00000E-01
 -1       442 6.00000E-01 5.00000E-01 9.50000E-02
 -1       443 6.00000E-01 5.05000E-01 1.00000E-01
 -1       444 5.00000E-01 5.05000E-01 1.05000E-01
 -1       445 5.00000E-01 4.95000E-01 1.05000E-01
 -1       446 5.00000E-01 4.95000E-01 9.50000E-02
 -1       447 5.00000E-01 5.05000E-01 9.50000E-02
 -1       452 8.00000E-01 5.05000E-01 1.05000E-01
 -1       453 8.00000E-01 4.95000E-01 1.05000E-01
 -1       454 8.00000E-01 4.95000E-01 9.50000E-02
 -1       455 8.00000E-01 5.05000E-01 9.50000E-02
 -1       456 8.00000E-01 5.00000E-01 1.05000E-01
 -1       457 8.00000E-01 4.95000E-01 1.00000E-01
 -1       458 8.00000E-01 5.00000E-01 9.50000E-02
 -1       459 8.00000E-01 5.05000E-01 1.00000E-01
 -1       460 7.00000E-01 5.05000E-01 1.05000E-01
 -1       461 7.00000E-01 4.95000E-01 1.05000E-01
 -1       462 7.00000E-01 4.95000E-01 9.50000E-02
 -1       463 7.00000E-01 5.05000E-01 9.50000E-02
 -1       468 1.00000E+00 5.05000E-01 1.05000E-01
 -1       469 1.00000E+00 4.95000E-01 1.05000E-01
 -1       470 1.00000E+00 4.95000E-01 9.50000E-02
 -1       471 1.00000E+00 5.05000E-01 9.50000E-02
 -1       472 1.00000E+00 5.00000E-01 1.05000E-01
 -1       473 1.00000E+00 4.95000E-01 1.00000E-01
 -1       474 1.00000E+00 5.00000E-01 9.50000E-02
 -1       475 1.00000E+00 5.05000E-01 1.00000E-01
 -1       476 9.00000E-01 5.05000E-01 1.05000E-01
 -1       477 9.00000E-01 4.95000E-01 1.05000E-01
 -1       478 9.00000E-01 4.95000E-01 9.50000E-02
 -1       479 9.00000E-01 5.05000E-01 9.50000E-02
 -3
    3C                            30                                     1
 -1         1    4    0    1
 -2       396       404       405       397       399       407       406       398       412       408
 -2       413       400       403       411       409       401       415       410       414       402
 -1         2    4    0    1
 -2       404       420       421       405       407       423       422       406       428       424
 -2       429       408       411       427       425       409       431       426       430       410
 -1         3    4    0    1
 -2       420       436       437       421       423       439       438       422       444       440
 -2       445       424       427       443       441       425       447       442       446       426
 -1         4    4    0    1
 -2       436       452       453       437       439       455       454       438       460       456
 -2       461       440       443       459       457       441       463       458       462       442
 -1         5    4    0    1
 -2       452       468       469       453       455       471       470       454       476       472
 -2       477       456       459       475       473       457       479       474       478       458
 -1         6    4    0    1
 -2       108       111       114       117       110       113       116       119       120       123
 -2       126       129       109       112       115       118       122       125       128       131
 -1         7    4    0    1
 -2       117       114       132       135       119       116       134       137       126       138
 -2       141       144       118       115       133       136       128       140       143       146
 -1         8    4    0    1
 -2       135       132       147       150       137       134       149       152       141       153
 -2       156       159       136       133       148       151       143       155       158       161
 -1         9    4    0    1
 -2       150       147       162       165       152       149       164       167       156       168
 -2       171       174       151       148       163       166       158       170       173       176
 -1        10    4    0    1
 -2       165       162       177       180       167       164       179       182       171       183
 -2       186       189       166       163       178       181       173       185       188       191
 -1        11    4    0    1
 -2       111       192       195       114       113       194       197       116       198       201
 -2       204       123       112       193       196       115       200       203       206       125
 -1        12    4    0    1
 -2       114       195       207       132       116       197       209       134       204       210
 -2       213       138       115       196       208       133       206       212       215       140
 -1        13    4    0    1
 -2       132       207       216       147       134       209       218       149       213       219
 -2       222       153       133       208       217       148       215       221       224       155
 -1        14    4    0    1
 -2       147       216       225       162       149       218       227       164       222       228
 -2       231       168       148       217       226       163       224       230       233       170
 -1        15    4    0    1
 -2       162       225       234       177       164       227       236       179       231       237
 -2       240       183       163       226       235       178       233       239       242       185
 -1        16    4    0    1
 -2       192       243       246       195       194       245       248       197       249       252
 -2       255       201       193       244       247       196       251       254       257       203
 -1        17    4    0    1
 -2       195       246       258       207       197       248       260       209       255       261
 -2       264       210       196       247       259       208       257       263       266       212
 -1        18    4    0    1
 -2       207       258       267       216       209       260       269       218       264       270
 -2       273       219       208       259       268       217       266       272       275       221
 -1        19    4    0    1
 -2       216       267       276       225       218       269       278       227       273       279
 -2       282       228       217       268       277       226       275       281       284       230
 -1        20    4    0    1
 -2       225       276       285       234       227       278       287       236       282       288
 -2       291       237       226       277       286       235       284       290       293       239
 -1        21    4    0    1
 -2       243       294       297       246       245       296       299       248       300       303
 -2       306       252       244       295       298       247       302       305       308       254
 -1        22    4    0    1
 -2       246       297       309       258       248       299       311       260       306       312
 -2       315       261       247       298       310       259       308       314       317       263
 -1        23    4    0    1
 -2       258       309       318       267       260       311       320       269       315       321
 -2       324       270       259       310       319       268       317       323       326       272
 -1        24    4    0    1
 -2       267       318       327       276       269       320       329       278       324       330
 -2       333       279       268       319       328       277       326       332       335       281
 -1        25    4    0    1
 -2       276       327       336       285       278       329       338       287       333       339
 -2       342       288       277       328       337       286       335       341       344       290
 -1        26    4    0    1
 -2       294       345       348       297       296       347       350       299       351       354
 -2       357       303       295       346       349       298       353       356       359       305
 -1        27    4    0    1
 -2       297       348       360       309       299       350       362       311       357       363
 -2       366       312       298       349       361       310       359       365       368       314
 -1        28    4    0    1
 -2       309       360       369       318       311       362       371       320       366       372
 -2       375       321       310       361       370       319       368       374       377       323
 -1        29    4    0    1
 -2       318       369       378       327       320       371       380       329       375       381
 -2       384       330       319       370       379       328       377       383       386       332
 -1        30    4    0    1
 -2       327       378       387       336       329       380       389       338       384       390
 -2       393       339       328       379       388       337       386       392       395       341
 -3
 9999
